 Gaussian 16, Revision B.01,
 Gaussian 16:  ES64L-G16RevB.01 20-Dec-2017

 -----------------------------
 #p b3lyp/6-31g(d) opt SCF=XQC
 -----------------------------

 ------------------------------
 Gaussian input prepared by ASE
 ------------------------------
 Symbolic Z-matrix:
 Charge =  0 Multiplicity = 1

 SCF Done:  E(RB3LYP) =  -2137.63855484     A.U. after   15 cycles
 SCF Done:  E(RB3LYP) =  -2137.64981691     A.U. after   12 cycles
 SCF Done:  E(RB3LYP) =  -2137.65035188     A.U. after   12 cycles
 SCF Done:  E(RB3LYP) =  -2137.65055059     A.U. after   11 cycles
 SCF Done:  E(RB3LYP) =  -2137.65060216     A.U. after   11 cycles
 SCF Done:  E(RB3LYP) =  -2137.65061678     A.U. after   10 cycles
 SCF Done:  E(RB3LYP) =  -2137.65062288     A.U. after    9 cycles
 SCF Done:  E(RB3LYP) =  -2137.65062446     A.U. after    9 cycles
 SCF Done:  E(RB3LYP) =  -2137.65062552     A.U. after    9 cycles
 SCF Done:  E(RB3LYP) =  -2137.65062590     A.U. after    9 cycles
 SCF Done:  E(RB3LYP) =  -2137.65062601     A.U. after    7 cycles
 SCF Done:  E(RB3LYP) =  -2137.65062607     A.U. after    7 cycles
 SCF Done:  E(RB3LYP) =  -2137.65062609     A.U. after    7 cycles
 SCF Done:  E(RB3LYP) =  -2137.65062610     A.U. after    6 cycles
 Optimization completed.
    -- Stationary point found.

                         Standard orientation:
 ---------------------------------------------------------------------
 Center     Atomic      Atomic             Coordinates (Angstroms)
 Number     Number       Type             X           Y           Z
 ---------------------------------------------------------------------
      1          6           0       11.546594    2.373648    1.067405
      2          6           0       10.562986    2.031269    1.997396
      3          6           0        9.514786    1.185489    1.635510
      4          6           0        9.434917    0.691454    0.327102
      5          7           0        8.362647   -0.161613   -0.048398
      6          6           0        8.487470   -1.437111   -0.613053
      7          6           0        9.641015   -2.170913   -0.903130
      8          6           0        9.480342   -3.442017   -1.450926
      9          6           0        8.204862   -3.976849   -1.700872
     10          6           0        7.059511   -3.246679   -1.396830
     11          6           0        7.192430   -1.967346   -0.844982
     12          6           0        6.243480   -0.967552   -0.399349
     13          6           0        4.847619   -0.905215   -0.389580
     14          6           0        4.197005    0.237236    0.093410
     15          6           0        2.713769    0.315142    0.119352
     16          6           0        2.046943    1.518456   -0.198327
     17          6           0        0.659019    1.636303   -0.186826
     18          6           0       -0.089719    0.506258    0.150544
     19          6           0        0.548497   -0.713360    0.471071
     20          6           0        1.940764   -0.803389    0.457312
     21          6           0       -0.489932   -1.676397    0.778246
     22          6           0       -0.447997   -3.018994    1.165110
     23          6           0       -1.643430   -3.691468    1.401544
     24          6           0       -2.870033   -3.026902    1.254539
     25          6           0       -2.938722   -1.688081    0.867771
     26          6           0       -1.734382   -1.020434    0.628663
     27          7           0       -1.488787    0.320330    0.239852
     28          6           0       -2.453284    1.278557   -0.015556
     29          7           0       -3.775898    0.989389   -0.040038
     30          6           0       -4.345958    2.165800   -0.318740
     31          6           0       -5.706303    2.562959   -0.473024
     32          6           0       -6.817230    1.595576   -0.331641
     33          6           0       -8.052296    2.006524    0.199065
     34          6           0       -9.120370    1.122698    0.303423
     35          6           0       -8.999268   -0.211405   -0.118214
     36          6           0      -10.124713   -1.178357   -0.025970
     37          6           0      -11.459474   -0.763182    0.123997
     38          6           0      -12.465912   -1.720326    0.211947
     39          6           0      -12.125073   -3.069860    0.139133
     40          6           0      -10.777233   -3.390763   -0.029797
     41          7           0       -9.801835   -2.484291   -0.109907
     42          6           0       -7.758868   -0.627275   -0.629498
     43          6           0       -6.689333    0.253894   -0.734373
     44          6           0       -5.928141    3.904531   -0.760983
     45          6           0       -4.873588    4.837729   -0.886809
     46          6           0       -3.572132    4.433928   -0.731791
     47          7           0       -3.345741    3.121498   -0.455074
     48          7           0       -2.126159    2.558265   -0.257260
     49          6           0        4.982910    1.319089    0.555607
     50          6           0        6.373460    1.285167    0.554733
     51          6           0        7.000236    0.129034    0.083206
     52          6           0       10.415691    1.042514   -0.609511
     53          6           0       11.471448    1.872712   -0.233757
     54          1           0       12.366064    3.026382    1.354685
     55          1           0       10.617079    2.411688    3.013781
     56          1           0        8.762069    0.894823    2.361675
     57          1           0       10.629057   -1.769155   -0.704308
     58          1           0       10.362774   -4.030962   -1.686328
     59          1           0        8.114228   -4.970187   -2.131083
     60          1           0        6.073461   -3.665095   -1.581407
     61          1           0        4.263617   -1.731944   -0.784694
     62          1           0        2.636462    2.383740   -0.487709
     63          1           0        0.177485    2.570824   -0.436926
     64          1           0        2.427324   -1.734678    0.733632
     65          1           0        0.506083   -3.526313    1.281333
     66          1           0       -1.627484   -4.735065    1.703240
     67          1           0       -3.795672   -3.563190    1.445620
     68          1           0       -3.886745   -1.181713    0.757132
     69          1           0       -8.168597    3.021407    0.568564
     70          1           0      -10.044222    1.475040    0.751980
     71          1           0      -11.711193    0.291428    0.151173
     72          1           0      -13.502401   -1.414430    0.327374
     73          1           0      -12.876260   -3.851106    0.202657
     74          1           0      -10.464620   -4.431654   -0.102776
     75          1           0       -7.650487   -1.658614   -0.945588
     76          1           0       -5.744847   -0.095156   -1.134857
     77          1           0       -6.946325    4.244399   -0.919016
     78          1           0       -5.082670    5.875924   -1.117652
     79          1           0       -2.695541    5.063272   -0.810966
     80          1           0        4.482557    2.199791    0.947621
     81          1           0        6.947855    2.131943    0.915660
     82          1           0       10.337922    0.671854   -1.626817
     83          1           0       12.229249    2.139147   -0.965507
 ---------------------------------------------------------------------

 The electronic state is 1-A.
 Alpha  occ. eigenvalues --  -14.44964 -14.39073 -14.37911 -14.35728 -14.32978
 Alpha  occ. eigenvalues --  -14.32610 -10.28664 -10.27032 -10.25334 -10.23786
 Alpha  occ. eigenvalues --  -10.23481 -10.22532 -10.22522 -10.22059 -10.22027
 Alpha  occ. eigenvalues --  -10.22007 -10.21977 -10.21671 -10.21527 -10.21189
 Alpha  occ. eigenvalues --  -10.20826 -10.20200 -10.20104 -10.20101 -10.19977
 Alpha  occ. eigenvalues --  -10.19969 -10.19862 -10.19856 -10.19728 -10.19658
 Alpha  occ. eigenvalues --  -10.19589 -10.18913 -10.18646 -10.18611 -10.18570
 Alpha  occ. eigenvalues --  -10.18471 -10.18469 -10.18451 -10.18412 -10.18393
 Alpha  occ. eigenvalues --  -10.18387 -10.18359 -10.18327 -10.18221 -10.18216
 Alpha  occ. eigenvalues --  -10.18164 -10.18073 -10.17925 -10.17867 -10.17850
 Alpha  occ. eigenvalues --  -10.17788 -10.17630 -10.17582  -1.09556  -0.99283
 Alpha  occ. eigenvalues --   -0.98618  -0.94431  -0.92615  -0.89222  -0.86851
 Alpha  occ. eigenvalues --   -0.86005  -0.85258  -0.84150  -0.83745  -0.83202
 Alpha  occ. eigenvalues --   -0.81024  -0.80523  -0.79425  -0.78397  -0.77488
 Alpha  occ. eigenvalues --   -0.76482  -0.75884  -0.75393  -0.74986  -0.74771
 Alpha  occ. eigenvalues --   -0.73570  -0.73270  -0.72707  -0.71453  -0.70921
 Alpha  occ. eigenvalues --   -0.70227  -0.67040  -0.65769  -0.65203  -0.64078
 Alpha  occ. eigenvalues --   -0.63804  -0.62775  -0.62078  -0.61988  -0.61141
 Alpha  occ. eigenvalues --   -0.60632  -0.59937  -0.58605  -0.58240  -0.57740
 Alpha  occ. eigenvalues --   -0.57395  -0.56925  -0.56097  -0.53719  -0.53590
 Alpha  occ. eigenvalues --   -0.53342  -0.53165  -0.52185  -0.51109  -0.50937
 Alpha  occ. eigenvalues --   -0.50310  -0.49653  -0.49495  -0.49373  -0.48723
 Alpha  occ. eigenvalues --   -0.48151  -0.47566  -0.47024  -0.46641  -0.46067
 Alpha  occ. eigenvalues --   -0.45022  -0.44817  -0.44697  -0.44515  -0.44264
 Alpha  occ. eigenvalues --   -0.43956  -0.43469  -0.43339  -0.43107  -0.42895
 Alpha  occ. eigenvalues --   -0.42573  -0.42260  -0.42095  -0.41915  -0.41548
 Alpha  occ. eigenvalues --   -0.41375  -0.41084  -0.40917  -0.40690  -0.40511
 Alpha  occ. eigenvalues --   -0.40301  -0.39877  -0.39031  -0.37840  -0.37467
 Alpha  occ. eigenvalues --   -0.37276  -0.36967  -0.36764  -0.36128  -0.36014
 Alpha  occ. eigenvalues --   -0.35639  -0.35447  -0.35260  -0.35127  -0.34447
 Alpha  occ. eigenvalues --   -0.34225  -0.33839  -0.33741  -0.33643  -0.32974
 Alpha  occ. eigenvalues --   -0.32762  -0.32704  -0.31818  -0.31584  -0.29377
 Alpha  occ. eigenvalues --   -0.28387  -0.28067  -0.27849  -0.27198  -0.26104
 Alpha  occ. eigenvalues --   -0.25971  -0.25843  -0.25646  -0.25330  -0.25192
 Alpha  occ. eigenvalues --   -0.24805  -0.23587  -0.21803  -0.21073  -0.20569
 Alpha  occ. eigenvalues --   -0.20104  -0.18322
 Alpha virt. eigenvalues --   -0.06361  -0.03011  -0.02314  -0.02286  -0.02123
 Alpha virt. eigenvalues --   -0.01725  -0.01315  -0.01036  -0.00330   0.00027
 Alpha virt. eigenvalues --    0.01677   0.02214   0.03425   0.04156   0.04579

 Mulliken charges:
               1
     1  C   -0.121566
     2  C   -0.142879
     3  C   -0.149748
     4  C    0.265508
     5  N   -0.737041
     6  C    0.311455
     7  C   -0.176791
     8  C   -0.141847
     9  C   -0.145364
    10  C   -0.196775
    11  C    0.057274
    12  C    0.066005
    13  C   -0.257882
    14  C    0.082716
    15  C    0.090946
    16  C   -0.201902
    17  C   -0.151356
    18  C    0.302936
    19  C    0.059729
    20  C   -0.260471
    21  C    0.050789
    22  C   -0.198946
    23  C   -0.139431
    24  C   -0.147511
    25  C   -0.152925
    26  C    0.298390
    27  N   -0.788629
    28  C    0.722895
    29  N   -0.621454
    30  C    0.564888
    31  C    0.012390
    32  C    0.109708
    33  C   -0.185209
    34  C   -0.191327
    35  C    0.114559
    36  C    0.247320
    37  C   -0.163007
    38  C   -0.104207
    39  C   -0.144031
    40  C    0.045464
    41  N   -0.479720
    42  C   -0.176653
    43  C   -0.163298
    44  C   -0.158591
    45  C   -0.202361
    46  C    0.103263
    47  N   -0.341635
    48  N   -0.397706
    49  C   -0.193897
    50  C   -0.179110
    51  C    0.316920
    52  C   -0.149667
    53  C   -0.142854
    54  H    0.134597
    55  H    0.138251
    56  H    0.153037
    57  H    0.138754
    58  H    0.125861
    59  H    0.123711
    60  H    0.130858
    61  H    0.133383
    62  H    0.127901
    63  H    0.170436
    64  H    0.132389
    65  H    0.129487
    66  H    0.123788
    67  H    0.129218
    68  H    0.184404
    69  H    0.131311
    70  H    0.130736
    71  H    0.139997
    72  H    0.143667
    73  H    0.139758
    74  H    0.142419
    75  H    0.162554
    76  H    0.164553
    77  H    0.149500
    78  H    0.153786
    79  H    0.188612
    80  H    0.129940
    81  H    0.139277
    82  H    0.152538
    83  H    0.137914
 Sum of Mulliken charges =  -0.00000

 Dipole moment (field-independent basis, Debye):
    X=             -2.8076    Y=              3.9075    Z=             -0.0912  Tot=              4.8124
 Quadrupole moment (field-independent basis, Debye-Ang):
   XX=           -193.6803   YY=           -262.7871   ZZ=           -303.2912
   XY=             -0.4864   XZ=              2.4798   YZ=              0.0243

 1\1\GINC-NODE66\FOpt\RB3LYP\6-31G(d)\C47H30N6\WYKGROUP\05-Nov-2022\0\\
 #p b3lyp/6-31g(d) opt SCF=XQC\\Gaussian input prepared by ASE\\0,1\C,1
 1.5027372668,-2.0172609109,-1.3666804528\C,10.5497801729,-1.4002258731
 ,-2.1795338179\C,9.4830653667,-0.7043292163,-1.6113118595\C,9.35353325
 52,-0.6394370937,-0.2179733507\N,8.2622302389,0.0592587805,0.364580029
 \C,8.3573671084,1.0967696118,1.3004389552\C,9.4943558789,1.7005551326,
 1.8444751548\C,9.3048063462,2.7401282402,2.7527481828\C,8.0172737567,3
 .1758371747,3.1102179468\C,6.8889361178,2.5797989701,2.5543292115\C,7.

 Normal termination of Gaussian 16 at Sat Nov  5 01:35:55 2022.
