 Gaussian 16, Revision B.01,
 Gaussian 16:  ES64L-G16RevB.01 20-Dec-2017

 -------------------------------------------------------------------
 #p b3lyp/6-31g(d) 6D 10F nosymm GFInput td=(50-50,nstate=2) SCF=XQC
 -------------------------------------------------------------------

 ------------------------------
 Gaussian input prepared by ASE
 ------------------------------
 Symbolic Z-matrix:
 Charge =  0 Multiplicity = 1

                          Input orientation:
 ---------------------------------------------------------------------
 Center     Atomic      Atomic             Coordinates (Angstroms)
 Number     Number       Type             X           Y           Z
 ---------------------------------------------------------------------
      1          6           0       11.502737   -2.017261   -1.366680
      2          6           0       10.549780   -1.400226   -2.179534
      3          6           0        9.483065   -0.704329   -1.611312
      4          6           0        9.353533   -0.639437   -0.217973
      5          7           0        8.262230    0.059259    0.364580
      6          6           0        8.357367    1.096770    1.300439
      7          6           0        9.494356    1.700555    1.844475
      8          6           0        9.304806    2.740128    2.752748
      9          6           0        8.017274    3.175837    3.110218
     10          6           0        6.888936    2.579799    2.554329
     11          6           0        7.050954    1.533754    1.638667
     12          6           0        6.125930    0.724488    0.871790
     13          6           0        4.731791    0.673231    0.793308
     14          6           0        4.107315   -0.261179   -0.042562
     15          6           0        2.626545   -0.321920   -0.144356
     16          6           0        1.958232   -1.562069   -0.238848
     17          6           0        0.572511   -1.665599   -0.335877
     18          6           0       -0.172572   -0.483959   -0.333384
     19          6           0        0.467126    0.772677   -0.237574
     20          6           0        1.857320    0.849042   -0.146855
     21          6           0       -0.567240    1.787205   -0.268447
     22          6           0       -0.522054    3.183447   -0.218916
     23          6           0       -1.713576    3.900352   -0.278134
     24          6           0       -2.939448    3.227319   -0.388032
     25          6           0       -3.011396    1.834792   -0.437442
     26          6           0       -1.811104    1.121617   -0.373870
     27          7           0       -1.569028   -0.274514   -0.410704
     28          6           0       -2.534515   -1.261276   -0.499136
     29          7           0       -3.859353   -0.989174   -0.433639
     30          6           0       -4.429802   -2.192019   -0.553380
     31          6           0       -5.791637   -2.612565   -0.578360
     32          6           0       -6.904306   -1.644982   -0.452944
     33          6           0       -8.116794   -1.866983   -1.128594
     34          6           0       -9.187297   -0.990468   -0.992332
     35          6           0       -9.091308    0.147065   -0.174359
     36          6           0      -10.220207    1.099074   -0.002903
     37          6           0      -11.545657    0.755516   -0.321647
     38          6           0      -12.555702    1.696444   -0.144892
     39          6           0      -12.227993    2.955876    0.354259
     40          6           0      -10.889414    3.203877    0.662306
     41          7           0       -9.910503    2.313669    0.492678
     42          6           0       -7.872845    0.379740    0.484551
     43          6           0       -6.800921   -0.494413    0.349654
     44          6           0       -6.013145   -3.976564   -0.727986
     45          6           0       -4.956530   -4.906623   -0.859617
     46          6           0       -3.653572   -4.479324   -0.835382
     47          7           0       -3.427683   -3.146532   -0.683934
     48          7           0       -2.206267   -2.554093   -0.653936
     49          6           0        4.917236   -1.149546   -0.788559
     50          6           0        6.306597   -1.122535   -0.727515
     51          6           0        6.907548   -0.171479    0.100846
     52          6           0       10.303492   -1.266767    0.598383
     53          6           0       11.378126   -1.943581    0.022078
     54          1           0       12.336770   -2.551884   -1.812428
     55          1           0       10.642432   -1.447418   -3.261141
     56          1           0        8.754092   -0.200405   -2.238244
     57          1           0       10.491821    1.376577    1.566503
     58          1           0       10.173888    3.224077    3.190296
     59          1           0        7.903977    3.987458    3.823277
     60          1           0        5.893833    2.924020    2.823993
     61          1           0        4.127954    1.339065    1.403801
     62          1           0        2.543851   -2.476533   -0.210669
     63          1           0        0.089680   -2.629905   -0.404749
     64          1           0        2.346119    1.818375   -0.103720
     65          1           0        0.431597    3.698406   -0.138191
     66          1           0       -1.695057    4.986013   -0.241167
     67          1           0       -3.861898    3.799723   -0.436670
     68          1           0       -3.958806    1.322445   -0.522961
     69          1           0       -8.212264   -2.717150   -1.798032
     70          1           0      -10.092105   -1.183294   -1.560655
     71          1           0      -11.788168   -0.237939   -0.682947
     72          1           0      -13.585123    1.445032   -0.386324
     73          1           0      -12.982459    3.721076    0.508896
     74          1           0      -10.587551    4.169887    1.065058
     75          1           0       -7.783542    1.262119    1.108049
     76          1           0       -5.873781   -0.289907    0.872017
     77          1           0       -7.033612   -4.345020   -0.719436
     78          1           0       -5.165614   -5.964518   -0.969141
     79          1           0       -2.775497   -5.105383   -0.923640
     80          1           0        4.437723   -1.863782   -1.451581
     81          1           0        6.899787   -1.817981   -1.312073
     82          1           0       10.187223   -1.229055    1.676997
     83          1           0       12.111797   -2.426213    0.662000
 ---------------------------------------------------------------------

 SCF Done:  E(RB3LYP) =  -2137.65062527     A.U. after   15 cycles

 Excitation energies and oscillator strengths:

 Excited state symmetry could not be determined.
 Excited State   1:      Triplet-?Sym    2.5852 eV  479.60 nm  f=0.0000  <S**2>=2.000
     171 ->179         0.14208
     173 ->178         0.57644
     174 ->178         0.13421
     176 ->178        -0.18146
     177 ->178        -0.22704
 This state for optimization and/or second-order correction.
 Total Energy, E(TD-HF/TD-DFT) =  -2137.55562168
 Copying the excited state density for this state as the 1-particle RhoCI density.

 Excited state symmetry could not be determined.
 Excited State   2:      Triplet-?Sym    2.8675 eV  432.38 nm  f=0.0000  <S**2>=2.000
     173 ->178         0.25946
     176 ->178         0.13414
     177 ->178         0.60066

 Excited state symmetry could not be determined.
 Excited State   3:      Singlet-?Sym    2.9350 eV  422.43 nm  f=0.1490  <S**2>=0.000
     176 ->178         0.12683
     177 ->178         0.69080

 Excited state symmetry could not be determined.
 Excited State   4:      Singlet-?Sym    3.3889 eV  365.85 nm  f=0.1090  <S**2>=0.000
     175 ->178        -0.26728
     176 ->178         0.63789
     177 ->178        -0.11972

 Alpha  occ. eigenvalues --  -14.44965 -14.39073 -14.37911 -14.35728 -14.32978
 Alpha  occ. eigenvalues --  -14.32610 -10.28664 -10.27032 -10.25334 -10.23786
 Alpha  occ. eigenvalues --  -10.23482 -10.22532 -10.22522 -10.22059 -10.22027
 Alpha  occ. eigenvalues --  -10.22007 -10.21977 -10.21671 -10.21527 -10.21189
 Alpha  occ. eigenvalues --  -10.20826 -10.20200 -10.20104 -10.20101 -10.19977
 Alpha  occ. eigenvalues --  -10.19969 -10.19862 -10.19856 -10.19728 -10.19658
 Alpha  occ. eigenvalues --  -10.19589 -10.18913 -10.18646 -10.18611 -10.18570
 Alpha  occ. eigenvalues --  -10.18471 -10.18469 -10.18451 -10.18412 -10.18393
 Alpha  occ. eigenvalues --  -10.18387 -10.18359 -10.18327 -10.18221 -10.18216
 Alpha  occ. eigenvalues --  -10.18164 -10.18073 -10.17925 -10.17867 -10.17850
 Alpha  occ. eigenvalues --  -10.17788 -10.17630 -10.17582  -1.09556  -0.99283
 Alpha  occ. eigenvalues --   -0.98618  -0.94431  -0.92615  -0.89222  -0.86851
 Alpha  occ. eigenvalues --   -0.86005  -0.85258  -0.84150  -0.83745  -0.83202
 Alpha  occ. eigenvalues --   -0.81024  -0.80523  -0.79425  -0.78397  -0.77488
 Alpha  occ. eigenvalues --   -0.76483  -0.75884  -0.75393  -0.74986  -0.74771
 Alpha  occ. eigenvalues --   -0.73570  -0.73270  -0.72707  -0.71453  -0.70921
 Alpha  occ. eigenvalues --   -0.70227  -0.67040  -0.65769  -0.65203  -0.64078
 Alpha  occ. eigenvalues --   -0.63804  -0.62775  -0.62078  -0.61988  -0.61141
 Alpha  occ. eigenvalues --   -0.60632  -0.59937  -0.58605  -0.58240  -0.57740
 Alpha  occ. eigenvalues --   -0.57395  -0.56925  -0.56097  -0.53719  -0.53590
 Alpha  occ. eigenvalues --   -0.53342  -0.53165  -0.52185  -0.51109  -0.50937
 Alpha  occ. eigenvalues --   -0.50310  -0.49653  -0.49495  -0.49373  -0.48723
 Alpha  occ. eigenvalues --   -0.48151  -0.47566  -0.47025  -0.46641  -0.46067
 Alpha  occ. eigenvalues --   -0.45022  -0.44817  -0.44697  -0.44515  -0.44264
 Alpha  occ. eigenvalues --   -0.43956  -0.43469  -0.43339  -0.43107  -0.42895
 Alpha  occ. eigenvalues --   -0.42573  -0.42260  -0.42095  -0.41915  -0.41548
 Alpha  occ. eigenvalues --   -0.41375  -0.41084  -0.40917  -0.40690  -0.40511
 Alpha  occ. eigenvalues --   -0.40301  -0.39877  -0.39031  -0.37840  -0.37466
 Alpha  occ. eigenvalues --   -0.37276  -0.36967  -0.36764  -0.36128  -0.36014
 Alpha  occ. eigenvalues --   -0.35639  -0.35447  -0.35260  -0.35127  -0.34447
 Alpha  occ. eigenvalues --   -0.34225  -0.33839  -0.33741  -0.33643  -0.32974
 Alpha  occ. eigenvalues --   -0.32762  -0.32704  -0.31818  -0.31584  -0.29377
 Alpha  occ. eigenvalues --   -0.28387  -0.28067  -0.27849  -0.27198  -0.26104
 Alpha  occ. eigenvalues --   -0.25971  -0.25843  -0.25646  -0.25330  -0.25192
 Alpha  occ. eigenvalues --   -0.24805  -0.23587  -0.21803  -0.21073  -0.20569
 Alpha  occ. eigenvalues --   -0.20104  -0.18322
 Alpha virt. eigenvalues --   -0.06361  -0.03012  -0.02314  -0.02286  -0.02123
 Alpha virt. eigenvalues --   -0.01725  -0.01315  -0.01036  -0.00330   0.00027
 Alpha virt. eigenvalues --    0.01677   0.02214   0.03425   0.04156   0.04579

 Mulliken charges:
               1
     1  C   -0.121563
     2  C   -0.142879
     3  C   -0.149750
     4  C    0.265515
     5  N   -0.737043
     6  C    0.311438
     7  C   -0.176780
     8  C   -0.141845
     9  C   -0.145366
    10  C   -0.196778
    11  C    0.057282
    12  C    0.066002
    13  C   -0.257890
    14  C    0.082724
    15  C    0.090948
    16  C   -0.201901
    17  C   -0.151376
    18  C    0.302959
    19  C    0.059740
    20  C   -0.260481
    21  C    0.050800
    22  C   -0.198951
    23  C   -0.139433
    24  C   -0.147508
    25  C   -0.152938
    26  C    0.298407
    27  N   -0.788658
    28  C    0.722919
    29  N   -0.621465
    30  C    0.564864
    31  C    0.012395
    32  C    0.109718
    33  C   -0.185217
    34  C   -0.191311
    35  C    0.114558
    36  C    0.247301
    37  C   -0.162999
    38  C   -0.104211
    39  C   -0.144028
    40  C    0.045462
    41  N   -0.479713
    42  C   -0.176658
    43  C   -0.163288
    44  C   -0.158596
    45  C   -0.202358
    46  C    0.103263
    47  N   -0.341633
    48  N   -0.397709
    49  C   -0.193899
    50  C   -0.179109
    51  C    0.316930
    52  C   -0.149670
    53  C   -0.142857
    54  H    0.134596
    55  H    0.138251
    56  H    0.153036
    57  H    0.138753
    58  H    0.125860
    59  H    0.123711
    60  H    0.130858
    61  H    0.133383
    62  H    0.127901
    63  H    0.170440
    64  H    0.132388
    65  H    0.129487
    66  H    0.123789
    67  H    0.129218
    68  H    0.184410
    69  H    0.131310
    70  H    0.130734
    71  H    0.139997
    72  H    0.143668
    73  H    0.139758
    74  H    0.142419
    75  H    0.162554
    76  H    0.164550
    77  H    0.149500
    78  H    0.153786
    79  H    0.188612
    80  H    0.129941
    81  H    0.139277
    82  H    0.152537
    83  H    0.137914
 Sum of Mulliken charges =  -0.00000

 Dipole moment (field-independent basis, Debye):
    X=             -2.7790    Y=             -3.7336    Z=             -1.2233  Tot=              4.8124
 Quadrupole moment (field-independent basis, Debye-Ang):
   XX=           -193.1419   YY=           -266.3233   ZZ=           -299.3384
   XY=              1.0228   XZ=              1.8153   YZ=             12.1542

 Normal termination of Gaussian 16 at Sat Nov  5 11:10:36 2022.
