 Gaussian 16, Revision B.01,
 Gaussian 16:  ES64L-G16RevB.01 20-Dec-2017

 -----------------------------
 #p b3lyp/6-31g(d) opt SCF=XQC
 -----------------------------

 ------------------------------
 Gaussian input prepared by ASE
 ------------------------------
 Symbolic Z-matrix:
 Charge =  0 Multiplicity = 1

 SCF Done:  E(RB3LYP) =  -2195.95120161     A.U. after   16 cycles
 SCF Done:  E(RB3LYP) =  -2195.96378475     A.U. after   13 cycles
 SCF Done:  E(RB3LYP) =  -2195.96451174     A.U. after   12 cycles
 SCF Done:  E(RB3LYP) =  -2195.96472542     A.U. after   12 cycles
 SCF Done:  E(RB3LYP) =  -2195.96480071     A.U. after   11 cycles
 SCF Done:  E(RB3LYP) =  -2195.96483243     A.U. after   11 cycles
 SCF Done:  E(RB3LYP) =  -2195.96483470     A.U. after   10 cycles
 SCF Done:  E(RB3LYP) =  -2195.96483478     A.U. after    8 cycles
 SCF Done:  E(RB3LYP) =  -2195.96483484     A.U. after    7 cycles
 SCF Done:  E(RB3LYP) =  -2195.96483491     A.U. after    7 cycles
 SCF Done:  E(RB3LYP) =  -2195.96483501     A.U. after    7 cycles
 SCF Done:  E(RB3LYP) =  -2195.96483510     A.U. after    7 cycles
 SCF Done:  E(RB3LYP) =  -2195.96483515     A.U. after    6 cycles
 Optimization completed.
    -- Stationary point found.

                         Standard orientation:
 ---------------------------------------------------------------------
 Center     Atomic      Atomic             Coordinates (Angstroms)
 Number     Number       Type             X           Y           Z
 ---------------------------------------------------------------------
      1          9           0       10.342027   -2.683157   -2.765375
      2          6           0        9.038960   -2.588043   -3.248078
      3          6           0        8.128670   -1.961765   -2.223048
      4          6           0        6.975525   -1.274376   -2.615999
      5          6           0        6.106505   -0.731981   -1.673263
      6          6           0        6.369978   -0.872619   -0.300971
      7          7           0        5.487696   -0.321702    0.665984
      8          6           0        6.013456    0.327549    1.818056
      9          6           0        5.445570    0.104499    3.082644
     10          6           0        5.958413    0.749080    4.206741
     11          6           0        7.052997    1.609119    4.095149
     12          6           0        7.625346    1.825655    2.839872
     13          6           0        7.107778    1.200222    1.707146
     14          6           0        4.082836   -0.416690    0.484101
     15          6           0        3.241959    0.663985    0.797072
     16          6           0        1.865879    0.562297    0.627609
     17          6           0        1.270293   -0.607227    0.122676
     18          6           0       -0.195301   -0.704097   -0.074329
     19          6           0       -0.876503   -1.946413    0.140998
     20          6           0       -2.227060   -2.056346   -0.035349
     21          6           0       -3.026546   -0.938424   -0.439094
     22          6           0       -4.421276   -1.043262   -0.620633
     23          6           0       -5.107082   -2.362060   -0.419235
     24          6           0       -5.230095   -3.236852   -1.483599
     25          6           0       -5.869038   -4.490991   -1.339904
     26          6           0       -6.386019   -4.868466   -0.123082
     27          6           0       -6.286236   -4.008009    1.002392
     28          6           0       -6.812720   -4.377212    2.269877
     29          6           0       -6.709562   -3.534836    3.352784
     30          6           0       -6.071501   -2.278814    3.214394
     31          6           0       -5.550435   -1.889752    2.000720
     32          6           0       -5.638883   -2.734814    0.860013
     33          6           0       -5.168072    0.091564   -1.009909
     34          6           0       -6.586531    0.030841   -1.198679
     35          6           0       -7.305335    1.135859   -1.569979
     36          6           0       -6.649651    2.380453   -1.779989
     37          6           0       -5.294217    2.484355   -1.615118
     38          6           0       -4.499931    1.356357   -1.227469
     39          6           0       -3.101735    1.457015   -1.054016
     40          6           0       -2.405934    2.761626   -1.306134
     41          6           0       -1.980763    3.072648   -2.585142
     42          6           0       -1.318754    4.290418   -2.868973
     43          6           0       -1.082562    5.199689   -1.865101
     44          6           0       -1.498787    4.930357   -0.534210
     45          6           0       -1.265893    5.855375    0.519467
     46          6           0       -1.674312    5.583215    1.804822
     47          6           0       -2.338138    4.366825    2.094043
     48          6           0       -2.579913    3.448510    1.096850
     49          6           0       -2.170976    3.695966   -0.242902
     50          6           0       -2.356691    0.323540   -0.656643
     51          6           0       -0.941200    0.386260   -0.468049
     52          6           0        2.122920   -1.680466   -0.189993
     53          6           0        3.499085   -1.594881   -0.008849
     54          6           0        7.528217   -1.561457    0.094562
     55          6           0        8.395024   -2.092293   -0.856158
     56          1           0        9.054582   -1.997340   -4.172995
     57          1           0        8.713408   -3.606658   -3.502107
     58          1           0        6.757000   -1.142114   -3.673965
     59          1           0        5.224851   -0.187397   -1.995335
     60          1           0        4.603591   -0.573942    3.176682
     61          1           0        5.506491    0.564776    5.177908
     62          1           0        7.454697    2.103960    4.974761
     63          1           0        8.473227    2.497662    2.735688
     64          1           0        7.547573    1.382670    0.731781
     65          1           0        3.672706    1.581495    1.184941
     66          1           0        1.238221    1.405044    0.902601
     67          1           0       -0.309254   -2.809128    0.478116
     68          1           0       -2.717671   -3.006791    0.143803
     69          1           0       -4.826138   -2.951134   -2.451079
     70          1           0       -5.947280   -5.151963   -2.198846
     71          1           0       -6.878530   -5.830806   -0.004592
     72          1           0       -7.301367   -5.343975    2.367707
     73          1           0       -7.116736   -3.830362    4.315991
     74          1           0       -5.993294   -1.618027    4.073555
     75          1           0       -5.062638   -0.925548    1.900806
     76          1           0       -7.089543   -0.916771   -1.040479
     77          1           0       -8.381240    1.064183   -1.704947
     78          1           0       -7.229383    3.251785   -2.072741
     79          1           0       -4.798472    3.434926   -1.777919
     80          1           0       -2.159869    2.362643   -3.388007
     81          1           0       -0.998464    4.499573   -3.886037
     82          1           0       -0.573904    6.137676   -2.075175
     83          1           0       -0.755792    6.787848    0.288670
     84          1           0       -1.489465    6.299899    2.600493
     85          1           0       -2.659183    4.158200    3.111071
     86          1           0       -3.090223    2.518226    1.324374
     87          1           0       -0.442815    1.327300   -0.670862
     88          1           0        1.704965   -2.597868   -0.594932
     89          1           0        4.131168   -2.441948   -0.255564
     90          1           0        7.745342   -1.677061    1.151591
     91          1           0        9.290783   -2.615517   -0.537033
 ---------------------------------------------------------------------

 The electronic state is 1-A.
 Alpha  occ. eigenvalues --  -24.67093 -14.36552 -10.26225 -10.23075 -10.22935
 Alpha  occ. eigenvalues --  -10.22920 -10.19941 -10.19928 -10.19886 -10.19875
 Alpha  occ. eigenvalues --  -10.19866 -10.19851 -10.19807 -10.19795 -10.19785
 Alpha  occ. eigenvalues --  -10.19783 -10.19756 -10.19739 -10.19654 -10.19536
 Alpha  occ. eigenvalues --  -10.19438 -10.19420 -10.19163 -10.19156 -10.19092
 Alpha  occ. eigenvalues --  -10.19085 -10.19076 -10.19056 -10.19047 -10.19035
 Alpha  occ. eigenvalues --  -10.19034 -10.19034 -10.19031 -10.19004 -10.18999
 Alpha  occ. eigenvalues --  -10.18984 -10.18969 -10.18958 -10.18933 -10.18889
 Alpha  occ. eigenvalues --  -10.18841 -10.18766 -10.18745 -10.18744 -10.18742
 Alpha  occ. eigenvalues --  -10.18717 -10.18696 -10.18695 -10.18693 -10.18650
 Alpha  occ. eigenvalues --  -10.18616 -10.18534 -10.18427 -10.18416 -10.18301
 Alpha  occ. eigenvalues --   -1.17673  -0.96451  -0.88740  -0.87426  -0.86693
 Alpha  occ. eigenvalues --   -0.86004  -0.85676  -0.84581  -0.83559  -0.82490
 Alpha  occ. eigenvalues --   -0.81968  -0.80331  -0.80032  -0.77488  -0.76958
 Alpha  occ. eigenvalues --   -0.76259  -0.75479  -0.74834  -0.74657  -0.74397
 Alpha  occ. eigenvalues --   -0.74241  -0.73862  -0.73857  -0.73340  -0.72249
 Alpha  occ. eigenvalues --   -0.72041  -0.71200  -0.69005  -0.67659  -0.64648
 Alpha  occ. eigenvalues --   -0.63132  -0.62837  -0.62130  -0.61742  -0.61329
 Alpha  occ. eigenvalues --   -0.61084  -0.61074  -0.60877  -0.60511  -0.59976
 Alpha  occ. eigenvalues --   -0.59259  -0.58539  -0.58167  -0.56767  -0.55716
 Alpha  occ. eigenvalues --   -0.53576  -0.53333  -0.53217  -0.52004  -0.51371
 Alpha  occ. eigenvalues --   -0.51125  -0.51057  -0.50698  -0.49592  -0.49258
 Alpha  occ. eigenvalues --   -0.49119  -0.49015  -0.48337  -0.48238  -0.47733
 Alpha  occ. eigenvalues --   -0.47219  -0.46464  -0.45732  -0.45041  -0.44531
 Alpha  occ. eigenvalues --   -0.44438  -0.44336  -0.44292  -0.44153  -0.44106
 Alpha  occ. eigenvalues --   -0.43622  -0.43111  -0.42870  -0.42624  -0.42339
 Alpha  occ. eigenvalues --   -0.42190  -0.41996  -0.41843  -0.41544  -0.41498
 Alpha  occ. eigenvalues --   -0.41278  -0.40899  -0.40339  -0.39933  -0.39803
 Alpha  occ. eigenvalues --   -0.39299  -0.38782  -0.38634  -0.38460  -0.38192
 Alpha  occ. eigenvalues --   -0.37669  -0.37240  -0.36966  -0.36900  -0.36650
 Alpha  occ. eigenvalues --   -0.36426  -0.35868  -0.35448  -0.35222  -0.34721
 Alpha  occ. eigenvalues --   -0.34320  -0.34289  -0.33895  -0.33709  -0.33585
 Alpha  occ. eigenvalues --   -0.33396  -0.33275  -0.33043  -0.33012  -0.32351
 Alpha  occ. eigenvalues --   -0.32216  -0.30935  -0.30743  -0.29459  -0.28698
 Alpha  occ. eigenvalues --   -0.28017  -0.27933  -0.26287  -0.25732  -0.25629
 Alpha  occ. eigenvalues --   -0.25090  -0.24777  -0.24578  -0.24294  -0.24052
 Alpha  occ. eigenvalues --   -0.22999  -0.21342  -0.21300  -0.19214  -0.17850
 Alpha virt. eigenvalues --   -0.06340  -0.03881  -0.03835  -0.02668  -0.01443
 Alpha virt. eigenvalues --   -0.01342  -0.01036  -0.00832   0.00172   0.00496
 Alpha virt. eigenvalues --    0.00693   0.01379   0.03112   0.03268   0.03324

 Mulliken charges:
               1
     1  F   -0.312041
     2  C   -0.009323
     3  C    0.101695
     4  C   -0.190032
     5  C   -0.163117
     6  C    0.282566
     7  N   -0.655169
     8  C    0.274225
     9  C   -0.161824
    10  C   -0.139923
    11  C   -0.128002
    12  C   -0.139876
    13  C   -0.161937
    14  C    0.286942
    15  C   -0.172961
    16  C   -0.187012
    17  C    0.092390
    18  C    0.106319
    19  C   -0.179491
    20  C   -0.201645
    21  C    0.111301
    22  C   -0.097926
    23  C   -0.053461
    24  C   -0.163149
    25  C   -0.138894
    26  C   -0.185696
    27  C    0.127931
    28  C   -0.194709
    29  C   -0.131839
    30  C   -0.133995
    31  C   -0.190136
    32  C    0.116566
    33  C    0.107749
    34  C   -0.194909
    35  C   -0.134885
    36  C   -0.134570
    37  C   -0.194653
    38  C    0.105789
    39  C   -0.098397
    40  C   -0.053599
    41  C   -0.162195
    42  C   -0.138380
    43  C   -0.185569
    44  C    0.127688
    45  C   -0.194953
    46  C   -0.132161
    47  C   -0.134713
    48  C   -0.191010
    49  C    0.116060
    50  C    0.120651
    51  C   -0.279383
    52  C   -0.189606
    53  C   -0.171740
    54  C   -0.165718
    55  C   -0.183588
    56  H    0.140337
    57  H    0.147246
    58  H    0.126301
    59  H    0.147332
    60  H    0.144849
    61  H    0.132062
    62  H    0.128110
    63  H    0.132249
    64  H    0.144568
    65  H    0.146584
    66  H    0.143269
    67  H    0.131385
    68  H    0.147381
    69  H    0.138178
    70  H    0.132002
    71  H    0.129706
    72  H    0.129425
    73  H    0.130204
    74  H    0.130758
    75  H    0.144444
    76  H    0.146641
    77  H    0.129431
    78  H    0.129408
    79  H    0.146434
    80  H    0.138483
    81  H    0.132201
    82  H    0.129829
    83  H    0.129648
    84  H    0.130320
    85  H    0.130857
    86  H    0.144693
    87  H    0.149090
    88  H    0.134015
    89  H    0.143520
    90  H    0.147323
    91  H    0.146029
 Sum of Mulliken charges =  -0.00000

 Dipole moment (field-independent basis, Debye):
    X=             -1.3290    Y=              0.3018    Z=              0.0144  Tot=              1.3629
 Quadrupole moment (field-independent basis, Debye-Ang):
   XX=           -324.1296   YY=           -289.2245   ZZ=           -290.1255
   XY=             14.2772   XZ=             -0.6490   YZ=              2.5308

 Normal termination of Gaussian 16 at Sat Nov  5 01:46:47 2022.
