 Gaussian 16, Revision B.01,
 Gaussian 16:  ES64L-G16RevB.01 20-Dec-2017

 -------------------------------------------------------------------
 #p b3lyp/6-31g(d) 6D 10F nosymm GFInput td=(50-50,nstate=2) SCF=XQC
 -------------------------------------------------------------------

 ------------------------------
 Gaussian input prepared by ASE
 ------------------------------
 Symbolic Z-matrix:
 Charge =  0 Multiplicity = 1

                          Input orientation:
 ---------------------------------------------------------------------
 Center     Atomic      Atomic             Coordinates (Angstroms)
 Number     Number       Type             X           Y           Z
 ---------------------------------------------------------------------
      1          9           0       10.688782    1.510242    2.481565
      2          6           0        9.393495    1.669447    2.968306
      3          6           0        8.385734    1.057336    2.029542
      4          6           0        7.151105    0.602138    2.504033
      5          6           0        6.197676    0.076790    1.636208
      6          6           0        6.457238    0.000711    0.258085
      7          7           0        5.489070   -0.534152   -0.632703
      8          6           0        5.896536   -1.395300   -1.689876
      9          6           0        5.347393   -1.255046   -2.974478
     10          6           0        5.743202   -2.106145   -4.004552
     11          6           0        6.702509   -3.095774   -3.779616
     12          6           0        7.256870   -3.231483   -2.505073
     13          6           0        6.853734   -2.397371   -1.463991
     14          6           0        4.116043   -0.212029   -0.469084
     15          6           0        3.121965   -1.188990   -0.642982
     16          6           0        1.778189   -0.866097   -0.492450
     17          6           0        1.367243    0.432882   -0.144248
     18          6           0       -0.065351    0.767677    0.033931
     19          6           0       -0.561701    2.058504   -0.341776
     20          6           0       -1.878921    2.386629   -0.185397
     21          6           0       -2.826223    1.458708    0.356379
     22          6           0       -4.187800    1.788967    0.518422
     23          6           0       -4.677349    3.157272    0.146664
     24          6           0       -4.654948    4.169476    1.089110
     25          6           0       -5.106649    5.474871    0.783052
     26          6           0       -5.582199    5.765259   -0.473904
     27          6           0       -5.626453    4.762704   -1.478871
     28          6           0       -6.113404    5.039891   -2.785033
     29          6           0       -6.151016    4.060021   -3.750107
     30          6           0       -5.700546    2.752229   -3.449069
     31          6           0       -5.222690    2.449474   -2.193730
     32          6           0       -5.169228    3.437217   -1.171638
     33          6           0       -5.085668    0.834901    1.048195
     34          6           0       -6.477028    1.126285    1.223013
     35          6           0       -7.343149    0.195062    1.731211
     36          6           0       -6.872456   -1.094943    2.101857
     37          6           0       -5.549355   -1.416399    1.956096
     38          6           0       -4.605476   -0.475775    1.428968
     39          6           0       -3.239735   -0.801407    1.274418
     40          6           0       -2.737437   -2.150774    1.694678
     41          6           0       -2.342052   -2.354583    3.004449
     42          6           0       -1.860039   -3.609761    3.444866
     43          6           0       -1.774552   -4.664624    2.567212
     44          6           0       -2.167971   -4.509654    1.211387
     45          6           0       -2.088820   -5.585848    0.286361
     46          6           0       -2.473390   -5.423424   -1.024646
     47          6           0       -2.957487   -4.170021   -1.470236
     48          6           0       -3.047285   -3.106324   -0.600388
     49          6           0       -2.657752   -3.237635    0.761383
     50          6           0       -2.343924    0.150555    0.736782
     51          6           0       -0.955788   -0.142330    0.562387
     52          6           0        2.371857    1.400790    0.030346
     53          6           0        3.717878    1.092186   -0.133843
     54          6           0        7.697077    0.456254   -0.219137
     55          6           0        8.646760    0.971609    0.658088
     56          1           0        9.337462    1.205983    3.961637
     57          1           0        9.223758    2.748778    3.087996
     58          1           0        6.932291    0.639664    3.569515
     59          1           0        5.251291   -0.287140    2.022893
     60          1           0        4.611802   -0.478291   -3.157807
     61          1           0        5.307739   -1.983360   -4.992814
     62          1           0        7.014015   -3.752456   -4.586884
     63          1           0        7.999396   -4.001493   -2.312492
     64          1           0        7.277537   -2.516024   -0.471844
     65          1           0        3.408383   -2.201658   -0.908079
     66          1           0        1.030273   -1.636030   -0.658640
     67          1           0        0.119755    2.778606   -0.785361
     68          1           0       -2.228665    3.367871   -0.487029
     69          1           0       -4.281757    3.953763    2.086622
     70          1           0       -5.074319    6.244514    1.549467
     71          1           0       -5.931139    6.766204   -0.716918
     72          1           0       -6.457553    6.047250   -3.008117
     73          1           0       -6.525895    4.286372   -4.744654
     74          1           0       -5.732887    1.982745   -4.215725
     75          1           0       -4.878978    1.445017   -1.968912
     76          1           0       -6.839122    2.109243    0.942482
     77          1           0       -8.394898    0.440156    1.852367
     78          1           0       -7.568212   -1.827342    2.502516
     79          1           0       -5.194806   -2.400607    2.241548
     80          1           0       -2.403241   -1.529244    3.708615
     81          1           0       -1.557687   -3.731783    4.481420
     82          1           0       -1.404656   -5.632335    2.897963
     83          1           0       -1.716369   -6.545711    0.636957
     84          1           0       -2.407383   -6.255235   -1.720800
     85          1           0       -3.260663   -4.048406   -2.506689
     86          1           0       -3.420211   -2.148158   -0.947458
     87          1           0       -0.596612   -1.112460    0.886298
     88          1           0        2.098345    2.413663    0.312426
     89          1           0        4.470357    1.862094    0.003764
     90          1           0        7.912097    0.402713   -1.281548
     91          1           0        9.604034    1.312897    0.277121
 ---------------------------------------------------------------------

 SCF Done:  E(RB3LYP) =  -2195.96482960     A.U. after   16 cycles

 Excitation energies and oscillator strengths:

 Excited state symmetry could not be determined.
 Excited State   1:      Triplet-?Sym    1.6796 eV  738.18 nm  f=0.0000  <S**2>=2.000
     184 ->186         0.51782
     185 ->186         0.46331
     184 <-186         0.10888
 This state for optimization and/or second-order correction.
 Total Energy, E(TD-HF/TD-DFT) =  -2195.90310557
 Copying the excited state density for this state as the 1-particle RhoCI density.

 Excited state symmetry could not be determined.
 Excited State   2:      Triplet-?Sym    2.6289 eV  471.62 nm  f=0.0000  <S**2>=2.000
     181 ->186        -0.16139
     184 ->186        -0.39143
     185 ->186         0.43949
     185 ->189         0.26390

 Excited state symmetry could not be determined.
 Excited State   3:      Singlet-?Sym    2.7935 eV  443.83 nm  f=0.2057  <S**2>=0.000
     185 ->186         0.70190

 Excited state symmetry could not be determined.
 Excited State   4:      Singlet-?Sym    3.1407 eV  394.76 nm  f=0.1582  <S**2>=0.000
     184 ->186         0.69646

 Alpha  occ. eigenvalues --  -24.67093 -14.36552 -10.26225 -10.23075 -10.22935
 Alpha  occ. eigenvalues --  -10.22920 -10.19941 -10.19928 -10.19886 -10.19875
 Alpha  occ. eigenvalues --  -10.19866 -10.19851 -10.19807 -10.19795 -10.19785
 Alpha  occ. eigenvalues --  -10.19783 -10.19756 -10.19739 -10.19654 -10.19536
 Alpha  occ. eigenvalues --  -10.19438 -10.19420 -10.19163 -10.19156 -10.19092
 Alpha  occ. eigenvalues --  -10.19085 -10.19076 -10.19056 -10.19047 -10.19035
 Alpha  occ. eigenvalues --  -10.19034 -10.19034 -10.19031 -10.19004 -10.18999
 Alpha  occ. eigenvalues --  -10.18984 -10.18969 -10.18958 -10.18933 -10.18889
 Alpha  occ. eigenvalues --  -10.18841 -10.18766 -10.18745 -10.18744 -10.18742
 Alpha  occ. eigenvalues --  -10.18717 -10.18696 -10.18695 -10.18693 -10.18650
 Alpha  occ. eigenvalues --  -10.18616 -10.18534 -10.18427 -10.18416 -10.18301
 Alpha  occ. eigenvalues --   -1.17673  -0.96451  -0.88740  -0.87426  -0.86693
 Alpha  occ. eigenvalues --   -0.86004  -0.85676  -0.84581  -0.83559  -0.82490
 Alpha  occ. eigenvalues --   -0.81968  -0.80331  -0.80032  -0.77488  -0.76958
 Alpha  occ. eigenvalues --   -0.76259  -0.75479  -0.74834  -0.74657  -0.74397
 Alpha  occ. eigenvalues --   -0.74241  -0.73862  -0.73857  -0.73340  -0.72249
 Alpha  occ. eigenvalues --   -0.72041  -0.71200  -0.69005  -0.67659  -0.64648
 Alpha  occ. eigenvalues --   -0.63132  -0.62837  -0.62130  -0.61742  -0.61329
 Alpha  occ. eigenvalues --   -0.61084  -0.61074  -0.60877  -0.60511  -0.59976
 Alpha  occ. eigenvalues --   -0.59259  -0.58539  -0.58167  -0.56767  -0.55716
 Alpha  occ. eigenvalues --   -0.53576  -0.53333  -0.53217  -0.52004  -0.51371
 Alpha  occ. eigenvalues --   -0.51125  -0.51057  -0.50698  -0.49592  -0.49258
 Alpha  occ. eigenvalues --   -0.49119  -0.49015  -0.48337  -0.48238  -0.47733
 Alpha  occ. eigenvalues --   -0.47219  -0.46464  -0.45732  -0.45041  -0.44531
 Alpha  occ. eigenvalues --   -0.44438  -0.44336  -0.44292  -0.44153  -0.44106
 Alpha  occ. eigenvalues --   -0.43622  -0.43111  -0.42870  -0.42624  -0.42339
 Alpha  occ. eigenvalues --   -0.42190  -0.41996  -0.41843  -0.41544  -0.41498
 Alpha  occ. eigenvalues --   -0.41278  -0.40899  -0.40339  -0.39933  -0.39803
 Alpha  occ. eigenvalues --   -0.39299  -0.38782  -0.38634  -0.38460  -0.38192
 Alpha  occ. eigenvalues --   -0.37669  -0.37240  -0.36966  -0.36900  -0.36650
 Alpha  occ. eigenvalues --   -0.36426  -0.35868  -0.35448  -0.35222  -0.34721
 Alpha  occ. eigenvalues --   -0.34320  -0.34289  -0.33895  -0.33709  -0.33585
 Alpha  occ. eigenvalues --   -0.33396  -0.33275  -0.33043  -0.33012  -0.32351
 Alpha  occ. eigenvalues --   -0.32216  -0.30935  -0.30743  -0.29459  -0.28698
 Alpha  occ. eigenvalues --   -0.28017  -0.27933  -0.26287  -0.25732  -0.25629
 Alpha  occ. eigenvalues --   -0.25090  -0.24777  -0.24578  -0.24294  -0.24052
 Alpha  occ. eigenvalues --   -0.22999  -0.21342  -0.21300  -0.19214  -0.17850
 Alpha virt. eigenvalues --   -0.06340  -0.03881  -0.03835  -0.02668  -0.01443
 Alpha virt. eigenvalues --   -0.01342  -0.01036  -0.00832   0.00172   0.00496
 Alpha virt. eigenvalues --    0.00693   0.01379   0.03112   0.03268   0.03324

 Mulliken charges:
               1
     1  F   -0.312041
     2  C   -0.009324
     3  C    0.101699
     4  C   -0.190031
     5  C   -0.163119
     6  C    0.282588
     7  N   -0.655183
     8  C    0.274232
     9  C   -0.161832
    10  C   -0.139915
    11  C   -0.128004
    12  C   -0.139876
    13  C   -0.161941
    14  C    0.286944
    15  C   -0.172953
    16  C   -0.187020
    17  C    0.092395
    18  C    0.106318
    19  C   -0.179494
    20  C   -0.201637
    21  C    0.111286
    22  C   -0.097907
    23  C   -0.053449
    24  C   -0.163152
    25  C   -0.138894
    26  C   -0.185707
    27  C    0.127937
    28  C   -0.194711
    29  C   -0.131832
    30  C   -0.133994
    31  C   -0.190149
    32  C    0.116573
    33  C    0.107731
    34  C   -0.194904
    35  C   -0.134885
    36  C   -0.134571
    37  C   -0.194657
    38  C    0.105799
    39  C   -0.098392
    40  C   -0.053600
    41  C   -0.162200
    42  C   -0.138375
    43  C   -0.185568
    44  C    0.127692
    45  C   -0.194958
    46  C   -0.132162
    47  C   -0.134709
    48  C   -0.191006
    49  C    0.116056
    50  C    0.120646
    51  C   -0.279379
    52  C   -0.189605
    53  C   -0.171748
    54  C   -0.165719
    55  C   -0.183595
    56  H    0.140337
    57  H    0.147246
    58  H    0.126301
    59  H    0.147329
    60  H    0.144849
    61  H    0.132061
    62  H    0.128110
    63  H    0.132249
    64  H    0.144568
    65  H    0.146584
    66  H    0.143274
    67  H    0.131384
    68  H    0.147379
    69  H    0.138178
    70  H    0.132001
    71  H    0.129706
    72  H    0.129425
    73  H    0.130203
    74  H    0.130758
    75  H    0.144444
    76  H    0.146641
    77  H    0.129431
    78  H    0.129408
    79  H    0.146433
    80  H    0.138482
    81  H    0.132201
    82  H    0.129829
    83  H    0.129648
    84  H    0.130320
    85  H    0.130856
    86  H    0.144692
    87  H    0.149089
    88  H    0.134015
    89  H    0.143518
    90  H    0.147323
    91  H    0.146029
 Sum of Mulliken charges =  -0.00000

 Dipole moment (field-independent basis, Debye):
    X=             -1.3589    Y=             -0.1033    Z=              0.0203  Tot=              1.3630
 Quadrupole moment (field-independent basis, Debye-Ang):
   XX=           -327.5284   YY=           -285.2841   ZZ=           -290.7394
   XY=             -8.3847   XZ=              2.6143   YZ=              1.9097

 Normal termination of Gaussian 16 at Sat Nov  5 11:20:22 2022.
