 Gaussian 16, Revision B.01,
 Gaussian 16:  ES64L-G16RevB.01 20-Dec-2017

 -------------------------------------------------------------------
 #p b3lyp/6-31g(d) 6D 10F nosymm GFInput td=(50-50,nstate=2) SCF=XQC
 -------------------------------------------------------------------

 ------------------------------
 Gaussian input prepared by ASE
 ------------------------------
 Symbolic Z-matrix:
 Charge =  0 Multiplicity = 1

                          Input orientation:
 ---------------------------------------------------------------------
 Center     Atomic      Atomic             Coordinates (Angstroms)
 Number     Number       Type             X           Y           Z
 ---------------------------------------------------------------------
      1          6           0       -9.100149   -0.410299   -0.248607
      2          6           0       -8.037365   -1.239808    0.495055
      3          6           0       -8.172843   -2.713571    0.041445
      4          6           0       -8.324396   -1.141638    2.012847
      5          6           0       -6.607645   -0.750352    0.211547
      6          6           0       -6.326882    0.316315   -0.598175
      7          6           0       -4.982194    0.789690   -0.852668
      8          6           0       -3.855522    0.032809   -0.285126
      9          6           0       -2.551871    0.369887   -0.604639
     10          6           0       -1.386961   -0.300871   -0.021299
     11          6           0       -1.835926   -1.334759    0.846802
     12          6           0       -2.997982   -1.645121    1.121525
     13          6           0       -4.204910   -1.083462    0.620322
     14          6           0       -5.510319   -1.438942    0.843607
     15          6           0       -0.110989    0.142908   -0.306467
     16          6           0        0.108721    1.301098   -1.161922
     17          6           0       -0.910141    1.923092   -1.782154
     18          6           0       -2.321397    1.393317   -1.712741
     19          6           0       -3.366333    2.515033   -1.674391
     20          6           0       -4.750565    1.955176   -1.527626
     21          6           0        1.605192    1.641541   -1.197218
     22          6           0        1.876413    3.034386   -0.586272
     23          6           0        2.163670    1.578522   -2.635226
     24          6           0        2.187184    0.530089   -0.322094
     25          6           0        3.514153    0.305072    0.008839
     26          6           0        3.861458   -0.773193    0.847529
     27          6           0        5.271378   -1.055452    1.217057
     28          6           0        6.346554   -0.548442    0.469869
     29          6           0        7.656448   -0.828266    0.867562
     30          7           0        8.752475   -0.320831    0.141623
     31          6           0        9.994592   -0.927687    0.018488
     32          6           0       10.788758   -0.130965   -0.767334
     33          6           0       10.017313    1.013308   -1.134801
     34          6           0        8.774276    0.869674   -0.571531
     35          6           0        7.851756   -1.633096    1.996068
     36          6           0        6.721991   -2.120172    2.648747
     37          7           0        5.466394   -1.847840    2.291684
     38          6           0        2.836629   -1.599666    1.353842
     39          6           0        1.504324   -1.382682    1.028215
     40          6           0        1.173085   -0.314180    0.182012
     41          1           0       -8.964377   -0.455714   -1.335077
     42          1           0       -9.081875    0.642249    0.055988
     43          1           0      -10.098296   -0.802007   -0.022871
     44          1           0       -9.184482   -3.082986    0.249075
     45          1           0       -7.989592   -2.809800   -1.034758
     46          1           0       -7.467042   -3.370568    0.560312
     47          1           0       -9.337975   -1.499430    2.231072
     48          1           0       -7.626545   -1.743533    2.604216
     49          1           0       -8.247608   -0.104626    2.358905
     50          1           0       -7.128292    0.877690   -1.066702
     51          1           0       -5.709042   -2.268995    1.512702
     52          1           0       -0.742024    2.794185   -2.413411
     53          1           0       -2.512547    0.841090   -2.659665
     54          1           0       -3.277726    3.114731   -2.588612
     55          1           0       -3.148250    3.207841   -0.836838
     56          1           0       -5.595467    2.560839   -1.849031
     57          1           0        1.485373    3.100296    0.433981
     58          1           0        1.399934    3.818162   -1.186443
     59          1           0        2.952602    3.241732   -0.553562
     60          1           0        1.977527    0.599674   -3.088703
     61          1           0        1.694672    2.342275   -3.266248
     62          1           0        3.245548    1.756743   -2.640167
     63          1           0        4.282720    0.978616   -0.360272
     64          1           0        6.171756    0.015254   -0.438048
     65          1           0       10.178245   -1.896753    0.456714
     66          1           0       11.807956   -0.347448   -1.057451
     67          1           0       10.344488    1.851606   -1.734832
     68          1           0        7.920628    1.529967   -0.563722
     69          1           0        8.845966   -1.855933    2.366243
     70          1           0        6.839973   -2.757989    3.523584
     71          1           0        3.117559   -2.415885    2.009382
     72          1           0        0.727823   -2.031908    1.422733
 ---------------------------------------------------------------------

 SCF Done:  E(RB3LYP) =  -1576.68648271     A.U. after   18 cycles

 Excitation energies and oscillator strengths:

 Excited state symmetry could not be determined.
 Excited State   1:      Triplet-?Sym    -0.4500 eV    -2755.21 nm  f=-0.0000  <S**2>=2.000
     137 ->138         0.76575
     137 ->140         0.11311
     137 <-138         0.33610
 This state for optimization and/or second-order correction.
 Total Energy, E(TD-HF/TD-DFT) =  -1576.70301990
 Copying the excited state density for this state as the 1-particle RhoCI density.

 Excited state symmetry could not be determined.
 Excited State   2:      Triplet-?Sym    1.5365 eV  806.95 nm  f=0.0000  <S**2>=2.000
     129 ->139         0.11734
     130 ->139        -0.73512
     130 <-139        -0.30159

 Excited state symmetry could not be determined.
 Excited State   3:      Singlet-?Sym    1.8296 eV  677.64 nm  f=0.0971  <S**2>=0.000
     137 ->138         0.30802
     137 ->139         0.63578

 Excited state symmetry could not be determined.
 Excited State   4:      Singlet-?Sym    1.8680 eV  663.74 nm  f=0.5208  <S**2>=0.000
     137 ->138         0.65022
     137 ->139        -0.30130
     137 <-138        -0.14879

 Alpha  occ. eigenvalues --  -14.39767 -14.32764 -10.25629 -10.23720 -10.22819
 Alpha  occ. eigenvalues --  -10.22026 -10.21840 -10.21108 -10.21089 -10.21068
 Alpha  occ. eigenvalues --  -10.20671 -10.20515 -10.20406 -10.20280 -10.20249
 Alpha  occ. eigenvalues --  -10.20048 -10.20001 -10.19895 -10.19842 -10.19602
 Alpha  occ. eigenvalues --  -10.19542 -10.19495 -10.19375 -10.19329 -10.19316
 Alpha  occ. eigenvalues --  -10.19188 -10.19169 -10.19060 -10.18863 -10.18649
 Alpha  occ. eigenvalues --  -10.18629 -10.18558 -10.18444 -10.18222 -10.18186
 Alpha  occ. eigenvalues --  -10.17813 -10.17766 -10.17498 -10.17494 -10.17484
 Alpha  occ. eigenvalues --   -0.99699  -0.94444  -0.89474  -0.87800  -0.84756
 Alpha  occ. eigenvalues --   -0.83582  -0.83111  -0.82639  -0.80899  -0.78965
 Alpha  occ. eigenvalues --   -0.77405  -0.76643  -0.76023  -0.74286  -0.73735
 Alpha  occ. eigenvalues --   -0.73224  -0.72750  -0.71859  -0.70214  -0.68943
 Alpha  occ. eigenvalues --   -0.68442  -0.68409  -0.66049  -0.64787  -0.63944
 Alpha  occ. eigenvalues --   -0.62719  -0.61677  -0.60823  -0.59480  -0.58120
 Alpha  occ. eigenvalues --   -0.57867  -0.57025  -0.56255  -0.55354  -0.54210
 Alpha  occ. eigenvalues --   -0.52242  -0.51662  -0.50520  -0.49707  -0.49369
 Alpha  occ. eigenvalues --   -0.48887  -0.48500  -0.47374  -0.47130  -0.46115
 Alpha  occ. eigenvalues --   -0.45388  -0.44853  -0.44668  -0.44046  -0.43856
 Alpha  occ. eigenvalues --   -0.43624  -0.43322  -0.43053  -0.43021  -0.42801
 Alpha  occ. eigenvalues --   -0.42424  -0.42225  -0.41520  -0.40998  -0.40262
 Alpha  occ. eigenvalues --   -0.39826  -0.39821  -0.39547  -0.39365  -0.39288
 Alpha  occ. eigenvalues --   -0.39058  -0.38066  -0.37850  -0.37704  -0.37422
 Alpha  occ. eigenvalues --   -0.37197  -0.36840  -0.36586  -0.36437  -0.35812
 Alpha  occ. eigenvalues --   -0.35015  -0.34639  -0.34090  -0.33030  -0.32978
 Alpha  occ. eigenvalues --   -0.32325  -0.32140  -0.31740  -0.31512  -0.31043
 Alpha  occ. eigenvalues --   -0.30231  -0.28478  -0.27539  -0.25901  -0.25455
 Alpha  occ. eigenvalues --   -0.24742  -0.24323  -0.23720  -0.23343  -0.22556
 Alpha  occ. eigenvalues --   -0.21845  -0.16058
 Alpha virt. eigenvalues --   -0.09263  -0.06300  -0.04032  -0.02936  -0.01702
 Alpha virt. eigenvalues --    0.00216   0.00543   0.02383   0.04238   0.04932
 Alpha virt. eigenvalues --    0.07398   0.07941   0.08214   0.08291   0.09700

 Mulliken charges:
               1
     1  C   -0.455844
     2  C    0.015572
     3  C   -0.442221
     4  C   -0.442277
     5  C    0.187438
     6  C   -0.283386
     7  C    0.191606
     8  C   -0.016283
     9  C    0.008800
    10  C    0.053821
    11  C   -0.065337
    12  C   -0.110919
    13  C    0.176204
    14  C   -0.280002
    15  C   -0.023995
    16  C    0.166614
    17  C   -0.242187
    18  C   -0.195916
    19  C   -0.294914
    20  C   -0.233030
    21  C   -0.066721
    22  C   -0.433778
    23  C   -0.435666
    24  C    0.098592
    25  C   -0.264627
    26  C    0.107964
    27  C    0.245951
    28  C   -0.218670
    29  C    0.373054
    30  N   -0.511772
    31  C    0.028724
    32  C   -0.190292
    33  C   -0.190085
    34  C    0.029646
    35  C   -0.190548
    36  C    0.041771
    37  N   -0.487749
    38  C   -0.177975
    39  C   -0.188651
    40  C    0.099898
    41  H    0.146311
    42  H    0.145519
    43  H    0.141724
    44  H    0.140413
    45  H    0.148964
    46  H    0.146055
    47  H    0.140535
    48  H    0.146150
    49  H    0.148830
    50  H    0.125541
    51  H    0.138302
    52  H    0.123494
    53  H    0.163373
    54  H    0.145071
    55  H    0.151286
    56  H    0.129997
    57  H    0.158814
    58  H    0.143965
    59  H    0.142053
    60  H    0.156893
    61  H    0.143834
    62  H    0.140917
    63  H    0.122404
    64  H    0.153024
    65  H    0.155007
    66  H    0.132495
    67  H    0.132092
    68  H    0.151902
    69  H    0.148713
    70  H    0.143703
    71  H    0.160759
    72  H    0.149048
 Sum of Mulliken charges =  -0.00000

 Dipole moment (field-independent basis, Debye):
    X=             -0.2661    Y=              1.8783    Z=             -1.7813  Tot=              2.6023
 Quadrupole moment (field-independent basis, Debye-Ang):
   XX=           -198.7791   YY=           -224.5682   ZZ=           -231.8645
   XY=             -3.4650   XZ=              2.3343   YZ=             -9.8716

 Normal termination of Gaussian 16 at Sat Nov  5 10:46:32 2022.
