 Gaussian 16, Revision B.01,
 Gaussian 16:  ES64L-G16RevB.01 20-Dec-2017

 -----------------------------
 #p b3lyp/6-31g(d) opt SCF=XQC
 -----------------------------

 ------------------------------
 Gaussian input prepared by ASE
 ------------------------------
 Symbolic Z-matrix:
 Charge =  0 Multiplicity = 1

 SCF Done:  E(RB3LYP) =  -1576.67662631     A.U. after   18 cycles
 SCF Done:  E(RB3LYP) =  -1576.68610470     A.U. after   14 cycles
 SCF Done:  E(RB3LYP) =  -1576.68642085     A.U. after   13 cycles
 SCF Done:  E(RB3LYP) =  -1576.68646721     A.U. after   12 cycles
 SCF Done:  E(RB3LYP) =  -1576.68647734     A.U. after   11 cycles
 SCF Done:  E(RB3LYP) =  -1576.68648182     A.U. after   11 cycles
 SCF Done:  E(RB3LYP) =  -1576.68648336     A.U. after   10 cycles
 SCF Done:  E(RB3LYP) =  -1576.68648380     A.U. after    8 cycles
 SCF Done:  E(RB3LYP) =  -1576.68648386     A.U. after    8 cycles
 Optimization completed.
    -- Stationary point found.

                         Standard orientation:
 ---------------------------------------------------------------------
 Center     Atomic      Atomic             Coordinates (Angstroms)
 Number     Number       Type             X           Y           Z
 ---------------------------------------------------------------------
      1          6           0       -9.578701   -0.160212   -0.184837
      2          6           0       -8.504357   -1.262973   -0.166602
      3          6           0       -8.658309   -2.106386   -1.455417
      4          6           0       -8.756934   -2.161698    1.067989
      5          6           0       -7.078542   -0.691341   -0.100800
      6          6           0       -6.809813    0.649192   -0.045896
      7          6           0       -5.468452    1.189060    0.033666
      8          6           0       -4.333748    0.255442   -0.038219
      9          6           0       -3.035639    0.731791   -0.094977
     10          6           0       -1.861864   -0.145386   -0.100402
     11          6           0       -2.297263   -1.499754   -0.085993
     12          6           0       -3.454659   -1.925513   -0.049480
     13          6           0       -4.669233   -1.185141   -0.049918
     14          6           0       -5.971349   -1.614065   -0.078813
     15          6           0       -0.590053    0.390693   -0.061915
     16          6           0       -0.382858    1.830211    0.017704
     17          6           0       -1.411724    2.694973   -0.039450
     18          6           0       -2.824081    2.229555   -0.295883
     19          6           0       -3.861490    3.056557    0.473179
     20          6           0       -5.245278    2.518791    0.256344
     21          6           0        1.114371    2.129165    0.177400
     22          6           0        1.407075    2.811058    1.532456
     23          6           0        1.640301    3.006522   -0.979051
     24          6           0        1.709371    0.720893    0.126150
     25          6           0        3.042080    0.349331    0.208764
     26          6           0        3.401832   -1.012446    0.155644
     27          6           0        4.818004   -1.451869    0.229545
     28          6           0        5.879138   -0.573518   -0.042202
     29          6           0        7.195951   -1.030083    0.056967
     30          7           0        8.278406   -0.164798   -0.198621
     31          6           0        9.513991   -0.540001   -0.707387
     32          6           0       10.294981    0.582898   -0.817556
     33          6           0        9.522076    1.689638   -0.351441
     34          6           0        8.291099    1.206527    0.015091
     35          6           0        7.411763   -2.368737    0.404609
     36          6           0        6.294063   -3.171829    0.617656
     37          7           0        5.032394   -2.746486    0.543771
     38          6           0        2.383844   -1.981609    0.036875
     39          6           0        1.045873   -1.619667   -0.046695
     40          6           0        0.701959   -0.260426   -0.005927
     41          1           0       -9.467431    0.501527   -1.051229
     42          1           0       -9.547643    0.453766    0.722377
     43          1           0      -10.573787   -0.615503   -0.241417
     44          1           0       -9.667160   -2.533095   -1.511357
     45          1           0       -8.499635   -1.489791   -2.347431
     46          1           0       -7.944879   -2.936265   -1.492022
     47          1           0       -9.767422   -2.586277    1.027667
     48          1           0       -8.049523   -2.995718    1.122504
     49          1           0       -8.666543   -1.585615    1.995891
     50          1           0       -7.618250    1.372441   -0.029839
     51          1           0       -6.159844   -2.681990   -0.091999
     52          1           0       -1.252750    3.769913    0.029701
     53          1           0       -3.039428    2.409351   -1.372664
     54          1           0       -3.789858    4.103270    0.152946
     55          1           0       -3.620853    3.055034    1.555367
     56          1           0       -6.093665    3.181488    0.414652
     57          1           0        1.039247    2.204919    2.366406
     58          1           0        0.921818    3.792645    1.582988
     59          1           0        2.484890    2.960073    1.667932
     60          1           0        1.438523    2.542791   -1.949964
     61          1           0        1.161722    3.992543   -0.965185
     62          1           0        2.722799    3.157311   -0.891252
     63          1           0        3.806060    1.110656    0.340364
     64          1           0        5.687370    0.438896   -0.375165
     65          1           0        9.701834   -1.563212   -0.994813
     66          1           0       11.306210    0.612296   -1.200110
     67          1           0        9.840574    2.720969   -0.282597
     68          1           0        7.441616    1.700430    0.461410
     69          1           0        8.412688   -2.767025    0.525671
     70          1           0        6.427870   -4.220586    0.878952
     71          1           0        2.674652   -3.025490    0.012168
     72          1           0        0.274667   -2.378646   -0.143051
 ---------------------------------------------------------------------

 The electronic state is 1-A.
 Alpha  occ. eigenvalues --  -14.39767 -14.32764 -10.25629 -10.23720 -10.22819
 Alpha  occ. eigenvalues --  -10.22026 -10.21840 -10.21108 -10.21089 -10.21069
 Alpha  occ. eigenvalues --  -10.20671 -10.20515 -10.20406 -10.20280 -10.20249
 Alpha  occ. eigenvalues --  -10.20048 -10.20000 -10.19895 -10.19842 -10.19602
 Alpha  occ. eigenvalues --  -10.19542 -10.19495 -10.19375 -10.19329 -10.19316
 Alpha  occ. eigenvalues --  -10.19188 -10.19169 -10.19060 -10.18863 -10.18649
 Alpha  occ. eigenvalues --  -10.18629 -10.18558 -10.18444 -10.18222 -10.18186
 Alpha  occ. eigenvalues --  -10.17813 -10.17766 -10.17498 -10.17494 -10.17484
 Alpha  occ. eigenvalues --   -0.99699  -0.94444  -0.89474  -0.87800  -0.84756
 Alpha  occ. eigenvalues --   -0.83582  -0.83111  -0.82639  -0.80899  -0.78965
 Alpha  occ. eigenvalues --   -0.77405  -0.76642  -0.76023  -0.74286  -0.73735
 Alpha  occ. eigenvalues --   -0.73224  -0.72750  -0.71859  -0.70214  -0.68943
 Alpha  occ. eigenvalues --   -0.68442  -0.68409  -0.66049  -0.64787  -0.63944
 Alpha  occ. eigenvalues --   -0.62719  -0.61677  -0.60823  -0.59480  -0.58120
 Alpha  occ. eigenvalues --   -0.57867  -0.57025  -0.56255  -0.55354  -0.54210
 Alpha  occ. eigenvalues --   -0.52242  -0.51662  -0.50520  -0.49707  -0.49369
 Alpha  occ. eigenvalues --   -0.48887  -0.48500  -0.47374  -0.47130  -0.46115
 Alpha  occ. eigenvalues --   -0.45388  -0.44853  -0.44668  -0.44046  -0.43856
 Alpha  occ. eigenvalues --   -0.43624  -0.43322  -0.43053  -0.43021  -0.42801
 Alpha  occ. eigenvalues --   -0.42424  -0.42225  -0.41520  -0.40998  -0.40262
 Alpha  occ. eigenvalues --   -0.39826  -0.39822  -0.39547  -0.39365  -0.39288
 Alpha  occ. eigenvalues --   -0.39058  -0.38066  -0.37850  -0.37704  -0.37422
 Alpha  occ. eigenvalues --   -0.37197  -0.36840  -0.36586  -0.36437  -0.35812
 Alpha  occ. eigenvalues --   -0.35015  -0.34639  -0.34090  -0.33030  -0.32978
 Alpha  occ. eigenvalues --   -0.32325  -0.32140  -0.31740  -0.31512  -0.31043
 Alpha  occ. eigenvalues --   -0.30231  -0.28478  -0.27539  -0.25901  -0.25455
 Alpha  occ. eigenvalues --   -0.24742  -0.24323  -0.23720  -0.23343  -0.22556
 Alpha  occ. eigenvalues --   -0.21845  -0.16058
 Alpha virt. eigenvalues --   -0.09263  -0.06300  -0.04032  -0.02936  -0.01702
 Alpha virt. eigenvalues --    0.00216   0.00543   0.02383   0.04238   0.04932
 Alpha virt. eigenvalues --    0.07398   0.07941   0.08214   0.08291   0.09700

 Mulliken charges:
               1
     1  C   -0.455823
     2  C    0.015574
     3  C   -0.442228
     4  C   -0.442301
     5  C    0.187458
     6  C   -0.283400
     7  C    0.191631
     8  C   -0.016310
     9  C    0.008776
    10  C    0.053854
    11  C   -0.065338
    12  C   -0.110915
    13  C    0.176187
    14  C   -0.279990
    15  C   -0.023997
    16  C    0.166607
    17  C   -0.242177
    18  C   -0.195902
    19  C   -0.294916
    20  C   -0.233038
    21  C   -0.066722
    22  C   -0.433780
    23  C   -0.435663
    24  C    0.098586
    25  C   -0.264638
    26  C    0.107983
    27  C    0.245930
    28  C   -0.218651
    29  C    0.373035
    30  N   -0.511764
    31  C    0.028710
    32  C   -0.190284
    33  C   -0.190082
    34  C    0.029641
    35  C   -0.190536
    36  C    0.041760
    37  N   -0.487733
    38  C   -0.177973
    39  C   -0.188650
    40  C    0.099886
    41  H    0.146306
    42  H    0.145514
    43  H    0.141719
    44  H    0.140414
    45  H    0.148965
    46  H    0.146055
    47  H    0.140539
    48  H    0.146154
    49  H    0.148836
    50  H    0.125540
    51  H    0.138298
    52  H    0.123495
    53  H    0.163372
    54  H    0.145072
    55  H    0.151288
    56  H    0.129998
    57  H    0.158815
    58  H    0.143966
    59  H    0.142054
    60  H    0.156892
    61  H    0.143835
    62  H    0.140917
    63  H    0.122407
    64  H    0.153022
    65  H    0.155007
    66  H    0.132495
    67  H    0.132092
    68  H    0.151904
    69  H    0.148713
    70  H    0.143703
    71  H    0.160758
    72  H    0.149049
 Sum of Mulliken charges =  -0.00000

 Dipole moment (field-independent basis, Debye):
    X=             -0.2951    Y=              2.5804    Z=             -0.1605  Tot=              2.6022
 Quadrupole moment (field-independent basis, Debye-Ang):
   XX=           -198.4546   YY=           -217.4849   ZZ=           -238.5750
   XY=             -5.1746   XZ=             -1.2174   YZ=              2.0726

 1\1\GINC-NODE24\FOpt\RB3LYP\6-31G(d)\C38H32N2\WYKGROUP\05-Nov-2022\0\\
 #p b3lyp/6-31g(d) opt SCF=XQC\\Gaussian input prepared by ASE\\0,1\C,-
 9.1001491974,-0.4102988712,-0.248606846\C,-8.0373651874,-1.2398083876,
 0.4950547033\C,-8.1728429585,-2.7135706454,0.0414454819\C,-8.324396361
 6,-1.1416376425,2.0128465047\C,-6.6076453104,-0.7503523408,0.211546989
 5\C,-6.3268821948,0.3163148916,-0.5981748027\C,-4.9821943443,0.7896901
 754,-0.8526681027\C,-3.8555221259,0.0328085257,-0.2851258339\C,-2.5518
 70587,0.3698870214,-0.6046390357\C,-1.3869610787,-0.3008707037,-0.0212

 Normal termination of Gaussian 16 at Sat Nov  5 01:14:14 2022.
