 Gaussian 16, Revision B.01,
 Gaussian 16:  ES64L-G16RevB.01 20-Dec-2017

 -----------------------------
 #p b3lyp/6-31g(d) opt SCF=XQC
 -----------------------------

 ------------------------------
 Gaussian input prepared by ASE
 ------------------------------
 Symbolic Z-matrix:
 Charge =  0 Multiplicity = 1

 SCF Done:  E(RB3LYP) =  -1245.53198042     A.U. after   15 cycles
 SCF Done:  E(RB3LYP) =  -1245.53855071     A.U. after   12 cycles
 SCF Done:  E(RB3LYP) =  -1245.53946065     A.U. after   11 cycles
 SCF Done:  E(RB3LYP) =  -1245.53982960     A.U. after   11 cycles
 SCF Done:  E(RB3LYP) =  -1245.53988660     A.U. after   11 cycles
 SCF Done:  E(RB3LYP) =  -1245.53994728     A.U. after   10 cycles
 SCF Done:  E(RB3LYP) =  -1245.53996428     A.U. after    9 cycles
 SCF Done:  E(RB3LYP) =  -1245.53997177     A.U. after    9 cycles
 SCF Done:  E(RB3LYP) =  -1245.53997433     A.U. after    8 cycles
 SCF Done:  E(RB3LYP) =  -1245.53997701     A.U. after    9 cycles
 SCF Done:  E(RB3LYP) =  -1245.53997848     A.U. after    8 cycles
 SCF Done:  E(RB3LYP) =  -1245.53997869     A.U. after    9 cycles
 SCF Done:  E(RB3LYP) =  -1245.53997883     A.U. after    9 cycles
 SCF Done:  E(RB3LYP) =  -1245.53997891     A.U. after    9 cycles
 SCF Done:  E(RB3LYP) =  -1245.53997901     A.U. after    8 cycles
 SCF Done:  E(RB3LYP) =  -1245.53997909     A.U. after    7 cycles
 SCF Done:  E(RB3LYP) =  -1245.53997915     A.U. after    7 cycles
 SCF Done:  E(RB3LYP) =  -1245.53997918     A.U. after    7 cycles
 SCF Done:  E(RB3LYP) =  -1245.53997920     A.U. after    7 cycles
 SCF Done:  E(RB3LYP) =  -1245.53997921     A.U. after    6 cycles
 Optimization completed.
    -- Stationary point found.

                         Standard orientation:
 ---------------------------------------------------------------------
 Center     Atomic      Atomic             Coordinates (Angstroms)
 Number     Number       Type             X           Y           Z
 ---------------------------------------------------------------------
      1          6           0        1.362921    2.859008    0.025521
      2          6           0        2.380154    1.934721   -0.653158
      3          6           0        3.539371    1.438111    0.239576
      4          6           0        4.419660    2.587845    0.770044
      5          6           0        4.991755    3.535285   -0.290011
      6          6           0        3.099165    0.553600    1.417773
      7          6           0        2.474151   -0.792195    1.008983
      8          7           0        1.033983   -0.698583    0.708982
      9          6           0        0.107681   -0.690500    1.716196
     10          8           0        0.437961   -0.647457    2.900366
     11          6           0       -1.339139   -0.737646    1.304101
     12          6           0       -1.800335   -0.405302    0.022251
     13          6           0       -3.158300   -0.469010   -0.282107
     14          6           0       -4.086185   -0.863144    0.688765
     15          6           0       -5.564895   -0.988045    0.361948
     16          7           0       -6.067805    0.045053   -0.532602
     17          6           0       -6.169513    1.397924   -0.265639
     18          6           0       -6.682501    1.960576   -1.407424
     19          7           0       -6.899570    1.000170   -2.371035
     20          6           0       -6.520764   -0.128938   -1.813869
     21          6           0       -3.626821   -1.176903    1.973274
     22          6           0       -2.270478   -1.112887    2.279558
     23          6           0        3.209320   -1.395597   -0.167735
     24          6           0        3.006933   -2.734334   -0.534901
     25          6           0        3.695217   -3.311070   -1.597624
     26          6           0        4.618778   -2.538304   -2.311237
     27          6           0        4.837206   -1.209945   -1.967396
     28          6           0        4.133679   -0.631463   -0.899615
     29          8           0        4.433394    0.667885   -0.619020
     30          1           0        0.858062    2.368433    0.863916
     31          1           0        0.590949    3.160143   -0.691547
     32          1           0        1.830557    3.774845    0.403492
     33          1           0        1.859301    1.062584   -1.062598
     34          1           0        2.826588    2.446506   -1.512941
     35          1           0        5.247922    2.128131    1.322849
     36          1           0        3.835787    3.155942    1.504976
     37          1           0        5.691244    4.239700    0.173446
     38          1           0        4.212198    4.126396   -0.782813
     39          1           0        5.533634    2.977576   -1.059675
     40          1           0        3.991566    0.332003    2.016576
     41          1           0        2.407446    1.089778    2.072111
     42          1           0        2.556549   -1.459114    1.875719
     43          1           0        0.742530   -0.952921   -0.224052
     44          1           0       -1.109931   -0.060610   -0.742807
     45          1           0       -3.501544   -0.192812   -1.275129
     46          1           0       -5.763760   -1.949517   -0.126844
     47          1           0       -6.151670   -0.979583    1.287671
     48          1           0       -5.866141    1.813200    0.683947
     49          1           0       -6.910752    3.002092   -1.590884
     50          1           0       -6.554646   -1.108223   -2.275012
     51          1           0       -4.337741   -1.469897    2.742833
     52          1           0       -1.908081   -1.339752    3.276630
     53          1           0        2.299359   -3.328855    0.040032
     54          1           0        3.524544   -4.350486   -1.861804
     55          1           0        5.169754   -2.973752   -3.140667
     56          1           0        5.546823   -0.592421   -2.509269
 ---------------------------------------------------------------------

 The electronic state is 1-A.
 Alpha  occ. eigenvalues --  -19.17043 -19.11668 -14.39603 -14.36421 -14.30848
 Alpha  occ. eigenvalues --  -10.29217 -10.25431 -10.25094 -10.24939 -10.23593
 Alpha  occ. eigenvalues --  -10.23573 -10.22000 -10.21258 -10.21191 -10.21048
 Alpha  occ. eigenvalues --  -10.20758 -10.20717 -10.20401 -10.19713 -10.19516
 Alpha  occ. eigenvalues --  -10.19512 -10.19376 -10.18713 -10.18686 -10.18663
 Alpha  occ. eigenvalues --  -10.18576 -10.18547 -10.18012 -10.17451  -1.05902
 Alpha  occ. eigenvalues --   -1.03548  -1.01624  -0.92784  -0.89336  -0.86872
 Alpha  occ. eigenvalues --   -0.85443  -0.82224  -0.79474  -0.77851  -0.76222
 Alpha  occ. eigenvalues --   -0.75229  -0.74536  -0.74047  -0.73366  -0.71367
 Alpha  occ. eigenvalues --   -0.67437  -0.65354  -0.63022  -0.62698  -0.62139
 Alpha  occ. eigenvalues --   -0.60819  -0.59605  -0.59335  -0.58437  -0.57363
 Alpha  occ. eigenvalues --   -0.55622  -0.54126  -0.53118  -0.51332  -0.50283
 Alpha  occ. eigenvalues --   -0.49661  -0.49097  -0.47446  -0.46482  -0.46005
 Alpha  occ. eigenvalues --   -0.45724  -0.45311  -0.44323  -0.44161  -0.43693
 Alpha  occ. eigenvalues --   -0.43268  -0.42860  -0.42580  -0.42307  -0.41585
 Alpha  occ. eigenvalues --   -0.41367  -0.40747  -0.40403  -0.40237  -0.40119
 Alpha  occ. eigenvalues --   -0.39627  -0.38350  -0.37539  -0.36996  -0.36858
 Alpha  occ. eigenvalues --   -0.36410  -0.36267  -0.36048  -0.35658  -0.34844
 Alpha  occ. eigenvalues --   -0.34447  -0.33544  -0.33138  -0.30988  -0.30056
 Alpha  occ. eigenvalues --   -0.27416  -0.27071  -0.26733  -0.26411  -0.25810
 Alpha  occ. eigenvalues --   -0.25410  -0.24397  -0.22675  -0.21849
 Alpha virt. eigenvalues --   -0.04605  -0.01978  -0.00996   0.00885   0.02580
 Alpha virt. eigenvalues --    0.04831   0.06211   0.07018   0.08531   0.09290
 Alpha virt. eigenvalues --    0.09460   0.10543   0.11048   0.11530   0.12002

 Mulliken charges:
               1
     1  C   -0.465317
     2  C   -0.262351
     3  C    0.306013
     4  C   -0.272447
     5  C   -0.459009
     6  C   -0.299572
     7  C   -0.013038
     8  N   -0.633627
     9  C    0.570969
    10  O   -0.531760
    11  C    0.072593
    12  C   -0.189484
    13  C   -0.178258
    14  C    0.163583
    15  C   -0.236663
    16  N   -0.366847
    17  C    0.008458
    18  C   -0.037746
    19  N   -0.435874
    20  C    0.189304
    21  C   -0.194716
    22  C   -0.155125
    23  C    0.059378
    24  C   -0.190828
    25  C   -0.136431
    26  C   -0.130198
    27  C   -0.188482
    28  C    0.346829
    29  O   -0.569974
    30  H    0.160520
    31  H    0.147914
    32  H    0.150704
    33  H    0.126460
    34  H    0.150587
    35  H    0.143799
    36  H    0.140623
    37  H    0.144717
    38  H    0.145589
    39  H    0.165779
    40  H    0.149815
    41  H    0.173061
    42  H    0.175888
    43  H    0.332166
    44  H    0.138709
    45  H    0.154839
    46  H    0.180209
    47  H    0.174110
    48  H    0.155780
    49  H    0.135840
    50  H    0.151129
    51  H    0.134252
    52  H    0.168161
    53  H    0.132296
    54  H    0.127989
    55  H    0.131969
    56  H    0.137718
 Sum of Mulliken charges =  -0.00000

 Dipole moment (field-independent basis, Debye):
    X=              0.5566    Y=             -1.5458    Z=              0.5107  Tot=              1.7205
 Quadrupole moment (field-independent basis, Debye-Ang):
   XX=           -184.0720   YY=           -160.6176   ZZ=           -182.0734
   XY=             14.1375   XZ=            -22.5812   YZ=              6.8195

 Normal termination of Gaussian 16 at Fri Nov  4 23:02:59 2022.
