 Gaussian 16, Revision B.01,
 Gaussian 16:  ES64L-G16RevB.01 20-Dec-2017

 -------------------------------------------------------------------
 #p b3lyp/6-31g(d) 6D 10F nosymm GFInput td=(50-50,nstate=2) SCF=XQC
 -------------------------------------------------------------------

 ------------------------------
 Gaussian input prepared by ASE
 ------------------------------
 Symbolic Z-matrix:
 Charge =  0 Multiplicity = 1

                          Input orientation:
 ---------------------------------------------------------------------
 Center     Atomic      Atomic             Coordinates (Angstroms)
 Number     Number       Type             X           Y           Z
 ---------------------------------------------------------------------
      1          6           0       -1.580482    0.978705    2.137723
      2          6           0       -2.504236    0.180356    1.210904
      3          6           0       -3.353198    1.013982    0.225152
      4          6           0       -4.327369    1.973070    0.938830
      5          6           0       -5.264568    1.330497    1.967134
      6          6           0       -2.533070    1.803451   -0.808492
      7          6           0       -1.742826    0.930757   -1.799872
      8          7           0       -0.432335    0.499821   -1.280493
      9          6           0        0.646853    1.340380   -1.317879
     10          8           0        0.543587    2.512388   -1.676950
     11          6           0        1.970451    0.759857   -0.897865
     12          6           0        2.107090   -0.406018   -0.130818
     13          6           0        3.368767   -0.878962    0.223098
     14          6           0        4.522114   -0.195505   -0.178873
     15          6           0        5.907815   -0.723075    0.153538
     16          7           0        6.019037   -1.314664    1.479464
     17          6           0        5.899815   -0.662637    2.692939
     18          6           0        6.067142   -1.632356    3.649522
     19          7           0        6.284305   -2.861770    3.066919
     20          6           0        6.247916   -2.633292    1.772590
     21          6           0        4.384067    0.978321   -0.928872
     22          6           0        3.124252    1.452980   -1.282622
     23          6           0       -2.552416   -0.274708   -2.224902
     24          6           0       -2.162307   -1.054259   -3.324040
     25          6           0       -2.910598   -2.149656   -3.743452
     26          6           0       -4.086164   -2.475256   -3.056863
     27          6           0       -4.494046   -1.718939   -1.965034
     28          6           0       -3.730484   -0.620096   -1.541636
     29          8           0       -4.222743    0.077581   -0.479658
     30          1           0       -0.839984    1.559366    1.578306
     31          1           0       -1.032354    0.298781    2.799592
     32          1           0       -2.140165    1.672010    2.775207
     33          1           0       -1.907918   -0.535862    0.635589
     34          1           0       -3.196745   -0.421187    1.810095
     35          1           0       -4.929244    2.456393    0.159668
     36          1           0       -3.739540    2.768988    1.412897
     37          1           0       -5.989423    2.068465    2.328059
     38          1           0       -4.724215    0.949850    2.840692
     39          1           0       -5.820589    0.499804    1.522339
     40          1           0       -3.235040    2.410634   -1.393826
     41          1           0       -1.850360    2.500329   -0.316163
     42          1           0       -1.527102    1.556252   -2.674526
     43          1           0       -0.277379   -0.494623   -1.195324
     44          1           0        1.230730   -0.939181    0.227671
     45          1           0        3.457413   -1.774713    0.831346
     46          1           0        6.197083   -1.502100   -0.562241
     47          1           0        6.644948    0.082143    0.055571
     48          1           0        5.704708    0.397947    2.750355
     49          1           0        6.046369   -1.516138    4.724963
     50          1           0        6.387193   -3.371456    0.992516
     51          1           0        5.270796    1.528983   -1.235398
     52          1           0        3.008194    2.369934   -1.850671
     53          1           0       -1.255862   -0.778915   -3.859957
     54          1           0       -2.590754   -2.736832   -4.599157
     55          1           0       -4.686350   -3.324029   -3.373890
     56          1           0       -5.400777   -1.955795   -1.417077
 ---------------------------------------------------------------------

 SCF Done:  E(RB3LYP) =  -1245.53997745     A.U. after   15 cycles

 Excitation energies and oscillator strengths:

 Excited state symmetry could not be determined.
 Excited State   1:      Triplet-?Sym    3.5080 eV  353.44 nm  f=0.0000  <S**2>=2.000
      96 ->105         0.23800
      97 ->105        -0.10994
      97 ->106        -0.24848
      98 ->106        -0.20495
     100 ->105         0.39784
     101 ->105        -0.27899
     101 ->106         0.11023
     102 ->105        -0.22001
 This state for optimization and/or second-order correction.
 Total Energy, E(TD-HF/TD-DFT) =  -1245.41106223
 Copying the excited state density for this state as the 1-particle RhoCI density.

 Excited state symmetry could not be determined.
 Excited State   2:      Triplet-?Sym    3.6718 eV  337.67 nm  f=0.0000  <S**2>=2.000
      98 ->107         0.15669
     100 ->107        -0.14939
     102 ->107        -0.39046
     104 ->105        -0.10503
     104 ->108         0.50643

 Excited state symmetry could not be determined.
 Excited State   3:      Singlet-?Sym    4.1864 eV  296.16 nm  f=0.0049  <S**2>=0.000
     101 ->105         0.13002
     102 ->105         0.13357
     104 ->105         0.67142

 Excited state symmetry could not be determined.
 Excited State   4:      Singlet-?Sym    4.3440 eV  285.41 nm  f=0.0031  <S**2>=0.000
     103 ->105         0.70504

 Alpha  occ. eigenvalues --  -19.17043 -19.11668 -14.39603 -14.36421 -14.30848
 Alpha  occ. eigenvalues --  -10.29217 -10.25431 -10.25094 -10.24939 -10.23593
 Alpha  occ. eigenvalues --  -10.23573 -10.22000 -10.21258 -10.21190 -10.21048
 Alpha  occ. eigenvalues --  -10.20758 -10.20717 -10.20401 -10.19713 -10.19516
 Alpha  occ. eigenvalues --  -10.19512 -10.19376 -10.18713 -10.18686 -10.18663
 Alpha  occ. eigenvalues --  -10.18576 -10.18547 -10.18012 -10.17451  -1.05902
 Alpha  occ. eigenvalues --   -1.03548  -1.01624  -0.92784  -0.89336  -0.86872
 Alpha  occ. eigenvalues --   -0.85443  -0.82224  -0.79474  -0.77851  -0.76222
 Alpha  occ. eigenvalues --   -0.75229  -0.74536  -0.74047  -0.73366  -0.71367
 Alpha  occ. eigenvalues --   -0.67437  -0.65354  -0.63022  -0.62698  -0.62139
 Alpha  occ. eigenvalues --   -0.60819  -0.59605  -0.59335  -0.58437  -0.57363
 Alpha  occ. eigenvalues --   -0.55622  -0.54126  -0.53118  -0.51332  -0.50283
 Alpha  occ. eigenvalues --   -0.49661  -0.49097  -0.47446  -0.46482  -0.46005
 Alpha  occ. eigenvalues --   -0.45724  -0.45311  -0.44323  -0.44161  -0.43693
 Alpha  occ. eigenvalues --   -0.43268  -0.42860  -0.42580  -0.42307  -0.41585
 Alpha  occ. eigenvalues --   -0.41367  -0.40747  -0.40403  -0.40237  -0.40119
 Alpha  occ. eigenvalues --   -0.39627  -0.38350  -0.37539  -0.36996  -0.36858
 Alpha  occ. eigenvalues --   -0.36410  -0.36267  -0.36048  -0.35658  -0.34844
 Alpha  occ. eigenvalues --   -0.34447  -0.33544  -0.33138  -0.30988  -0.30056
 Alpha  occ. eigenvalues --   -0.27415  -0.27071  -0.26733  -0.26411  -0.25810
 Alpha  occ. eigenvalues --   -0.25410  -0.24397  -0.22675  -0.21849
 Alpha virt. eigenvalues --   -0.04605  -0.01978  -0.00996   0.00885   0.02580
 Alpha virt. eigenvalues --    0.04831   0.06211   0.07018   0.08531   0.09290
 Alpha virt. eigenvalues --    0.09460   0.10543   0.11048   0.11530   0.12003

 Mulliken charges:
               1
     1  C   -0.465315
     2  C   -0.262327
     3  C    0.305993
     4  C   -0.272444
     5  C   -0.459028
     6  C   -0.299569
     7  C   -0.013038
     8  N   -0.633627
     9  C    0.570982
    10  O   -0.531761
    11  C    0.072590
    12  C   -0.189488
    13  C   -0.178262
    14  C    0.163584
    15  C   -0.236667
    16  N   -0.366846
    17  C    0.008460
    18  C   -0.037739
    19  N   -0.435873
    20  C    0.189298
    21  C   -0.194715
    22  C   -0.155126
    23  C    0.059399
    24  C   -0.190825
    25  C   -0.136437
    26  C   -0.130198
    27  C   -0.188469
    28  C    0.346799
    29  O   -0.569968
    30  H    0.160516
    31  H    0.147912
    32  H    0.150703
    33  H    0.126455
    34  H    0.150584
    35  H    0.143802
    36  H    0.140623
    37  H    0.144721
    38  H    0.145592
    39  H    0.165783
    40  H    0.149814
    41  H    0.173062
    42  H    0.175887
    43  H    0.332166
    44  H    0.138711
    45  H    0.154840
    46  H    0.180210
    47  H    0.174112
    48  H    0.155778
    49  H    0.135839
    50  H    0.151127
    51  H    0.134251
    52  H    0.168162
    53  H    0.132295
    54  H    0.127990
    55  H    0.131969
    56  H    0.137712
 Sum of Mulliken charges =  -0.00000

 Dipole moment (field-independent basis, Debye):
    X=             -0.1339    Y=              0.0794    Z=             -1.7135  Tot=              1.7205
 Quadrupole moment (field-independent basis, Debye-Ang):
   XX=           -170.1139   YY=           -180.3599   ZZ=           -175.7403
   XY=             13.6081   XZ=            -20.1308   YZ=             18.2294

 Normal termination of Gaussian 16 at Sat Nov  5 09:47:16 2022.
