 Gaussian 16, Revision B.01,
 Gaussian 16:  ES64L-G16RevB.01 20-Dec-2017

 -------------------------------------------------------------------
 #p b3lyp/6-31g(d) 6D 10F nosymm GFInput td=(50-50,nstate=2) SCF=XQC
 -------------------------------------------------------------------

 ------------------------------
 Gaussian input prepared by ASE
 ------------------------------
 Symbolic Z-matrix:
 Charge =  0 Multiplicity = 1

                          Input orientation:
 ---------------------------------------------------------------------
 Center     Atomic      Atomic             Coordinates (Angstroms)
 Number     Number       Type             X           Y           Z
 ---------------------------------------------------------------------
      1          6           0        0.639362    2.036269   -2.522536
      2          7           0       -0.113052    1.056190   -1.758438
      3          6           0       -0.200030   -0.248032   -2.120127
      4          8           0        0.321372   -0.716493   -3.129437
      5          6           0       -1.093788   -1.112305   -1.190297
      6          6           0       -1.116569   -2.595285   -1.629747
      7          6           0       -2.217608   -3.394048   -0.965688
      8          6           0       -1.970698   -4.151303    0.187213
      9          6           0       -2.995982   -4.865126    0.810625
     10          6           0       -4.289568   -4.834985    0.287889
     11          6           0       -4.549376   -4.089601   -0.864292
     12          6           0       -3.521361   -3.378364   -1.483812
     13          7           0       -0.835724   -0.896990    0.244179
     14          6           0       -2.005451   -0.553495    1.082595
     15          6           0       -2.409020    0.904908    0.974165
     16          6           0       -3.618187    1.275116    0.377671
     17          6           0       -3.964956    2.624810    0.270011
     18          6           0       -3.107552    3.609291    0.754562
     19          6           0       -1.890955    3.264242    1.365042
     20          6           0       -0.981192    4.331335    1.929349
     21          6           0       -1.557026    1.909331    1.465066
     22          6           0        0.385034   -1.004326    0.880126
     23          8           0        0.492715   -0.762597    2.082281
     24          6           0        1.619063   -1.459311    0.091871
     25          6           0        2.759429   -0.448414    0.083099
     26          6           0        3.309974   -0.047204   -1.138629
     27          6           0        4.386947    0.848789   -1.189559
     28          6           0        4.996828    1.243582   -2.515911
     29          6           0        4.897837    1.346627    0.012404
     30          6           0        4.367258    0.959611    1.250109
     31          6           0        4.957892    1.487559    2.538252
     32          6           0        3.298187    0.058916    1.272562
     33          1           0        1.590044    2.279729   -2.033930
     34          1           0        0.846057    1.609160   -3.504850
     35          1           0        0.050324    2.951683   -2.640714
     36          1           0       -0.531879    1.343950   -0.882486
     37          1           0       -2.105690   -0.719717   -1.348312
     38          1           0       -0.145420   -3.057111   -1.429922
     39          1           0       -1.238707   -2.600474   -2.716970
     40          1           0       -0.964778   -4.184877    0.598929
     41          1           0       -2.781830   -5.447356    1.703052
     42          1           0       -5.087858   -5.392790    0.770004
     43          1           0       -5.551132   -4.068532   -1.285763
     44          1           0       -3.729508   -2.809941   -2.388481
     45          1           0       -2.835285   -1.200044    0.784148
     46          1           0       -1.730391   -0.797458    2.109465
     47          1           0       -4.291812    0.508196    0.001597
     48          1           0       -4.904754    2.906786   -0.197693
     49          1           0       -3.382829    4.657898    0.664502
     50          1           0       -1.355905    4.700580    2.893059
     51          1           0       -0.911829    5.195864    1.259214
     52          1           0        0.030165    3.948132    2.096583
     53          1           0       -0.626542    1.615253    1.945736
     54          1           0        1.950863   -2.369876    0.609110
     55          1           0        1.392598   -1.744247   -0.934598
     56          1           0        2.889535   -0.430408   -2.066001
     57          1           0        5.462918    2.233635   -2.465169
     58          1           0        4.247190    1.260284   -3.314431
     59          1           0        5.776687    0.533150   -2.821798
     60          1           0        5.729095    2.049949   -0.013752
     61          1           0        5.257206    2.537635    2.442969
     62          1           0        4.244896    1.411221    3.365474
     63          1           0        5.854562    0.922477    2.826707
     64          1           0        2.860205   -0.241446    2.218940
 ---------------------------------------------------------------------

 SCF Done:  E(RB3LYP) =  -1346.25763672     A.U. after   15 cycles

 Excitation energies and oscillator strengths:

 Excited state symmetry could not be determined.
 Excited State   1:      Triplet-?Sym    3.6504 eV  339.64 nm  f=0.0000  <S**2>=2.000
     114 ->116         0.10098
     114 ->120         0.42408
     114 ->121        -0.10927
     114 ->123        -0.14842
     115 ->120        -0.11705
     115 ->121        -0.45385
 This state for optimization and/or second-order correction.
 Total Energy, E(TD-HF/TD-DFT) =  -1346.12348545
 Copying the excited state density for this state as the 1-particle RhoCI density.

 Excited state symmetry could not be determined.
 Excited State   2:      Triplet-?Sym    3.6934 eV  335.69 nm  f=0.0000  <S**2>=2.000
     106 ->116        -0.17439
     107 ->116         0.17351
     108 ->116         0.18946
     109 ->116         0.16696
     111 ->116         0.16305
     111 ->117         0.35572
     111 ->118         0.11249
     112 ->116        -0.29643
     112 ->117         0.21697
     113 ->116         0.13751

 Excited state symmetry could not be determined.
 Excited State   3:      Singlet-?Sym    5.1513 eV  240.69 nm  f=0.0098  <S**2>=0.000
     112 ->116        -0.10165
     113 ->116        -0.23355
     114 ->116         0.40662
     114 ->120         0.13520
     114 ->121         0.23602
     115 ->116         0.19726
     115 ->120         0.27231

 Excited state symmetry could not be determined.
 Excited State   4:      Singlet-?Sym    5.1514 eV  240.68 nm  f=0.0026  <S**2>=0.000
     113 ->116         0.38312
     114 ->116        -0.23940
     114 ->121         0.22509
     115 ->116         0.37846
     115 ->120         0.23818

 Alpha  occ. eigenvalues --  -19.11480 -19.11216 -14.37037 -14.36002 -10.28884
 Alpha  occ. eigenvalues --  -10.28808 -10.24361 -10.22077 -10.21406 -10.20411
 Alpha  occ. eigenvalues --  -10.20139 -10.19889 -10.19629 -10.19425 -10.19416
 Alpha  occ. eigenvalues --  -10.19283 -10.19273 -10.19251 -10.19181 -10.19123
 Alpha  occ. eigenvalues --  -10.19086 -10.18982 -10.18954 -10.18859 -10.18769
 Alpha  occ. eigenvalues --  -10.18667 -10.18552 -10.17699 -10.17539 -10.17280
 Alpha  occ. eigenvalues --  -10.17199 -10.16773  -1.03583  -1.03020  -0.93880
 Alpha  occ. eigenvalues --   -0.91626  -0.86189  -0.85637  -0.84888  -0.79588
 Alpha  occ. eigenvalues --   -0.78450  -0.77683  -0.76924  -0.76090  -0.74518
 Alpha  occ. eigenvalues --   -0.74176  -0.71605  -0.70524  -0.69183  -0.68331
 Alpha  occ. eigenvalues --   -0.67185  -0.66929  -0.65206  -0.60655  -0.60356
 Alpha  occ. eigenvalues --   -0.59275  -0.58565  -0.57948  -0.56851  -0.56277
 Alpha  occ. eigenvalues --   -0.54942  -0.51383  -0.51179  -0.50685  -0.49794
 Alpha  occ. eigenvalues --   -0.48499  -0.48473  -0.46979  -0.46455  -0.46011
 Alpha  occ. eigenvalues --   -0.45437  -0.45175  -0.44873  -0.44169  -0.44091
 Alpha  occ. eigenvalues --   -0.42776  -0.42342  -0.42106  -0.41874  -0.41733
 Alpha  occ. eigenvalues --   -0.41350  -0.41048  -0.40961  -0.40497  -0.40215
 Alpha  occ. eigenvalues --   -0.39997  -0.39624  -0.39138  -0.38791  -0.38701
 Alpha  occ. eigenvalues --   -0.38144  -0.37975  -0.37492  -0.36907  -0.36287
 Alpha  occ. eigenvalues --   -0.35751  -0.35427  -0.35183  -0.34470  -0.34104
 Alpha  occ. eigenvalues --   -0.33905  -0.33822  -0.32759  -0.32351  -0.32188
 Alpha  occ. eigenvalues --   -0.26942  -0.25624  -0.25355  -0.25220  -0.25010
 Alpha  occ. eigenvalues --   -0.24906  -0.24318  -0.23161  -0.22610  -0.22490
 Alpha virt. eigenvalues --   -0.01467  -0.00749  -0.00459  -0.00239   0.00461
 Alpha virt. eigenvalues --    0.01172   0.02188   0.02498   0.08415   0.08910
 Alpha virt. eigenvalues --    0.09800   0.10786   0.10925   0.11237   0.11907

 Mulliken charges:
               1
     1  C   -0.316302
     2  N   -0.595239
     3  C    0.626468
     4  O   -0.542389
     5  C   -0.095397
     6  C   -0.351678
     7  C    0.163952
     8  C   -0.181128
     9  C   -0.128539
    10  C   -0.131106
    11  C   -0.128627
    12  C   -0.188114
    13  N   -0.441060
    14  C   -0.251704
    15  C    0.152517
    16  C   -0.194847
    17  C   -0.124831
    18  C   -0.176778
    19  C    0.180168
    20  C   -0.530028
    21  C   -0.272204
    22  C    0.607373
    23  O   -0.526059
    24  C   -0.465573
    25  C    0.163702
    26  C   -0.261982
    27  C    0.177869
    28  C   -0.529873
    29  C   -0.235277
    30  C    0.181036
    31  C   -0.529022
    32  C   -0.235966
    33  H    0.175165
    34  H    0.193804
    35  H    0.155907
    36  H    0.355874
    37  H    0.177897
    38  H    0.163529
    39  H    0.177352
    40  H    0.130393
    41  H    0.133311
    42  H    0.130734
    43  H    0.130472
    44  H    0.125954
    45  H    0.171218
    46  H    0.201446
    47  H    0.129462
    48  H    0.132392
    49  H    0.125350
    50  H    0.169687
    51  H    0.157361
    52  H    0.164903
    53  H    0.165246
    54  H    0.182735
    55  H    0.178618
    56  H    0.145237
    57  H    0.151187
    58  H    0.158283
    59  H    0.164782
    60  H    0.108266
    61  H    0.151832
    62  H    0.158750
    63  H    0.162567
    64  H    0.150921
 Sum of Mulliken charges =  -0.00000

 Dipole moment (field-independent basis, Debye):
    X=             -2.1077    Y=              2.1817    Z=             -0.0199  Tot=              3.0336
 Quadrupole moment (field-independent basis, Debye-Ang):
   XX=           -174.6123   YY=           -175.3280   ZZ=           -198.2125
   XY=              4.7942   XZ=              2.6611   YZ=             -4.7922

 Normal termination of Gaussian 16 at Sat Nov  5 10:10:10 2022.
