 Gaussian 16, Revision B.01,
 Gaussian 16:  ES64L-G16RevB.01 20-Dec-2017

 -----------------------------
 #p b3lyp/6-31g(d) opt SCF=XQC
 -----------------------------

 ------------------------------
 Gaussian input prepared by ASE
 ------------------------------
 Symbolic Z-matrix:
 Charge =  0 Multiplicity = 1

 SCF Done:  E(RB3LYP) =  -1346.24221530     A.U. after   15 cycles
 SCF Done:  E(RB3LYP) =  -1346.24728002     A.U. after   15 cycles
 SCF Done:  E(RB3LYP) =  -1346.24616575     A.U. after   15 cycles
 SCF Done:  E(RB3LYP) =  -1346.24214118     A.U. after   14 cycles
 SCF Done:  E(RB3LYP) =  -1346.24274534     A.U. after   12 cycles
 SCF Done:  E(RB3LYP) =  -1346.24850547     A.U. after   11 cycles
 SCF Done:  E(RB3LYP) =  -1346.25229271     A.U. after   12 cycles
 SCF Done:  E(RB3LYP) =  -1346.25407650     A.U. after   14 cycles
 SCF Done:  E(RB3LYP) =  -1346.25616653     A.U. after   13 cycles
 SCF Done:  E(RB3LYP) =  -1346.25631494     A.U. after   13 cycles
 SCF Done:  E(RB3LYP) =  -1346.25762360     A.U. after    9 cycles
 SCF Done:  E(RB3LYP) =  -1346.25762435     A.U. after    8 cycles
 SCF Done:  E(RB3LYP) =  -1346.25762507     A.U. after    7 cycles
 SCF Done:  E(RB3LYP) =  -1346.25762624     A.U. after    9 cycles
 SCF Done:  E(RB3LYP) =  -1346.25762793     A.U. after    9 cycles
 SCF Done:  E(RB3LYP) =  -1346.25762893     A.U. after    9 cycles
 SCF Done:  E(RB3LYP) =  -1346.25763019     A.U. after    9 cycles
 SCF Done:  E(RB3LYP) =  -1346.25763104     A.U. after    9 cycles
 SCF Done:  E(RB3LYP) =  -1346.25763120     A.U. after    7 cycles
 SCF Done:  E(RB3LYP) =  -1346.25763124     A.U. after    7 cycles
 Optimization completed.
    -- Stationary point found.

                         Standard orientation:
 ---------------------------------------------------------------------
 Center     Atomic      Atomic             Coordinates (Angstroms)
 Number     Number       Type             X           Y           Z
 ---------------------------------------------------------------------
      1          6           0        1.689845    0.798229   -2.805663
      2          7           0        0.573934    0.556060   -1.907540
      3          6           0       -0.152539   -0.588966   -1.930534
      4          8           0        0.043750   -1.510466   -2.719414
      5          6           0       -1.330083   -0.620784   -0.919231
      6          6           0       -2.090632   -1.967057   -0.963697
      7          6           0       -3.423620   -1.919392   -0.248046
      8          6           0       -3.549588   -2.345763    1.080833
      9          6           0       -4.775990   -2.275013    1.744403
     10          6           0       -5.901394   -1.776829    1.086525
     11          6           0       -5.792469   -1.353964   -0.240101
     12          6           0       -4.564855   -1.427087   -0.898960
     13          7           0       -0.960741   -0.164279    0.432017
     14          6           0       -1.787435    0.915763    1.014494
     15          6           0       -1.424946    2.292563    0.490483
     16          6           0       -2.311740    3.012796   -0.315623
     17          6           0       -1.953211    4.272138   -0.804527
     18          6           0       -0.709899    4.816599   -0.493289
     19          6           0        0.196106    4.117660    0.320647
     20          6           0        1.527759    4.728108    0.693278
     21          6           0       -0.176370    2.857987    0.802086
     22          6           0        0.066399   -0.660229    1.209973
     23          8           0        0.311517   -0.174671    2.314218
     24          6           0        0.895634   -1.849834    0.711581
     25          6           0        2.384871   -1.556656    0.575035
     26          6           0        3.028169   -1.827565   -0.637180
     27          6           0        4.404610   -1.611468   -0.792026
     28          6           0        5.093569   -1.945350   -2.096206
     29          6           0        5.126575   -1.105774    0.292688
     30          6           0        4.508067   -0.828143    1.518893
     31          6           0        5.316582   -0.311475    2.687759
     32          6           0        3.135421   -1.059893    1.648519
     33          1           0        2.650292    0.682372   -2.289986
     34          1           0        1.633240    0.069321   -3.615339
     35          1           0        1.623771    1.809108   -3.221203
     36          1           0        0.374516    1.240794   -1.188591
     37          1           0       -2.022275    0.146174   -1.287585
     38          1           0       -1.466808   -2.760459   -0.542151
     39          1           0       -2.228973   -2.216692   -2.019889
     40          1           0       -2.679289   -2.740139    1.600025
     41          1           0       -4.851518   -2.612797    2.774684
     42          1           0       -6.857357   -1.724338    1.600557
     43          1           0       -6.665553   -0.974716   -0.764974
     44          1           0       -4.491216   -1.107091   -1.936763
     45          1           0       -2.835628    0.691390    0.798465
     46          1           0       -1.640059    0.867955    2.094139
     47          1           0       -3.285216    2.591774   -0.557395
     48          1           0       -2.645393    4.825985   -1.433507
     49          1           0       -0.436628    5.796025   -0.879960
     50          1           0        1.409164    5.484073    1.480642
     51          1           0        1.994843    5.227280   -0.163438
     52          1           0        2.224339    3.971799    1.068014
     53          1           0        0.502109    2.302147    1.445542
     54          1           0        0.750987   -2.622054    1.479377
     55          1           0        0.530644   -2.265413   -0.226603
     56          1           0        2.448719   -2.204411   -1.477334
     57          1           0        5.987229   -1.330165   -2.247665
     58          1           0        4.427584   -1.795759   -2.952918
     59          1           0        5.414994   -2.995426   -2.118297
     60          1           0        6.195110   -0.925522    0.182785
     61          1           0        6.090605    0.392696    2.361632
     62          1           0        4.680837    0.197375    3.419460
     63          1           0        5.827231   -1.130413    3.212278
     64          1           0        2.632205   -0.835851    2.583535
 ---------------------------------------------------------------------

 The electronic state is 1-A.
 Alpha  occ. eigenvalues --  -19.11480 -19.11216 -14.37037 -14.36002 -10.28884
 Alpha  occ. eigenvalues --  -10.28808 -10.24361 -10.22077 -10.21406 -10.20411
 Alpha  occ. eigenvalues --  -10.20139 -10.19889 -10.19629 -10.19425 -10.19416
 Alpha  occ. eigenvalues --  -10.19283 -10.19273 -10.19251 -10.19181 -10.19123
 Alpha  occ. eigenvalues --  -10.19086 -10.18982 -10.18954 -10.18859 -10.18769
 Alpha  occ. eigenvalues --  -10.18667 -10.18552 -10.17699 -10.17539 -10.17280
 Alpha  occ. eigenvalues --  -10.17199 -10.16773  -1.03583  -1.03020  -0.93880
 Alpha  occ. eigenvalues --   -0.91626  -0.86189  -0.85637  -0.84888  -0.79588
 Alpha  occ. eigenvalues --   -0.78450  -0.77683  -0.76924  -0.76090  -0.74518
 Alpha  occ. eigenvalues --   -0.74176  -0.71605  -0.70524  -0.69183  -0.68331
 Alpha  occ. eigenvalues --   -0.67185  -0.66929  -0.65206  -0.60655  -0.60356
 Alpha  occ. eigenvalues --   -0.59275  -0.58565  -0.57948  -0.56851  -0.56277
 Alpha  occ. eigenvalues --   -0.54942  -0.51383  -0.51179  -0.50685  -0.49794
 Alpha  occ. eigenvalues --   -0.48499  -0.48473  -0.46979  -0.46455  -0.46011
 Alpha  occ. eigenvalues --   -0.45437  -0.45175  -0.44873  -0.44169  -0.44091
 Alpha  occ. eigenvalues --   -0.42776  -0.42342  -0.42106  -0.41874  -0.41733
 Alpha  occ. eigenvalues --   -0.41350  -0.41048  -0.40961  -0.40497  -0.40215
 Alpha  occ. eigenvalues --   -0.39997  -0.39624  -0.39138  -0.38791  -0.38701
 Alpha  occ. eigenvalues --   -0.38144  -0.37975  -0.37492  -0.36907  -0.36287
 Alpha  occ. eigenvalues --   -0.35751  -0.35427  -0.35183  -0.34470  -0.34104
 Alpha  occ. eigenvalues --   -0.33905  -0.33822  -0.32759  -0.32351  -0.32188
 Alpha  occ. eigenvalues --   -0.26942  -0.25624  -0.25355  -0.25220  -0.25010
 Alpha  occ. eigenvalues --   -0.24906  -0.24318  -0.23161  -0.22610  -0.22490
 Alpha virt. eigenvalues --   -0.01467  -0.00749  -0.00459  -0.00239   0.00461
 Alpha virt. eigenvalues --    0.01172   0.02188   0.02498   0.08415   0.08910
 Alpha virt. eigenvalues --    0.09800   0.10786   0.10925   0.11237   0.11907

 Mulliken charges:
               1
     1  C   -0.316294
     2  N   -0.595241
     3  C    0.626456
     4  O   -0.542391
     5  C   -0.095361
     6  C   -0.351684
     7  C    0.163949
     8  C   -0.181117
     9  C   -0.128543
    10  C   -0.131103
    11  C   -0.128628
    12  C   -0.188120
    13  N   -0.441061
    14  C   -0.251730
    15  C    0.152535
    16  C   -0.194846
    17  C   -0.124817
    18  C   -0.176795
    19  C    0.180163
    20  C   -0.530032
    21  C   -0.272188
    22  C    0.607370
    23  O   -0.526055
    24  C   -0.465574
    25  C    0.163699
    26  C   -0.261973
    27  C    0.177870
    28  C   -0.529872
    29  C   -0.235280
    30  C    0.181042
    31  C   -0.529021
    32  C   -0.235976
    33  H    0.175166
    34  H    0.193802
    35  H    0.155900
    36  H    0.355876
    37  H    0.177895
    38  H    0.163526
    39  H    0.177351
    40  H    0.130388
    41  H    0.133311
    42  H    0.130734
    43  H    0.130472
    44  H    0.125955
    45  H    0.171220
    46  H    0.201448
    47  H    0.129454
    48  H    0.132390
    49  H    0.125352
    50  H    0.169688
    51  H    0.157363
    52  H    0.164903
    53  H    0.165246
    54  H    0.182735
    55  H    0.178617
    56  H    0.145236
    57  H    0.151187
    58  H    0.158285
    59  H    0.164780
    60  H    0.108266
    61  H    0.151831
    62  H    0.158750
    63  H    0.162566
    64  H    0.150920
 Sum of Mulliken charges =  -0.00000

 Dipole moment (field-independent basis, Debye):
    X=             -0.7631    Y=              2.8192    Z=             -0.8199  Tot=              3.0336
 Quadrupole moment (field-independent basis, Debye-Ang):
   XX=           -171.0094   YY=           -183.0681   ZZ=           -193.8434
   XY=              2.2007   XZ=             -1.5316   YZ=             -9.6669

 Normal termination of Gaussian 16 at Fri Nov  4 23:36:23 2022.
