 Gaussian 16, Revision B.01,
 Gaussian 16:  ES64L-G16RevB.01 20-Dec-2017

 -----------------------------
 #p b3lyp/6-31g(d) opt SCF=XQC
 -----------------------------

 ------------------------------
 Gaussian input prepared by ASE
 ------------------------------
 Symbolic Z-matrix:
 Charge =  0 Multiplicity = 1

 SCF Done:  E(RB3LYP) =  -1766.92684653     A.U. after   14 cycles
 SCF Done:  E(RB3LYP) =  -1766.93389365     A.U. after   12 cycles
 SCF Done:  E(RB3LYP) =  -1766.93535519     A.U. after   11 cycles
 SCF Done:  E(RB3LYP) =  -1766.93597903     A.U. after   12 cycles
 SCF Done:  E(RB3LYP) =  -1766.93611703     A.U. after   12 cycles
 SCF Done:  E(RB3LYP) =  -1766.93629319     A.U. after   11 cycles
 SCF Done:  E(RB3LYP) =  -1766.93638724     A.U. after   11 cycles
 SCF Done:  E(RB3LYP) =  -1766.93643636     A.U. after   10 cycles
 SCF Done:  E(RB3LYP) =  -1766.93645640     A.U. after   10 cycles
 SCF Done:  E(RB3LYP) =  -1766.93646570     A.U. after    9 cycles
 SCF Done:  E(RB3LYP) =  -1766.93647216     A.U. after   10 cycles
 SCF Done:  E(RB3LYP) =  -1766.93647686     A.U. after    9 cycles
 SCF Done:  E(RB3LYP) =  -1766.93648224     A.U. after    9 cycles
 SCF Done:  E(RB3LYP) =  -1766.93648459     A.U. after    9 cycles
 SCF Done:  E(RB3LYP) =  -1766.93648479     A.U. after    7 cycles
 SCF Done:  E(RB3LYP) =  -1766.93648482     A.U. after    6 cycles
 Optimization completed.
    -- Stationary point found.

                         Standard orientation:
 ---------------------------------------------------------------------
 Center     Atomic      Atomic             Coordinates (Angstroms)
 Number     Number       Type             X           Y           Z
 ---------------------------------------------------------------------
      1          6           0       -1.693937    0.547399    0.094136
      2          6           0       -2.556265   -0.489862    0.143919
      3          6           0       -4.013583   -0.351683    0.086197
      4          6           0       -4.822106   -1.500538    0.091074
      5          6           0       -6.214252   -1.375188    0.037991
      6          6           0       -7.099920   -2.566928    0.061396
      7          6           0       -8.275475   -2.605018   -0.706604
      8          6           0       -9.106637   -3.723947   -0.686653
      9          6           0       -8.780571   -4.827223    0.104243
     10          6           0       -7.615938   -4.802593    0.873815
     11          6           0       -6.783672   -3.684565    0.851446
     12          6           0       -6.740058   -0.079160   -0.029364
     13          6           0       -5.872144    1.025384   -0.048893
     14          6           0       -6.394155    2.419035   -0.115776
     15          6           0       -5.614426    3.480644    0.371086
     16          6           0       -6.087253    4.790024    0.328029
     17          6           0       -7.346253    5.067494   -0.209875
     18          6           0       -8.126165    4.022751   -0.708046
     19          6           0       -7.654435    2.711428   -0.661342
     20          7           0       -4.540576    0.886575    0.017737
     21          6           0       -0.237488    0.498448    0.148201
     22          6           0        0.507660   -0.686211    0.328642
     23          6           0        1.890928   -0.676518    0.371668
     24          6           0        2.628495    0.523485    0.232290
     25          7           0        4.035788    0.508534    0.317726
     26          6           0        4.707251    1.788829    0.548558
     27          6           0        6.082639    1.716115    1.221872
     28          8           0        6.066501    1.211700    2.552358
     29          6           0        6.343726   -0.168699    2.722878
     30          6           0        7.765032   -0.601137    2.353116
     31          8           0        7.866988   -0.922729    0.965342
     32          6           0        9.193077   -1.249575    0.569767
     33          6           0        9.219327   -1.929297   -0.796680
     34          8           0        9.011186   -1.077489   -1.910692
     35          6           0        7.682415   -0.971584   -2.415553
     36          6           0        7.149968    0.433399   -2.105482
     37          8           0        5.792250    0.687916   -2.449123
     38          6           0        4.817021   -0.250746   -2.003598
     39          6           0        4.739971   -0.499913   -0.483679
     40          6           0        1.888883    1.708346    0.050013
     41          6           0        0.497575    1.688084    0.018263
     42          1           0       -2.130959    1.539517   -0.003359
     43          1           0       -2.189467   -1.511390    0.224084
     44          1           0       -4.359336   -2.482702    0.114804
     45          1           0       -8.524366   -1.760713   -1.343331
     46          1           0      -10.006699   -3.736491   -1.295644
     47          1           0       -9.428877   -5.699117    0.120845
     48          1           0       -7.357806   -5.652919    1.499496
     49          1           0       -5.892357   -3.664362    1.472208
     50          1           0       -7.813728    0.068926   -0.010592
     51          1           0       -4.636953    3.256855    0.783889
     52          1           0       -5.472046    5.597240    0.717345
     53          1           0       -7.714240    6.089542   -0.244811
     54          1           0       -9.101312    4.228319   -1.141889
     55          1           0       -8.263391    1.914589   -1.078329
     56          1           0       -0.007759   -1.633687    0.459450
     57          1           0        2.412538   -1.610476    0.555087
     58          1           0        4.064486    2.370625    1.214525
     59          1           0        4.834009    2.368498   -0.382715
     60          1           0        6.809378    1.172781    0.617296
     61          1           0        6.437815    2.751555    1.296853
     62          1           0        6.212842   -0.341680    3.796667
     63          1           0        5.617268   -0.800631    2.195170
     64          1           0        8.467687    0.203867    2.619088
     65          1           0        8.036001   -1.491429    2.945572
     66          1           0        9.823061   -0.346609    0.550106
     67          1           0        9.634197   -1.951328    1.298419
     68          1           0        8.499736   -2.761358   -0.797840
     69          1           0       10.222990   -2.354868   -0.924434
     70          1           0        7.047425   -1.746674   -1.969569
     71          1           0        7.713667   -1.146577   -3.498408
     72          1           0        7.337438    0.617450   -1.043719
     73          1           0        7.729752    1.168343   -2.672135
     74          1           0        4.968626   -1.222236   -2.500486
     75          1           0        3.861777    0.147131   -2.360526
     76          1           0        5.742424   -0.645248   -0.076201
     77          1           0        4.228927   -1.456784   -0.347684
     78          1           0        2.397331    2.654778   -0.092151
     79          1           0       -0.037364    2.623430   -0.130735
 ---------------------------------------------------------------------

 The electronic state is 1-A.
 Alpha  occ. eigenvalues --  -19.16759 -19.15553 -19.14818 -19.14579 -14.34487
 Alpha  occ. eigenvalues --  -14.31413 -10.24556 -10.24502 -10.24379 -10.23624
 Alpha  occ. eigenvalues --  -10.23534 -10.23083 -10.22820 -10.22574 -10.22400
 Alpha  occ. eigenvalues --  -10.22361 -10.22126 -10.21467 -10.21127 -10.20802
 Alpha  occ. eigenvalues --  -10.20232 -10.19371 -10.19343 -10.19311 -10.19282
 Alpha  occ. eigenvalues --  -10.19271 -10.18967 -10.18672 -10.18643 -10.18551
 Alpha  occ. eigenvalues --  -10.18497 -10.18497 -10.18452 -10.18396 -10.18381
 Alpha  occ. eigenvalues --  -10.18269 -10.18227 -10.18223 -10.17954 -10.17835
 Alpha  occ. eigenvalues --  -10.17699  -1.05114  -1.03538  -1.02600  -1.02329
 Alpha  occ. eigenvalues --   -0.93701  -0.93432  -0.86106  -0.84727  -0.84416
 Alpha  occ. eigenvalues --   -0.80772  -0.79601  -0.78829  -0.77476  -0.76854
 Alpha  occ. eigenvalues --   -0.74741  -0.74567  -0.74378  -0.74010  -0.73486
 Alpha  occ. eigenvalues --   -0.73468  -0.72777  -0.70945  -0.68790  -0.66513
 Alpha  occ. eigenvalues --   -0.64684  -0.63805  -0.62881  -0.61640  -0.61102
 Alpha  occ. eigenvalues --   -0.60471  -0.60268  -0.59547  -0.58702  -0.58350
 Alpha  occ. eigenvalues --   -0.57013  -0.56143  -0.54521  -0.52928  -0.52424
 Alpha  occ. eigenvalues --   -0.52169  -0.51595  -0.50780  -0.50657  -0.49882
 Alpha  occ. eigenvalues --   -0.48645  -0.48522  -0.48181  -0.48059  -0.47394
 Alpha  occ. eigenvalues --   -0.46862  -0.46732  -0.46012  -0.45331  -0.45068
 Alpha  occ. eigenvalues --   -0.44798  -0.44431  -0.44168  -0.43751  -0.42928
 Alpha  occ. eigenvalues --   -0.42725  -0.42424  -0.42321  -0.41997  -0.41548
 Alpha  occ. eigenvalues --   -0.41333  -0.41158  -0.40924  -0.40607  -0.40422
 Alpha  occ. eigenvalues --   -0.39731  -0.39454  -0.38709  -0.38235  -0.37551
 Alpha  occ. eigenvalues --   -0.37420  -0.36883  -0.36696  -0.36569  -0.36453
 Alpha  occ. eigenvalues --   -0.35748  -0.35604  -0.35321  -0.34479  -0.34244
 Alpha  occ. eigenvalues --   -0.33933  -0.33595  -0.33240  -0.32799  -0.32215
 Alpha  occ. eigenvalues --   -0.31104  -0.30753  -0.30469  -0.29267  -0.28474
 Alpha  occ. eigenvalues --   -0.27522  -0.26975  -0.25390  -0.25265  -0.24925
 Alpha  occ. eigenvalues --   -0.24662  -0.24568  -0.24166  -0.23941  -0.23076
 Alpha  occ. eigenvalues --   -0.21693  -0.17952
 Alpha virt. eigenvalues --   -0.05024  -0.03609  -0.01115  -0.00375   0.00496
 Alpha virt. eigenvalues --    0.00759   0.02902   0.04476   0.07030   0.07709
 Alpha virt. eigenvalues --    0.08300   0.08440   0.09287   0.10060   0.10146

 Mulliken charges:
               1
     1  C   -0.182967
     2  C   -0.194719
     3  C    0.345406
     4  C   -0.248718
     5  C    0.122040
     6  C    0.086723
     7  C   -0.169645
     8  C   -0.134529
     9  C   -0.124349
    10  C   -0.134900
    11  C   -0.169448
    12  C   -0.232712
    13  C    0.253004
    14  C    0.099561
    15  C   -0.158782
    16  C   -0.136045
    17  C   -0.123411
    18  C   -0.138177
    19  C   -0.175720
    20  N   -0.576737
    21  C    0.187739
    22  C   -0.189099
    23  C   -0.177974
    24  C    0.333293
    25  N   -0.482809
    26  C   -0.132717
    27  C   -0.073828
    28  O   -0.470845
    29  C   -0.045064
    30  C   -0.041015
    31  O   -0.480527
    32  C   -0.022019
    33  C   -0.041626
    34  O   -0.475590
    35  C   -0.052628
    36  C   -0.054316
    37  O   -0.476297
    38  C   -0.033420
    39  C   -0.215137
    40  C   -0.190052
    41  C   -0.209786
    42  H    0.155424
    43  H    0.118507
    44  H    0.132989
    45  H    0.134566
    46  H    0.133028
    47  H    0.132095
    48  H    0.132779
    49  H    0.135919
    50  H    0.141425
    51  H    0.153283
    52  H    0.128852
    53  H    0.127644
    54  H    0.127421
    55  H    0.125898
    56  H    0.126054
    57  H    0.127850
    58  H    0.161393
    59  H    0.142328
    60  H    0.166440
    61  H    0.143982
    62  H    0.149621
    63  H    0.154987
    64  H    0.141650
    65  H    0.126858
    66  H    0.141892
    67  H    0.120372
    68  H    0.136365
    69  H    0.147141
    70  H    0.131744
    71  H    0.148432
    72  H    0.152331
    73  H    0.153882
    74  H    0.122852
    75  H    0.161846
    76  H    0.187310
    77  H    0.147850
    78  H    0.133444
    79  H    0.131388
 Sum of Mulliken charges =  -0.00000

 Dipole moment (field-independent basis, Debye):
    X=              2.6941    Y=             -3.6262    Z=              0.9316  Tot=              4.6125
 Quadrupole moment (field-independent basis, Debye-Ang):
   XX=           -192.7139   YY=           -218.3844   ZZ=           -248.6973
   XY=             -7.1039   XZ=             16.8720   YZ=             -3.7808

 Normal termination of Gaussian 16 at Fri Nov  4 23:07:01 2022.
