 Gaussian 16, Revision B.01,
 Gaussian 16:  ES64L-G16RevB.01 20-Dec-2017

 -------------------------------------------------------------------
 #p b3lyp/6-31g(d) 6D 10F nosymm GFInput td=(50-50,nstate=2) SCF=XQC
 -------------------------------------------------------------------

 ------------------------------
 Gaussian input prepared by ASE
 ------------------------------
 Symbolic Z-matrix:
 Charge =  0 Multiplicity = 1

                          Input orientation:
 ---------------------------------------------------------------------
 Center     Atomic      Atomic             Coordinates (Angstroms)
 Number     Number       Type             X           Y           Z
 ---------------------------------------------------------------------
      1          6           0       -2.113439   -0.480893   -0.286135
      2          6           0       -2.929290    0.586525   -0.155746
      3          6           0       -4.392157    0.507951   -0.149041
      4          6           0       -5.150639    1.674057    0.047181
      5          6           0       -6.547752    1.605906    0.052807
      6          6           0       -7.380994    2.821132    0.237553
      7          6           0       -8.572677    2.770550    0.979535
      8          6           0       -9.354667    3.911136    1.154989
      9          6           0       -8.962249    5.125727    0.589452
     10          6           0       -7.780862    5.190320   -0.151743
     11          6           0       -6.997792    4.050117   -0.324636
     12          6           0       -7.129802    0.345794   -0.131674
     13          6           0       -6.310481   -0.782305   -0.304248
     14          6           0       -6.892887   -2.138322   -0.507353
     15          6           0       -6.147166   -3.126132   -1.170796
     16          6           0       -6.676262   -4.397300   -1.380758
     17          6           0       -7.958982   -4.710991   -0.925083
     18          6           0       -8.705887   -3.741827   -0.253681
     19          6           0       -8.177712   -2.468024   -0.046958
     20          7           0       -4.972961   -0.695609   -0.321674
     21          6           0       -0.655331   -0.490535   -0.305918
     22          6           0        0.143875    0.671070   -0.249664
     23          6           0        1.526118    0.605223   -0.270764
     24          6           0        2.208191   -0.632766   -0.345594
     25          7           0        3.616538   -0.667666   -0.403354
     26          6           0        4.238415   -1.912631   -0.857920
     27          6           0        5.632041   -1.780172   -1.482892
     28          8           0        5.670644   -1.037238   -2.695925
     29          6           0        6.010587    0.336402   -2.601160
     30          6           0        7.439342    0.626075   -2.133627
     31          8           0        7.520205    0.679238   -0.708717
     32          6           0        8.848716    0.864906   -0.237119
     33          6           0        8.869752    1.277055    1.232431
     34          8           0        8.597755    0.243788    2.164257
     35          6           0        7.253483    0.107869    2.618339
     36          6           0        6.669587   -1.188777    2.042670
     37          8           0        5.294100   -1.439271    2.310168
     38          6           0        4.371171   -0.389879    2.031546
     39          6           0        4.342796    0.140543    0.583782
     40          6           0        1.414460   -1.795168   -0.399990
     41          6           0        0.024918   -1.716479   -0.388127
     42          1           0       -2.594621   -1.452443   -0.382810
     43          1           0       -2.517426    1.586989   -0.037725
     44          1           0       -4.646007    2.620941    0.214884
     45          1           0       -8.873132    1.835183    1.443254
     46          1           0      -10.268310    3.852200    1.740585
     47          1           0       -9.572213    6.014722    0.725121
     48          1           0       -7.471197    6.129115   -0.603334
     49          1           0       -6.092917    4.104129   -0.923368
     50          1           0       -8.208001    0.253861   -0.195587
     51          1           0       -5.151041   -2.875271   -1.518282
     52          1           0       -6.086464   -5.145888   -1.903632
     53          1           0       -8.370926   -5.703508   -1.087649
     54          1           0       -9.699439   -3.978820    0.117910
     55          1           0       -8.762401   -1.735051    0.501263
     56          1           0       -0.327291    1.649281   -0.209862
     57          1           0        2.091453    1.531713   -0.267942
     58          1           0        3.588289   -2.330091   -1.631360
     59          1           0        4.317064   -2.660429   -0.049239
     60          1           0        6.365935   -1.392966   -0.775541
     61          1           0        5.944554   -2.799049   -1.743918
     62          1           0        5.914054    0.711695   -3.625812
     63          1           0        5.298750    0.892420   -1.976911
     64          1           0        8.113495   -0.147316   -2.533477
     65          1           0        7.762701    1.597329   -2.544909
     66          1           0        9.438980   -0.054303   -0.375888
     67          1           0        9.337390    1.668490   -0.814550
     68          1           0        8.186451    2.126972    1.376929
     69          1           0        9.887126    1.624355    1.454026
     70          1           0        6.663422    0.980978    2.314386
     71          1           0        7.265100    0.077064    3.715194
     72          1           0        6.875512   -1.180949    0.968475
     73          1           0        7.203205   -2.042326    2.471732
     74          1           0        4.551558    0.464308    2.703484
     75          1           0        3.391229   -0.802264    2.292021
     76          1           0        5.360396    0.312251    0.227298
     77          1           0        3.876529    1.128735    0.620314
     78          1           0        1.878424   -2.774139   -0.428558
     79          1           0       -0.552930   -2.637318   -0.425240
 ---------------------------------------------------------------------

 SCF Done:  E(RB3LYP) =  -1766.93647329     A.U. after   14 cycles

 Excitation energies and oscillator strengths:

 Excited state symmetry could not be determined.
 Excited State   1:      Triplet-?Sym    2.1503 eV  576.58 nm  f=0.0000  <S**2>=2.000
     145 ->148         0.14869
     146 ->148        -0.14304
     147 ->148         0.59263
     147 ->149         0.23320
     147 ->150        -0.13495
 This state for optimization and/or second-order correction.
 Total Energy, E(TD-HF/TD-DFT) =  -1766.85744969
 Copying the excited state density for this state as the 1-particle RhoCI density.

 Excited state symmetry could not be determined.
 Excited State   2:      Triplet-?Sym    3.0254 eV  409.81 nm  f=0.0000  <S**2>=2.000
     145 ->148         0.10836
     145 ->149        -0.14733
     146 ->149        -0.38454
     147 ->148        -0.24982
     147 ->149         0.43751

 Excited state symmetry could not be determined.
 Excited State   3:      Singlet-?Sym    3.1853 eV  389.24 nm  f=0.6878  <S**2>=0.000
     147 ->148         0.67779
     147 ->149        -0.17365

 Excited state symmetry could not be determined.
 Excited State   4:      Singlet-?Sym    3.5415 eV  350.09 nm  f=0.5112  <S**2>=0.000
     147 ->148         0.17774
     147 ->149         0.67166

 Alpha  occ. eigenvalues --  -19.16759 -19.15553 -19.14818 -19.14579 -14.34487
 Alpha  occ. eigenvalues --  -14.31413 -10.24556 -10.24502 -10.24379 -10.23624
 Alpha  occ. eigenvalues --  -10.23534 -10.23083 -10.22820 -10.22574 -10.22400
 Alpha  occ. eigenvalues --  -10.22361 -10.22126 -10.21467 -10.21127 -10.20802
 Alpha  occ. eigenvalues --  -10.20232 -10.19371 -10.19343 -10.19311 -10.19282
 Alpha  occ. eigenvalues --  -10.19271 -10.18967 -10.18672 -10.18642 -10.18551
 Alpha  occ. eigenvalues --  -10.18497 -10.18497 -10.18452 -10.18396 -10.18381
 Alpha  occ. eigenvalues --  -10.18269 -10.18227 -10.18223 -10.17954 -10.17835
 Alpha  occ. eigenvalues --  -10.17699  -1.05114  -1.03538  -1.02600  -1.02329
 Alpha  occ. eigenvalues --   -0.93701  -0.93432  -0.86106  -0.84727  -0.84416
 Alpha  occ. eigenvalues --   -0.80772  -0.79601  -0.78829  -0.77476  -0.76854
 Alpha  occ. eigenvalues --   -0.74741  -0.74567  -0.74378  -0.74010  -0.73486
 Alpha  occ. eigenvalues --   -0.73468  -0.72777  -0.70945  -0.68790  -0.66513
 Alpha  occ. eigenvalues --   -0.64684  -0.63805  -0.62881  -0.61640  -0.61102
 Alpha  occ. eigenvalues --   -0.60471  -0.60268  -0.59547  -0.58702  -0.58350
 Alpha  occ. eigenvalues --   -0.57013  -0.56143  -0.54521  -0.52928  -0.52424
 Alpha  occ. eigenvalues --   -0.52169  -0.51595  -0.50780  -0.50657  -0.49882
 Alpha  occ. eigenvalues --   -0.48645  -0.48522  -0.48181  -0.48059  -0.47394
 Alpha  occ. eigenvalues --   -0.46862  -0.46732  -0.46012  -0.45331  -0.45068
 Alpha  occ. eigenvalues --   -0.44798  -0.44431  -0.44168  -0.43751  -0.42928
 Alpha  occ. eigenvalues --   -0.42725  -0.42424  -0.42321  -0.41997  -0.41548
 Alpha  occ. eigenvalues --   -0.41333  -0.41158  -0.40924  -0.40607  -0.40422
 Alpha  occ. eigenvalues --   -0.39731  -0.39454  -0.38709  -0.38235  -0.37551
 Alpha  occ. eigenvalues --   -0.37420  -0.36883  -0.36696  -0.36569  -0.36452
 Alpha  occ. eigenvalues --   -0.35748  -0.35604  -0.35321  -0.34479  -0.34244
 Alpha  occ. eigenvalues --   -0.33933  -0.33595  -0.33240  -0.32799  -0.32215
 Alpha  occ. eigenvalues --   -0.31103  -0.30753  -0.30469  -0.29267  -0.28474
 Alpha  occ. eigenvalues --   -0.27522  -0.26975  -0.25390  -0.25265  -0.24925
 Alpha  occ. eigenvalues --   -0.24662  -0.24568  -0.24166  -0.23941  -0.23076
 Alpha  occ. eigenvalues --   -0.21693  -0.17952
 Alpha virt. eigenvalues --   -0.05024  -0.03609  -0.01115  -0.00375   0.00496
 Alpha virt. eigenvalues --    0.00759   0.02902   0.04476   0.07030   0.07709
 Alpha virt. eigenvalues --    0.08300   0.08440   0.09287   0.10060   0.10146

 Mulliken charges:
               1
     1  C   -0.182972
     2  C   -0.194720
     3  C    0.345410
     4  C   -0.248725
     5  C    0.122053
     6  C    0.086721
     7  C   -0.169647
     8  C   -0.134530
     9  C   -0.124347
    10  C   -0.134907
    11  C   -0.169441
    12  C   -0.232726
    13  C    0.253027
    14  C    0.099571
    15  C   -0.158789
    16  C   -0.136056
    17  C   -0.123397
    18  C   -0.138176
    19  C   -0.175739
    20  N   -0.576740
    21  C    0.187734
    22  C   -0.189100
    23  C   -0.177966
    24  C    0.333289
    25  N   -0.482842
    26  C   -0.132662
    27  C   -0.073826
    28  O   -0.470850
    29  C   -0.045067
    30  C   -0.041015
    31  O   -0.480525
    32  C   -0.022024
    33  C   -0.041621
    34  O   -0.475585
    35  C   -0.052640
    36  C   -0.054324
    37  O   -0.476298
    38  C   -0.033418
    39  C   -0.215136
    40  C   -0.190051
    41  C   -0.209781
    42  H    0.155426
    43  H    0.118508
    44  H    0.132989
    45  H    0.134568
    46  H    0.133028
    47  H    0.132096
    48  H    0.132780
    49  H    0.135917
    50  H    0.141425
    51  H    0.153284
    52  H    0.128852
    53  H    0.127643
    54  H    0.127421
    55  H    0.125898
    56  H    0.126053
    57  H    0.127857
    58  H    0.161387
    59  H    0.142316
    60  H    0.166426
    61  H    0.143979
    62  H    0.149621
    63  H    0.154985
    64  H    0.141651
    65  H    0.126858
    66  H    0.141891
    67  H    0.120374
    68  H    0.136366
    69  H    0.147140
    70  H    0.131744
    71  H    0.148432
    72  H    0.152348
    73  H    0.153882
    74  H    0.122853
    75  H    0.161846
    76  H    0.187308
    77  H    0.147850
    78  H    0.133444
    79  H    0.131388
 Sum of Mulliken charges =  -0.00000

 Dipole moment (field-independent basis, Debye):
    X=              2.8685    Y=              3.6069    Z=             -0.1934  Tot=              4.6126
 Quadrupole moment (field-independent basis, Debye-Ang):
   XX=           -193.6394   YY=           -219.2239   ZZ=           -249.4941
   XY=              7.2905   XZ=            -14.2916   YZ=              2.6520

 Normal termination of Gaussian 16 at Sat Nov  5 09:53:03 2022.
