 Gaussian 16, Revision B.01,
 Gaussian 16:  ES64L-G16RevB.01 20-Dec-2017

 -----------------------------
 #p b3lyp/6-31g(d) opt SCF=XQC
 -----------------------------

 ------------------------------
 Gaussian input prepared by ASE
 ------------------------------
 Symbolic Z-matrix:
 Charge =  0 Multiplicity = 1

 SCF Done:  E(RB3LYP) =  -1741.48965517     A.U. after   14 cycles
 SCF Done:  E(RB3LYP) =  -1741.49658433     A.U. after   13 cycles
 SCF Done:  E(RB3LYP) =  -1741.49843432     A.U. after   12 cycles
 SCF Done:  E(RB3LYP) =  -1741.50037013     A.U. after   12 cycles
 SCF Done:  E(RB3LYP) =  -1741.50074113     A.U. after   12 cycles
 SCF Done:  E(RB3LYP) =  -1741.50122691     A.U. after   11 cycles
 SCF Done:  E(RB3LYP) =  -1741.50146202     A.U. after   12 cycles
 SCF Done:  E(RB3LYP) =  -1741.50155665     A.U. after   11 cycles
 SCF Done:  E(RB3LYP) =  -1741.50162905     A.U. after   11 cycles
 SCF Done:  E(RB3LYP) =  -1741.50169378     A.U. after   11 cycles
 SCF Done:  E(RB3LYP) =  -1741.50186760     A.U. after   11 cycles
 SCF Done:  E(RB3LYP) =  -1741.50187370     A.U. after   10 cycles
 SCF Done:  E(RB3LYP) =  -1741.50187984     A.U. after   10 cycles
 SCF Done:  E(RB3LYP) =  -1741.50188146     A.U. after    9 cycles
 SCF Done:  E(RB3LYP) =  -1741.50188234     A.U. after    9 cycles
 SCF Done:  E(RB3LYP) =  -1741.50188251     A.U. after    7 cycles
 SCF Done:  E(RB3LYP) =  -1741.50188264     A.U. after    7 cycles
 SCF Done:  E(RB3LYP) =  -1741.50188270     A.U. after    7 cycles
 SCF Done:  E(RB3LYP) =  -1741.50188269     A.U. after    7 cycles
 SCF Done:  E(RB3LYP) =  -1741.50188266     A.U. after    7 cycles
 Optimization completed.
    -- Stationary point found.

                         Standard orientation:
 ---------------------------------------------------------------------
 Center     Atomic      Atomic             Coordinates (Angstroms)
 Number     Number       Type             X           Y           Z
 ---------------------------------------------------------------------
      1          6           0        1.272937   -3.912787    2.097200
      2          6           0        0.757077   -3.049745    0.980840
      3          6           0        0.495174   -1.739378    1.081551
      4          6           0       -0.000941   -0.827048   -0.015637
      5         14           0       -1.636349    0.024715    0.536783
      6          6           0       -1.472367    0.649424    2.317419
      7          6           0       -2.122141    1.484784   -0.574280
      8          6           0       -2.724444    1.270777   -1.829123
      9          6           0       -3.071315    2.334714   -2.662717
     10          6           0       -2.829599    3.648609   -2.255671
     11          6           0       -2.244835    3.888625   -1.011272
     12          6           0       -1.897852    2.817965   -0.183341
     13          6           0       -3.074491   -1.213088    0.442263
     14          6           0       -2.897176   -2.600844    0.297876
     15          6           0       -3.986808   -3.474167    0.256375
     16          6           0       -5.286415   -2.978667    0.362987
     17          6           0       -5.489893   -1.604921    0.509365
     18          6           0       -4.397385   -0.738139    0.544986
     19         14           0        1.441479    0.296739   -0.633409
     20          6           0        0.976611    1.218814   -2.219639
     21          6           0        2.911191   -0.820687   -1.079490
     22          6           0        4.227436   -0.536725   -0.675252
     23          6           0        5.302097   -1.334843   -1.076269
     24          6           0        5.084400   -2.441226   -1.896953
     25          6           0        3.786765   -2.742538   -2.316629
     26          6           0        2.719836   -1.940718   -1.911445
     27          6           0        1.969963    1.527810    0.707872
     28          6           0        1.769806    2.911327    0.543600
     29          6           0        2.135352    3.825258    1.535022
     30          6           0        2.715204    3.375142    2.721547
     31          6           0        2.930816    2.008148    2.908052
     32          6           0        2.563726    1.100597    1.913095
     33          1           0        0.588794   -4.745417    2.312003
     34          1           0        2.242067   -4.361098    1.838772
     35          1           0        1.402963   -3.338553    3.021256
     36          1           0        0.601575   -3.548727    0.022421
     37          1           0        0.673472   -1.263377    2.047281
     38          1           0       -0.258126   -1.437596   -0.896950
     39          1           0       -1.351450   -0.189416    3.011370
     40          1           0       -2.375909    1.193538    2.615959
     41          1           0       -0.613850    1.317797    2.447340
     42          1           0       -2.937464    0.255927   -2.157969
     43          1           0       -3.533850    2.139801   -3.627170
     44          1           0       -3.101135    4.479704   -2.901675
     45          1           0       -2.062657    4.909052   -0.682737
     46          1           0       -1.441080    3.029758    0.780156
     47          1           0       -1.894617   -3.011660    0.230109
     48          1           0       -3.818986   -4.542484    0.142287
     49          1           0       -6.135443   -3.657014    0.331622
     50          1           0       -6.499195   -1.208710    0.590699
     51          1           0       -4.581248    0.329908    0.642084
     52          1           0        1.857744    1.738337   -2.614860
     53          1           0        0.173843    1.948174   -2.085816
     54          1           0        0.650471    0.506004   -2.986609
     55          1           0        4.421193    0.320803   -0.036259
     56          1           0        6.309130   -1.090682   -0.746622
     57          1           0        5.918679   -3.064101   -2.209814
     58          1           0        3.607146   -3.601554   -2.958684
     59          1           0        1.718808   -2.197708   -2.253908
     60          1           0        1.318908    3.286344   -0.371312
     61          1           0        1.969730    4.888431    1.378694
     62          1           0        3.001088    4.084086    3.494420
     63          1           0        3.387502    1.648996    3.827016
     64          1           0        2.753683    0.042261    2.075665
 ---------------------------------------------------------------------

 The electronic state is 1-A.
 Alpha  occ. eigenvalues --  -66.12331 -66.12289 -10.19162 -10.19014 -10.18993
 Alpha  occ. eigenvalues --  -10.18953 -10.18931 -10.18896 -10.18807 -10.18748
 Alpha  occ. eigenvalues --  -10.18743 -10.18691 -10.18519 -10.18513 -10.18487
 Alpha  occ. eigenvalues --  -10.18359 -10.18328 -10.18260 -10.18259 -10.18243
 Alpha  occ. eigenvalues --  -10.18182 -10.18170 -10.18157 -10.17659 -10.17629
 Alpha  occ. eigenvalues --  -10.17584 -10.17325 -10.16993 -10.16993 -10.16735
 Alpha  occ. eigenvalues --  -10.15585 -10.15421  -5.26647  -5.26595  -3.62554
 Alpha  occ. eigenvalues --   -3.62523  -3.62506  -3.62497  -3.62483  -3.62452
 Alpha  occ. eigenvalues --   -0.84704  -0.84520  -0.84028  -0.83982  -0.78968
 Alpha  occ. eigenvalues --   -0.74493  -0.74185  -0.74132  -0.73925  -0.73526
 Alpha  occ. eigenvalues --   -0.73439  -0.73094  -0.73005  -0.71564  -0.68267
 Alpha  occ. eigenvalues --   -0.68068  -0.63002  -0.60034  -0.59909  -0.59664
 Alpha  occ. eigenvalues --   -0.59485  -0.59240  -0.59014  -0.58631  -0.58528
 Alpha  occ. eigenvalues --   -0.54449  -0.52413  -0.51954  -0.50715  -0.50658
 Alpha  occ. eigenvalues --   -0.47212  -0.46911  -0.44720  -0.44637  -0.44414
 Alpha  occ. eigenvalues --   -0.44150  -0.43942  -0.43764  -0.43661  -0.43488
 Alpha  occ. eigenvalues --   -0.43429  -0.41813  -0.41589  -0.41550  -0.41156
 Alpha  occ. eigenvalues --   -0.41083  -0.40408  -0.40132  -0.39810  -0.39177
 Alpha  occ. eigenvalues --   -0.38824  -0.37920  -0.37717  -0.37288  -0.36911
 Alpha  occ. eigenvalues --   -0.36554  -0.35927  -0.35678  -0.35472  -0.35290
 Alpha  occ. eigenvalues --   -0.34191  -0.33739  -0.33626  -0.33309  -0.33138
 Alpha  occ. eigenvalues --   -0.32025  -0.31214  -0.29675  -0.29347  -0.28389
 Alpha  occ. eigenvalues --   -0.28134  -0.25105  -0.24963  -0.24842  -0.24574
 Alpha  occ. eigenvalues --   -0.24258  -0.24197  -0.23944  -0.23823  -0.21550
 Alpha virt. eigenvalues --   -0.01487  -0.01083  -0.00791  -0.00418  -0.00369
 Alpha virt. eigenvalues --    0.00155   0.00732   0.00958   0.02862   0.07537
 Alpha virt. eigenvalues --    0.08030   0.09106   0.09336   0.09711   0.10335

 Mulliken charges:
               1
     1  C   -0.487460
     2  C   -0.082930
     3  C   -0.116720
     4  C   -0.575594
     5  Si   0.666326
     6  C   -0.684687
     7  C   -0.071740
     8  C   -0.176370
     9  C   -0.122490
    10  C   -0.133231
    11  C   -0.124778
    12  C   -0.186073
    13  C   -0.055398
    14  C   -0.182253
    15  C   -0.122640
    16  C   -0.133823
    17  C   -0.123772
    18  C   -0.177475
    19  Si   0.669003
    20  C   -0.679636
    21  C   -0.037173
    22  C   -0.189358
    23  C   -0.119990
    24  C   -0.133949
    25  C   -0.124513
    26  C   -0.174737
    27  C   -0.067422
    28  C   -0.185725
    29  C   -0.123377
    30  C   -0.132513
    31  C   -0.125876
    32  C   -0.183470
    33  H    0.151190
    34  H    0.157049
    35  H    0.147947
    36  H    0.113771
    37  H    0.129434
    38  H    0.157918
    39  H    0.168107
    40  H    0.165031
    41  H    0.176693
    42  H    0.138267
    43  H    0.129407
    44  H    0.130238
    45  H    0.127622
    46  H    0.137193
    47  H    0.135154
    48  H    0.124618
    49  H    0.127411
    50  H    0.126456
    51  H    0.136455
    52  H    0.167408
    53  H    0.186134
    54  H    0.162387
    55  H    0.136327
    56  H    0.126171
    57  H    0.127239
    58  H    0.125021
    59  H    0.119089
    60  H    0.138449
    61  H    0.128645
    62  H    0.131058
    63  H    0.130139
    64  H    0.141815
 Sum of Mulliken charges =  -0.00000

 Dipole moment (field-independent basis, Debye):
    X=              0.0883    Y=              0.3601    Z=              0.0495  Tot=              0.3741
 Quadrupole moment (field-independent basis, Debye-Ang):
   XX=           -198.0492   YY=           -186.9536   ZZ=           -197.8736
   XY=             -1.5329   XZ=              6.6990   YZ=              3.8696

 Normal termination of Gaussian 16 at Fri Nov  4 23:31:23 2022.
