 Gaussian 16, Revision B.01,
 Gaussian 16:  ES64L-G16RevB.01 20-Dec-2017

 -------------------------------------------------------------------
 #p b3lyp/6-31g(d) 6D 10F nosymm GFInput td=(50-50,nstate=2) SCF=XQC
 -------------------------------------------------------------------

 ------------------------------
 Gaussian input prepared by ASE
 ------------------------------
 Symbolic Z-matrix:
 Charge =  0 Multiplicity = 1

                          Input orientation:
 ---------------------------------------------------------------------
 Center     Atomic      Atomic             Coordinates (Angstroms)
 Number     Number       Type             X           Y           Z
 ---------------------------------------------------------------------
      1          6           0       -6.774863    1.242325   -0.937875
      2          6           0       -5.302969    1.108867   -0.628072
      3          6           0       -4.860937    0.672427    0.620803
      4          6           0       -3.504621    0.520607    0.928237
      5          6           0       -3.151049    0.082037    2.334583
      6          6           0       -2.530155    0.787872   -0.071163
      7          6           0       -1.093258    0.595426    0.205983
      8         15           0       -0.098748    1.260512    1.429172
      9          6           0        1.229269    0.036202    0.815190
     10          6           0        2.695310    0.387253    0.772877
     11          6           0        3.608518   -0.394235    1.525016
     12          6           0        3.162794   -1.559317    2.386877
     13          6           0        4.973510   -0.089527    1.501012
     14          6           0        5.483708    0.973625    0.756509
     15          6           0        6.965201    1.265380    0.714992
     16          6           0        4.573074    1.748971    0.036664
     17          6           0        3.200000    1.485249    0.031668
     18          6           0        2.307963    2.412811   -0.764983
     19         15           0        0.194519   -0.296369   -0.751509
     20          6           0       -0.250273   -2.158010   -0.795471
     21          6           0        1.049983   -2.903516   -1.153995
     22          6           0       -1.273572   -2.331589   -1.936431
     23          6           0       -0.840713   -2.712562    0.509026
     24          6           0       -2.967141    1.252170   -1.342642
     25          6           0       -1.996912    1.640576   -2.437110
     26          6           0       -4.332746    1.407759   -1.587618
     27          1           0       -7.157511    0.347906   -1.448079
     28          1           0       -6.970367    2.096402   -1.595803
     29          1           0       -7.366349    1.374577   -0.025852
     30          1           0       -5.595195    0.448997    1.392342
     31          1           0       -4.035956   -0.320642    2.837874
     32          1           0       -2.784427    0.919349    2.939489
     33          1           0       -2.370392   -0.683866    2.353658
     34          1           0        1.086446   -0.837036    1.451748
     35          1           0        2.448093   -1.253624    3.161457
     36          1           0        4.021747   -2.005524    2.896985
     37          1           0        2.684612   -2.356892    1.803681
     38          1           0        5.656263   -0.702565    2.086416
     39          1           0        7.472694    0.891803    1.610817
     40          1           0        7.442362    0.788635   -0.152097
     41          1           0        7.160548    2.340818    0.639049
     42          1           0        4.939883    2.595634   -0.540833
     43          1           0        1.618223    2.969377   -0.119507
     44          1           0        1.701321    1.870354   -1.497694
     45          1           0        2.909513    3.147841   -1.308720
     46          1           0        1.481377   -2.536600   -2.092364
     47          1           0        1.811646   -2.799942   -0.372551
     48          1           0        0.844930   -3.975651   -1.276396
     49          1           0       -2.205072   -1.791643   -1.732403
     50          1           0       -0.874455   -1.976583   -2.893546
     51          1           0       -1.525511   -3.394548   -2.053895
     52          1           0       -1.034915   -3.789306    0.404628
     53          1           0       -0.161885   -2.589617    1.360706
     54          1           0       -1.790069   -2.227838    0.756094
     55          1           0       -1.524361    0.769365   -2.904259
     56          1           0       -1.185722    2.270420   -2.056892
     57          1           0       -2.516725    2.194960   -3.224894
     58          1           0       -4.646633    1.780496   -2.560901
 ---------------------------------------------------------------------

 SCF Done:  E(RB3LYP) =  -1616.53277265     A.U. after   16 cycles

 Excitation energies and oscillator strengths:

 Excited state symmetry could not be determined.
 Excited State   1:      Triplet-?Sym    2.0722 eV  598.33 nm  f=0.0000  <S**2>=2.000
      97 ->104        -0.18846
     102 ->104         0.65944
     103 ->104        -0.11157
     102 <-104         0.12348
 This state for optimization and/or second-order correction.
 Total Energy, E(TD-HF/TD-DFT) =  -1616.45662230
 Copying the excited state density for this state as the 1-particle RhoCI density.

 Excited state symmetry could not be determined.
 Excited State   2:      Triplet-?Sym    2.4829 eV  499.35 nm  f=0.0000  <S**2>=2.000
      98 ->104         0.12256
     101 ->104        -0.16585
     102 ->104         0.12969
     103 ->104         0.65420

 Excited state symmetry could not be determined.
 Excited State   3:      Singlet-?Sym    2.9862 eV  415.20 nm  f=0.0367  <S**2>=0.000
     103 ->104         0.69679

 Excited state symmetry could not be determined.
 Excited State   4:      Singlet-?Sym    3.6002 eV  344.39 nm  f=0.0879  <S**2>=0.000
     101 ->104         0.60885
     102 ->104        -0.32970

 Alpha  occ. eigenvalues --  -77.08336 -77.07391 -10.20660 -10.20465 -10.19740
 Alpha  occ. eigenvalues --  -10.19646 -10.19614 -10.19559 -10.19227 -10.18966
 Alpha  occ. eigenvalues --  -10.18875 -10.18755 -10.18542 -10.18268 -10.18194
 Alpha  occ. eigenvalues --  -10.18036 -10.17901 -10.17866 -10.17822 -10.17798
 Alpha  occ. eigenvalues --  -10.17792 -10.17703 -10.17572 -10.17295 -10.17177
 Alpha  occ. eigenvalues --  -10.16992  -6.54978  -6.54295  -4.71232  -4.71217
 Alpha  occ. eigenvalues --   -4.70760  -4.70486  -4.70441  -4.70163  -0.85957
 Alpha  occ. eigenvalues --   -0.85339  -0.81677  -0.79452  -0.78260  -0.77639
 Alpha  occ. eigenvalues --   -0.77244  -0.75545  -0.70796  -0.69626  -0.69399
 Alpha  occ. eigenvalues --   -0.68852  -0.68702  -0.67541  -0.67244  -0.66892
 Alpha  occ. eigenvalues --   -0.62374  -0.59770  -0.57292  -0.56948  -0.56581
 Alpha  occ. eigenvalues --   -0.54792  -0.52784  -0.51190  -0.48471  -0.47740
 Alpha  occ. eigenvalues --   -0.46433  -0.45546  -0.44090  -0.43963  -0.43490
 Alpha  occ. eigenvalues --   -0.42524  -0.42280  -0.42131  -0.41760  -0.41058
 Alpha  occ. eigenvalues --   -0.40975  -0.40866  -0.40480  -0.40163  -0.39951
 Alpha  occ. eigenvalues --   -0.39668  -0.39589  -0.39298  -0.39207  -0.38920
 Alpha  occ. eigenvalues --   -0.38677  -0.38084  -0.36858  -0.36335  -0.36055
 Alpha  occ. eigenvalues --   -0.35868  -0.35809  -0.34479  -0.33705  -0.33552
 Alpha  occ. eigenvalues --   -0.33196  -0.33099  -0.32979  -0.32463  -0.31755
 Alpha  occ. eigenvalues --   -0.30464  -0.27550  -0.26120  -0.23333  -0.22848
 Alpha  occ. eigenvalues --   -0.21967  -0.21009  -0.20101
 Alpha virt. eigenvalues --   -0.06033  -0.00677   0.00367   0.00947   0.01311
 Alpha virt. eigenvalues --    0.01475   0.06201   0.06667   0.08624   0.09876
 Alpha virt. eigenvalues --    0.10380   0.10822   0.11567   0.11703   0.12009

 Mulliken charges:
               1
     1  C   -0.532608
     2  C    0.210294
     3  C   -0.258623
     4  C    0.150156
     5  C   -0.539831
     6  C    0.042055
     7  C   -0.406175
     8  P    0.225016
     9  C   -0.619266
    10  C    0.097565
    11  C    0.135723
    12  C   -0.557728
    13  C   -0.251448
    14  C    0.205489
    15  C   -0.532040
    16  C   -0.251391
    17  C    0.138424
    18  C   -0.564193
    19  P    0.465273
    20  C   -0.088194
    21  C   -0.466950
    22  C   -0.465533
    23  C   -0.454797
    24  C    0.152088
    25  C   -0.539478
    26  C   -0.257546
    27  H    0.164744
    28  H    0.158204
    29  H    0.156500
    30  H    0.114129
    31  H    0.149363
    32  H    0.177419
    33  H    0.164156
    34  H    0.195000
    35  H    0.163621
    36  H    0.157737
    37  H    0.162735
    38  H    0.109637
    39  H    0.154050
    40  H    0.163072
    41  H    0.156265
    42  H    0.110853
    43  H    0.176172
    44  H    0.193306
    45  H    0.149152
    46  H    0.160271
    47  H    0.157891
    48  H    0.144845
    49  H    0.163645
    50  H    0.154795
    51  H    0.143286
    52  H    0.141375
    53  H    0.144972
    54  H    0.163934
    55  H    0.175438
    56  H    0.172504
    57  H    0.150092
    58  H    0.114558
 Sum of Mulliken charges =  -0.00000

 Dipole moment (field-independent basis, Debye):
    X=             -0.6965    Y=             -1.6991    Z=             -0.4750  Tot=              1.8967
 Quadrupole moment (field-independent basis, Debye-Ang):
   XX=           -158.8350   YY=           -170.7437   ZZ=           -170.8154
   XY=             -0.3796   XZ=              2.2567   YZ=             -5.5627

 Normal termination of Gaussian 16 at Sat Nov  5 09:59:52 2022.
