 Gaussian 16, Revision B.01,
 Gaussian 16:  ES64L-G16RevB.01 20-Dec-2017

 -----------------------------
 #p b3lyp/6-31g(d) opt SCF=XQC
 -----------------------------

 ------------------------------
 Gaussian input prepared by ASE
 ------------------------------
 Symbolic Z-matrix:
 Charge =  0 Multiplicity = 1

 SCF Done:  E(RB3LYP) =  -1616.52155953     A.U. after   16 cycles
 SCF Done:  E(RB3LYP) =  -1616.52924045     A.U. after   13 cycles
 SCF Done:  E(RB3LYP) =  -1616.53161258     A.U. after   13 cycles
 SCF Done:  E(RB3LYP) =  -1616.53241070     A.U. after   12 cycles
 SCF Done:  E(RB3LYP) =  -1616.53255208     A.U. after   12 cycles
 SCF Done:  E(RB3LYP) =  -1616.53266889     A.U. after   11 cycles
 SCF Done:  E(RB3LYP) =  -1616.53268507     A.U. after   11 cycles
 SCF Done:  E(RB3LYP) =  -1616.53270276     A.U. after   10 cycles
 SCF Done:  E(RB3LYP) =  -1616.53270640     A.U. after    8 cycles
 SCF Done:  E(RB3LYP) =  -1616.53270930     A.U. after    9 cycles
 SCF Done:  E(RB3LYP) =  -1616.53276212     A.U. after   10 cycles
 SCF Done:  E(RB3LYP) =  -1616.53276544     A.U. after   10 cycles
 SCF Done:  E(RB3LYP) =  -1616.53276073     A.U. after   10 cycles
 SCF Done:  E(RB3LYP) =  -1616.53276958     A.U. after   10 cycles
 SCF Done:  E(RB3LYP) =  -1616.53277140     A.U. after    9 cycles
 SCF Done:  E(RB3LYP) =  -1616.53277382     A.U. after   10 cycles
 SCF Done:  E(RB3LYP) =  -1616.53277436     A.U. after    7 cycles
 SCF Done:  E(RB3LYP) =  -1616.53277298     A.U. after   10 cycles
 SCF Done:  E(RB3LYP) =  -1616.53277452     A.U. after   10 cycles
 SCF Done:  E(RB3LYP) =  -1616.53277453     A.U. after    6 cycles
 Optimization completed.
    -- Stationary point found.

                         Standard orientation:
 ---------------------------------------------------------------------
 Center     Atomic      Atomic             Coordinates (Angstroms)
 Number     Number       Type             X           Y           Z
 ---------------------------------------------------------------------
      1          6           0        6.887205   -0.893595    0.084129
      2          6           0        5.383461   -0.781509    0.164445
      3          6           0        4.756125   -0.217652    1.275335
      4          6           0        3.366666   -0.083150    1.367373
      5          6           0        2.804003    0.504903    2.645172
      6          6           0        2.553026   -0.504482    0.280963
      7          6           0        1.087370   -0.336379    0.326892
      8         15           0       -0.059264   -0.889909    1.469878
      9          6           0       -1.310278    0.200662    0.529051
     10          6           0       -2.746928   -0.209469    0.323785
     11          6           0       -3.775850    0.619643    0.837866
     12          6           0       -3.484529    1.895010    1.604327
     13          6           0       -5.116177    0.261579    0.659151
     14          6           0       -5.490439   -0.901249   -0.013634
     15          6           0       -6.943755   -1.253051   -0.227579
     16          6           0       -4.468868   -1.720541   -0.497109
     17          6           0       -3.115474   -1.406265   -0.340709
     18          6           0       -2.097935   -2.386404   -0.883565
     19         15           0       -0.067025    0.385135   -0.904877
     20          6           0        0.339595    2.244286   -1.113922
     21          6           0       -0.910705    2.891125   -1.741087
     22          6           0        1.513302    2.320999   -2.111714
     23          6           0        0.723051    2.971928    0.182750
     24          6           0        3.179237   -1.098851   -0.849423
     25          6           0        2.386134   -1.651477   -2.013749
     26          6           0        4.568927   -1.229335   -0.878332
     27          1           0        7.320478   -0.051765   -0.472926
     28          1           0        7.194060   -1.811377   -0.429732
     29          1           0        7.343161   -0.893855    1.079738
     30          1           0        5.366053    0.123886    2.109402
     31          1           0        3.597954    0.998351    3.214964
     32          1           0        2.371660   -0.268426    3.290506
     33          1           0        2.012630    1.236845    2.459736
     34          1           0       -1.279762    1.148034    1.067292
     35          1           0       -2.883089    1.711153    2.503597
     36          1           0       -4.417594    2.364885    1.929473
     37          1           0       -2.944119    2.635806    1.000936
     38          1           0       -5.889396    0.912731    1.062633
     39          1           0       -7.583412   -0.795928    0.534975
     40          1           0       -7.300475   -0.901231   -1.205223
     41          1           0       -7.103047   -2.336668   -0.197678
     42          1           0       -4.730076   -2.643227   -1.012192
     43          1           0       -1.497146   -2.835439   -0.083836
     44          1           0       -1.403361   -1.911472   -1.584384
     45          1           0       -2.598627   -3.203424   -1.412307
     46          1           0       -1.193820    2.399192   -2.678697
     47          1           0       -1.775054    2.851420   -1.068157
     48          1           0       -0.713035    3.948345   -1.964058
     49          1           0        2.416782    1.845526   -1.713579
     50          1           0        1.264575    1.839912   -3.064648
     51          1           0        1.756834    3.371515   -2.322093
     52          1           0        0.907282    4.035433   -0.024633
     53          1           0       -0.069107    2.924532    0.938740
     54          1           0        1.636788    2.557037    0.618902
     55          1           0        1.967672   -0.860711   -2.646298
     56          1           0        1.542094   -2.262799   -1.677328
     57          1           0        3.026203   -2.274722   -2.646228
     58          1           0        5.028252   -1.702302   -1.744391
 ---------------------------------------------------------------------

 The electronic state is 1-A.
 Alpha  occ. eigenvalues --  -77.08336 -77.07391 -10.20660 -10.20465 -10.19740
 Alpha  occ. eigenvalues --  -10.19646 -10.19614 -10.19559 -10.19227 -10.18966
 Alpha  occ. eigenvalues --  -10.18875 -10.18755 -10.18542 -10.18268 -10.18194
 Alpha  occ. eigenvalues --  -10.18036 -10.17901 -10.17866 -10.17822 -10.17798
 Alpha  occ. eigenvalues --  -10.17792 -10.17703 -10.17572 -10.17295 -10.17178
 Alpha  occ. eigenvalues --  -10.16992  -6.54978  -6.54295  -4.71232  -4.71217
 Alpha  occ. eigenvalues --   -4.70759  -4.70486  -4.70441  -4.70163  -0.85956
 Alpha  occ. eigenvalues --   -0.85339  -0.81677  -0.79452  -0.78260  -0.77639
 Alpha  occ. eigenvalues --   -0.77244  -0.75545  -0.70796  -0.69626  -0.69399
 Alpha  occ. eigenvalues --   -0.68852  -0.68702  -0.67541  -0.67244  -0.66892
 Alpha  occ. eigenvalues --   -0.62374  -0.59770  -0.57292  -0.56948  -0.56581
 Alpha  occ. eigenvalues --   -0.54792  -0.52784  -0.51190  -0.48472  -0.47740
 Alpha  occ. eigenvalues --   -0.46433  -0.45546  -0.44090  -0.43963  -0.43490
 Alpha  occ. eigenvalues --   -0.42524  -0.42280  -0.42131  -0.41760  -0.41058
 Alpha  occ. eigenvalues --   -0.40975  -0.40866  -0.40480  -0.40163  -0.39951
 Alpha  occ. eigenvalues --   -0.39668  -0.39589  -0.39298  -0.39207  -0.38920
 Alpha  occ. eigenvalues --   -0.38677  -0.38084  -0.36858  -0.36335  -0.36055
 Alpha  occ. eigenvalues --   -0.35868  -0.35809  -0.34479  -0.33705  -0.33552
 Alpha  occ. eigenvalues --   -0.33196  -0.33099  -0.32979  -0.32463  -0.31755
 Alpha  occ. eigenvalues --   -0.30464  -0.27550  -0.26120  -0.23333  -0.22849
 Alpha  occ. eigenvalues --   -0.21967  -0.21009  -0.20101
 Alpha virt. eigenvalues --   -0.06033  -0.00677   0.00367   0.00947   0.01311
 Alpha virt. eigenvalues --    0.01475   0.06201   0.06667   0.08625   0.09876
 Alpha virt. eigenvalues --    0.10380   0.10822   0.11567   0.11703   0.12010

 Mulliken charges:
               1
     1  C   -0.532609
     2  C    0.210289
     3  C   -0.258620
     4  C    0.150158
     5  C   -0.539829
     6  C    0.042047
     7  C   -0.406171
     8  P    0.225022
     9  C   -0.619258
    10  C    0.097560
    11  C    0.135719
    12  C   -0.557726
    13  C   -0.251451
    14  C    0.205489
    15  C   -0.532040
    16  C   -0.251390
    17  C    0.138422
    18  C   -0.564199
    19  P    0.465273
    20  C   -0.088192
    21  C   -0.466965
    22  C   -0.465535
    23  C   -0.454784
    24  C    0.152088
    25  C   -0.539477
    26  C   -0.257542
    27  H    0.164744
    28  H    0.158204
    29  H    0.156500
    30  H    0.114129
    31  H    0.149362
    32  H    0.177418
    33  H    0.164155
    34  H    0.194995
    35  H    0.163622
    36  H    0.157736
    37  H    0.162736
    38  H    0.109637
    39  H    0.154050
    40  H    0.163072
    41  H    0.156265
    42  H    0.110853
    43  H    0.176174
    44  H    0.193309
    45  H    0.149153
    46  H    0.160274
    47  H    0.157892
    48  H    0.144847
    49  H    0.163645
    50  H    0.154797
    51  H    0.143286
    52  H    0.141373
    53  H    0.144968
    54  H    0.163933
    55  H    0.175439
    56  H    0.172504
    57  H    0.150091
    58  H    0.114557
 Sum of Mulliken charges =  -0.00000

 Dipole moment (field-independent basis, Debye):
    X=              0.7214    Y=              1.6566    Z=             -0.5769  Tot=              1.8967
 Quadrupole moment (field-independent basis, Debye-Ang):
   XX=           -158.3618   YY=           -168.8473   ZZ=           -172.4114
   XY=             -0.8057   XZ=             -0.5330   YZ=              4.9442

 1\1\GINC-NODE88\FOpt\RB3LYP\6-31G(d)\C24H32P2\WYKGROUP\05-Nov-2022\0\\
 #p b3lyp/6-31g(d) opt SCF=XQC\\Gaussian input prepared by ASE\\0,1\C,-
 6.7748627589,1.2423245631,-0.9378751796\C,-5.3029686816,1.1088671506,-
 0.6280722105\C,-4.8609368716,0.6724270326,0.6208032565\C,-3.5046214959
 ,0.5206072611,0.9282374219\C,-3.1510492263,0.0820367815,2.3345830549\C
 ,-2.5301545931,0.7878724467,-0.0711628017\C,-1.0932584624,0.5954259128
 ,0.2059834782\P,-0.0987480902,1.2605122517,1.4291722567\C,1.2292688677
 ,0.0362018531,0.8151903377\C,2.6953096798,0.3872529197,0.7728765183\C,

 Normal termination of Gaussian 16 at Sat Nov  5 00:20:06 2022.
