 Gaussian 16, Revision B.01,
 Gaussian 16:  ES64L-G16RevB.01 20-Dec-2017

 -------------------------------------------------------------------
 #p b3lyp/6-31g(d) 6D 10F nosymm GFInput td=(50-50,nstate=2) SCF=XQC
 -------------------------------------------------------------------

 ------------------------------
 Gaussian input prepared by ASE
 ------------------------------
 Symbolic Z-matrix:
 Charge =  0 Multiplicity = 1

                          Input orientation:
 ---------------------------------------------------------------------
 Center     Atomic      Atomic             Coordinates (Angstroms)
 Number     Number       Type             X           Y           Z
 ---------------------------------------------------------------------
      1          6           0        1.049018   -0.771439   -4.329903
      2          6           0        0.522833    0.005696   -3.156701
      3          6           0        0.393411   -0.475510   -1.912721
      4          6           0       -0.106977    0.271990   -0.698985
      5         14           0       -1.603316   -0.663617    0.069673
      6          6           0       -1.231518   -2.518801    0.158398
      7          6           0       -2.043703   -0.050889    1.811189
      8          6           0       -2.767548    1.142670    1.997372
      9          6           0       -3.083424    1.612846    3.272644
     10          6           0       -2.686921    0.891784    4.401045
     11          6           0       -1.978942   -0.300752    4.243851
     12          6           0       -1.664062   -0.763671    2.963719
     13          6           0       -3.153146   -0.390465   -0.994637
     14          6           0       -3.118541    0.144503   -2.294932
     15          6           0       -4.284242    0.305097   -3.047969
     16          6           0       -5.518393   -0.071189   -2.517738
     17          6           0       -5.580087   -0.607053   -1.229697
     18          6           0       -4.412640   -0.759935   -0.481465
     19         14           0        1.376081    0.711448    0.455368
     20          6           0        0.866120    1.927276    1.813363
     21          6           0        2.692356    1.599936   -0.586597
     22          6           0        4.058827    1.277279   -0.514518
     23          6           0        5.016709    1.993350   -1.237297
     24          6           0        4.628249    3.056010   -2.052680
     25          6           0        3.277318    3.400149   -2.138275
     26          6           0        2.327803    2.679916   -1.413627
     27          6           0        2.128607   -0.849626    1.223884
     28          6           0        2.044768   -1.090747    2.608081
     29          6           0        2.576485   -2.248405    3.181593
     30          6           0        3.210504   -3.198207    2.379988
     31          6           0        3.313098   -2.981187    1.004371
     32          6           0        2.780142   -1.822052    0.438061
     33          1           0        0.311104   -0.823507   -5.142453
     34          1           0        1.946832   -0.298287   -4.750661
     35          1           0        1.309785   -1.797448   -4.047349
     36          1           0        0.240876    1.041340   -3.355884
     37          1           0        0.696466   -1.509441   -1.739095
     38          1           0       -0.493643    1.253375   -1.019920
     39          1           0       -1.130711   -2.940982   -0.847308
     40          1           0       -2.051954   -3.049359    0.655356
     41          1           0       -0.306654   -2.732930    0.705599
     42          1           0       -3.101141    1.710605    1.131576
     43          1           0       -3.642208    2.538524    3.386572
     44          1           0       -2.933803    1.254067    5.395817
     45          1           0       -1.675454   -0.873218    5.117106
     46          1           0       -1.109507   -1.693650    2.866605
     47          1           0       -2.167906    0.428719   -2.735387
     48          1           0       -4.226778    0.723093   -4.050197
     49          1           0       -6.426412    0.052433   -3.102723
     50          1           0       -6.537619   -0.900988   -0.806584
     51          1           0       -4.487483   -1.163332    0.526318
     52          1           0        1.755037    2.258253    2.363617
     53          1           0        0.148912    1.514591    2.527237
     54          1           0        0.411235    2.819772    1.367003
     55          1           0        4.384984    0.453549    0.115002
     56          1           0        6.066398    1.719684   -1.162089
     57          1           0        5.371433    3.614278   -2.616496
     58          1           0        2.964787    4.228730   -2.769295
     59          1           0        1.281791    2.969974   -1.497928
     60          1           0        1.554730   -0.366382    3.253193
     61          1           0        2.497790   -2.406188    4.254494
     62          1           0        3.625595   -4.099613    2.823643
     63          1           0        3.810696   -3.713125    0.372937
     64          1           0        2.883958   -1.668943   -0.633558
 ---------------------------------------------------------------------

 SCF Done:  E(RB3LYP) =  -1741.50188606     A.U. after   14 cycles

 Excitation energies and oscillator strengths:

 Excited state symmetry could not be determined.
 Excited State   1:      Triplet-?Sym    3.6886 eV  336.13 nm  f=0.0000  <S**2>=2.000
     112 ->124        -0.10654
     112 ->126         0.12814
     113 ->121         0.15846
     113 ->122        -0.15680
     113 ->123         0.19061
     114 ->122         0.12361
     114 ->123        -0.16380
     115 ->122        -0.13555
     115 ->124        -0.15647
     115 ->126         0.17000
     115 ->128         0.13755
     117 ->128         0.10233
     119 ->121         0.11666
     119 ->122        -0.17152
     119 ->124         0.11351
     119 ->128        -0.10562
     120 ->121        -0.10057
     120 ->122         0.20692
     120 ->129         0.14137
 This state for optimization and/or second-order correction.
 Total Energy, E(TD-HF/TD-DFT) =  -1741.36633173
 Copying the excited state density for this state as the 1-particle RhoCI density.

 Excited state symmetry could not be determined.
 Excited State   2:      Triplet-?Sym    3.6949 eV  335.56 nm  f=0.0000  <S**2>=2.000
     112 ->126        -0.14121
     113 ->121        -0.16434
     113 ->124        -0.10929
     114 ->121        -0.10643
     114 ->122        -0.21348
     115 ->124         0.15398
     116 ->123        -0.10336
     116 ->127         0.10373
     116 ->128         0.13919
     117 ->126        -0.10820
     117 ->128         0.11889
     118 ->123        -0.13464
     118 ->125         0.10738
     119 ->123        -0.21648
     119 ->125        -0.15787
     120 ->123         0.13209
     120 ->129         0.10856

 Excited state symmetry could not be determined.
 Excited State   3:      Singlet-?Sym    4.8474 eV  255.77 nm  f=0.0284  <S**2>=0.000
     120 ->121         0.69508

 Excited state symmetry could not be determined.
 Excited State   4:      Singlet-?Sym    5.0005 eV  247.94 nm  f=0.0414  <S**2>=0.000
     120 ->122         0.52925
     120 ->123         0.44487

 Alpha  occ. eigenvalues --  -66.12331 -66.12289 -10.19162 -10.19014 -10.18993
 Alpha  occ. eigenvalues --  -10.18953 -10.18931 -10.18896 -10.18807 -10.18747
 Alpha  occ. eigenvalues --  -10.18743 -10.18691 -10.18519 -10.18513 -10.18487
 Alpha  occ. eigenvalues --  -10.18359 -10.18328 -10.18260 -10.18259 -10.18243
 Alpha  occ. eigenvalues --  -10.18182 -10.18170 -10.18157 -10.17659 -10.17629
 Alpha  occ. eigenvalues --  -10.17584 -10.17325 -10.16993 -10.16993 -10.16736
 Alpha  occ. eigenvalues --  -10.15585 -10.15421  -5.26647  -5.26595  -3.62554
 Alpha  occ. eigenvalues --   -3.62523  -3.62506  -3.62497  -3.62482  -3.62452
 Alpha  occ. eigenvalues --   -0.84704  -0.84520  -0.84028  -0.83982  -0.78968
 Alpha  occ. eigenvalues --   -0.74493  -0.74185  -0.74132  -0.73925  -0.73527
 Alpha  occ. eigenvalues --   -0.73439  -0.73094  -0.73005  -0.71564  -0.68267
 Alpha  occ. eigenvalues --   -0.68068  -0.63002  -0.60034  -0.59909  -0.59664
 Alpha  occ. eigenvalues --   -0.59485  -0.59240  -0.59014  -0.58631  -0.58528
 Alpha  occ. eigenvalues --   -0.54449  -0.52413  -0.51954  -0.50715  -0.50658
 Alpha  occ. eigenvalues --   -0.47212  -0.46911  -0.44720  -0.44637  -0.44414
 Alpha  occ. eigenvalues --   -0.44150  -0.43942  -0.43764  -0.43661  -0.43488
 Alpha  occ. eigenvalues --   -0.43429  -0.41813  -0.41589  -0.41550  -0.41156
 Alpha  occ. eigenvalues --   -0.41083  -0.40408  -0.40132  -0.39810  -0.39177
 Alpha  occ. eigenvalues --   -0.38824  -0.37920  -0.37717  -0.37288  -0.36911
 Alpha  occ. eigenvalues --   -0.36554  -0.35927  -0.35678  -0.35472  -0.35290
 Alpha  occ. eigenvalues --   -0.34191  -0.33739  -0.33626  -0.33309  -0.33138
 Alpha  occ. eigenvalues --   -0.32025  -0.31214  -0.29675  -0.29347  -0.28389
 Alpha  occ. eigenvalues --   -0.28134  -0.25105  -0.24963  -0.24842  -0.24574
 Alpha  occ. eigenvalues --   -0.24258  -0.24197  -0.23944  -0.23823  -0.21550
 Alpha virt. eigenvalues --   -0.01487  -0.01083  -0.00791  -0.00418  -0.00370
 Alpha virt. eigenvalues --    0.00155   0.00732   0.00958   0.02861   0.07537
 Alpha virt. eigenvalues --    0.08029   0.09107   0.09336   0.09711   0.10335

 Mulliken charges:
               1
     1  C   -0.487461
     2  C   -0.082927
     3  C   -0.116702
     4  C   -0.575588
     5  Si   0.666305
     6  C   -0.684679
     7  C   -0.071736
     8  C   -0.176365
     9  C   -0.122497
    10  C   -0.133233
    11  C   -0.124775
    12  C   -0.186082
    13  C   -0.055399
    14  C   -0.182245
    15  C   -0.122649
    16  C   -0.133812
    17  C   -0.123776
    18  C   -0.177477
    19  Si   0.668955
    20  C   -0.679654
    21  C   -0.037136
    22  C   -0.189362
    23  C   -0.119983
    24  C   -0.133950
    25  C   -0.124520
    26  C   -0.174741
    27  C   -0.067436
    28  C   -0.185720
    29  C   -0.123372
    30  C   -0.132515
    31  C   -0.125874
    32  C   -0.183447
    33  H    0.151189
    34  H    0.157048
    35  H    0.147948
    36  H    0.113771
    37  H    0.129435
    38  H    0.157924
    39  H    0.168104
    40  H    0.165029
    41  H    0.176695
    42  H    0.138267
    43  H    0.129407
    44  H    0.130237
    45  H    0.127620
    46  H    0.137194
    47  H    0.135152
    48  H    0.124618
    49  H    0.127409
    50  H    0.126456
    51  H    0.136456
    52  H    0.167411
    53  H    0.186134
    54  H    0.162388
    55  H    0.136327
    56  H    0.126171
    57  H    0.127240
    58  H    0.125022
    59  H    0.119088
    60  H    0.138450
    61  H    0.128646
    62  H    0.131059
    63  H    0.130139
    64  H    0.141820
 Sum of Mulliken charges =  -0.00000

 Dipole moment (field-independent basis, Debye):
    X=              0.1255    Y=             -0.1359    Z=              0.3252  Tot=              0.3742
 Quadrupole moment (field-independent basis, Debye-Ang):
   XX=           -197.0533   YY=           -196.3441   ZZ=           -189.4367
   XY=             -6.6160   XZ=             -2.1460   YZ=             -6.0615

 Normal termination of Gaussian 16 at Sat Nov  5 10:07:06 2022.
