 Gaussian 16, Revision B.01,
 Gaussian 16:  ES64L-G16RevB.01 20-Dec-2017

 -----------------------------
 #p b3lyp/6-31g(d) opt SCF=XQC
 -----------------------------

 ------------------------------
 Gaussian input prepared by ASE
 ------------------------------
 Symbolic Z-matrix:
 Charge =  0 Multiplicity = 1

 SCF Done:  E(RB3LYP) =  -1266.35879925     A.U. after   16 cycles
 SCF Done:  E(RB3LYP) =  -1266.36539363     A.U. after   12 cycles
 SCF Done:  E(RB3LYP) =  -1266.36590470     A.U. after   11 cycles
 SCF Done:  E(RB3LYP) =  -1266.36602901     A.U. after   11 cycles
 SCF Done:  E(RB3LYP) =  -1266.36606197     A.U. after   10 cycles
 SCF Done:  E(RB3LYP) =  -1266.36607532     A.U. after    9 cycles
 SCF Done:  E(RB3LYP) =  -1266.36609034     A.U. after    9 cycles
 SCF Done:  E(RB3LYP) =  -1266.36610254     A.U. after   10 cycles
 SCF Done:  E(RB3LYP) =  -1266.36610752     A.U. after    9 cycles
 SCF Done:  E(RB3LYP) =  -1266.36611624     A.U. after    9 cycles
 SCF Done:  E(RB3LYP) =  -1266.36615048     A.U. after    9 cycles
 SCF Done:  E(RB3LYP) =  -1266.36615315     A.U. after    9 cycles
 SCF Done:  E(RB3LYP) =  -1266.36615808     A.U. after    9 cycles
 SCF Done:  E(RB3LYP) =  -1266.36615948     A.U. after    9 cycles
 SCF Done:  E(RB3LYP) =  -1266.36616035     A.U. after    9 cycles
 SCF Done:  E(RB3LYP) =  -1266.36616084     A.U. after    9 cycles
 SCF Done:  E(RB3LYP) =  -1266.36616147     A.U. after    9 cycles
 SCF Done:  E(RB3LYP) =  -1266.36616176     A.U. after    9 cycles
 SCF Done:  E(RB3LYP) =  -1266.36616195     A.U. after    7 cycles
 SCF Done:  E(RB3LYP) =  -1266.36616198     A.U. after    7 cycles
 Optimization completed on the basis of negligible forces.
    -- Stationary point found.

                         Standard orientation:
 ---------------------------------------------------------------------
 Center     Atomic      Atomic             Coordinates (Angstroms)
 Number     Number       Type             X           Y           Z
 ---------------------------------------------------------------------
      1          6           0        6.878573    1.057167    1.573018
      2          7           0        7.116047    0.029036    0.570933
      3          6           0        8.511103   -0.252222    0.263690
      4          6           0        6.137295   -0.592768   -0.180177
      5          8           0        6.420323   -1.458888   -1.010936
      6          6           0        4.724376   -0.174678    0.044790
      7          6           0        3.737255   -0.819582   -0.604348
      8          6           0        2.299246   -0.556902   -0.541568
      9          6           0        1.432936   -1.341181   -1.325681
     10          6           0        0.056791   -1.140597   -1.307464
     11          6           0       -0.514818   -0.144137   -0.504301
     12          6           0       -2.041874    0.090954   -0.517621
     13          6           0       -2.816542   -1.205987   -0.326783
     14          6           0       -3.292955   -1.958966   -1.404135
     15          6           0       -3.961317   -3.163820   -1.198891
     16          6           0       -4.171356   -3.620256    0.105917
     17          8           0       -4.833857   -4.806522    0.259863
     18          6           0       -3.725462   -2.860039    1.192830
     19          6           0       -3.047469   -1.660196    0.978033
     20          6           0       -2.595126   -0.748108    2.087763
     21          6           0       -2.996607    0.693451    1.748157
     22          7           0       -2.469626    1.111617    0.450732
     23          6           0       -2.631817    2.438894    0.046925
     24          6           0       -1.997268    2.938552   -1.113612
     25          6           0       -2.165101    4.263645   -1.506268
     26          6           0       -2.951830    5.143606   -0.761267
     27          6           0       -3.568593    4.666444    0.394591
     28          6           0       -3.418140    3.340747    0.798101
     29          6           0        0.342480    0.643589    0.276073
     30          6           0        1.719110    0.441491    0.260973
     31          1           0        7.704414    1.040230    2.291389
     32          1           0        6.829382    2.067934    1.140856
     33          1           0        5.961143    0.867389    2.132882
     34          1           0        8.542022   -1.021446   -0.506181
     35          1           0        9.020809    0.650616   -0.101136
     36          1           0        9.037872   -0.607285    1.158905
     37          1           0        4.504590    0.659084    0.701600
     38          1           0        4.048807   -1.632197   -1.258668
     39          1           0        1.852857   -2.121813   -1.955523
     40          1           0       -0.579301   -1.776535   -1.916414
     41          1           0       -2.301036    0.468519   -1.513853
     42          1           0       -3.146968   -1.600217   -2.420616
     43          1           0       -4.333675   -3.753301   -2.030392
     44          1           0       -4.910091   -5.005035    1.206052
     45          1           0       -3.914673   -3.201548    2.210078
     46          1           0       -3.047304   -1.028798    3.045111
     47          1           0       -1.505352   -0.804455    2.213686
     48          1           0       -4.097109    0.761813    1.767882
     49          1           0       -2.617655    1.374339    2.521378
     50          1           0       -1.339337    2.301622   -1.693878
     51          1           0       -1.658914    4.611620   -2.403451
     52          1           0       -3.074954    6.177125   -1.071038
     53          1           0       -4.187047    5.329234    0.995187
     54          1           0       -3.931380    3.007758    1.692184
     55          1           0       -0.079822    1.427527    0.895801
     56          1           0        2.348715    1.071921    0.882615
 ---------------------------------------------------------------------

 The electronic state is 1-A.
 Alpha  occ. eigenvalues --  -19.18406 -19.09396 -14.35793 -14.34963 -10.27491
 Alpha  occ. eigenvalues --  -10.25516 -10.23803 -10.22546 -10.22415 -10.22370
 Alpha  occ. eigenvalues --  -10.20601 -10.20354 -10.20098 -10.20048 -10.19998
 Alpha  occ. eigenvalues --  -10.19749 -10.19684 -10.19534 -10.19445 -10.19371
 Alpha  occ. eigenvalues --  -10.19289 -10.19037 -10.18965 -10.18923 -10.18765
 Alpha  occ. eigenvalues --  -10.18099 -10.18067 -10.17631 -10.17602 -10.17148
 Alpha  occ. eigenvalues --   -1.06422  -1.01546  -0.95180  -0.92215  -0.86651
 Alpha  occ. eigenvalues --   -0.85962  -0.83395  -0.80463  -0.79202  -0.77390
 Alpha  occ. eigenvalues --   -0.74887  -0.74476  -0.73713  -0.73204  -0.72193
 Alpha  occ. eigenvalues --   -0.71704  -0.69199  -0.67135  -0.64325  -0.62897
 Alpha  occ. eigenvalues --   -0.61761  -0.60778  -0.58946  -0.58831  -0.57156
 Alpha  occ. eigenvalues --   -0.55476  -0.54225  -0.53188  -0.52980  -0.51557
 Alpha  occ. eigenvalues --   -0.50141  -0.49654  -0.48320  -0.47644  -0.46996
 Alpha  occ. eigenvalues --   -0.46578  -0.46231  -0.45566  -0.45078  -0.44471
 Alpha  occ. eigenvalues --   -0.43511  -0.42833  -0.42406  -0.42248  -0.41987
 Alpha  occ. eigenvalues --   -0.41406  -0.40882  -0.40568  -0.40218  -0.39995
 Alpha  occ. eigenvalues --   -0.39721  -0.39431  -0.39208  -0.38228  -0.38094
 Alpha  occ. eigenvalues --   -0.37797  -0.36750  -0.36494  -0.35631  -0.35271
 Alpha  occ. eigenvalues --   -0.34953  -0.34562  -0.33834  -0.33655  -0.32699
 Alpha  occ. eigenvalues --   -0.32563  -0.29093  -0.27789  -0.25394  -0.25283
 Alpha  occ. eigenvalues --   -0.24038  -0.23954  -0.22981  -0.22584  -0.21837
 Alpha  occ. eigenvalues --   -0.18878
 Alpha virt. eigenvalues --   -0.05397  -0.00952  -0.00406   0.00399   0.00972
 Alpha virt. eigenvalues --    0.02498   0.03166   0.06268   0.08588   0.08860
 Alpha virt. eigenvalues --    0.09548   0.10011   0.10477   0.10821   0.11557

 Mulliken charges:
               1
     1  C   -0.312901
     2  N   -0.435975
     3  C   -0.324333
     4  C    0.605557
     5  O   -0.540965
     6  C   -0.222709
     7  C   -0.155535
     8  C    0.175048
     9  C   -0.195889
    10  C   -0.179126
    11  C    0.162467
    12  C   -0.144115
    13  C    0.127005
    14  C   -0.201962
    15  C   -0.163306
    16  C    0.364927
    17  O   -0.643631
    18  C   -0.271787
    19  C    0.138584
    20  C   -0.380132
    21  C   -0.118827
    22  N   -0.514856
    23  C    0.344207
    24  C   -0.183268
    25  C   -0.141012
    26  C   -0.134915
    27  C   -0.139207
    28  C   -0.193320
    29  C   -0.184075
    30  C   -0.179053
    31  H    0.161802
    32  H    0.157467
    33  H    0.168808
    34  H    0.208400
    35  H    0.149119
    36  H    0.148530
    37  H    0.129019
    38  H    0.169004
    39  H    0.139281
    40  H    0.135409
    41  H    0.162936
    42  H    0.132779
    43  H    0.142512
    44  H    0.408725
    45  H    0.115821
    46  H    0.149395
    47  H    0.172820
    48  H    0.143607
    49  H    0.148438
    50  H    0.134574
    51  H    0.124934
    52  H    0.119242
    53  H    0.122673
    54  H    0.123986
    55  H    0.146531
    56  H    0.127292
 Sum of Mulliken charges =  -0.00000

 Dipole moment (field-independent basis, Debye):
    X=             -1.2377    Y=              0.8874    Z=              4.1926  Tot=              4.4606
 Quadrupole moment (field-independent basis, Debye-Ang):
   XX=           -171.5445   YY=           -175.8362   ZZ=           -162.7600
   XY=             21.6114   XZ=              5.4475   YZ=             -5.3257

 Normal termination of Gaussian 16 at Fri Nov  4 23:12:37 2022.
