 Gaussian 16, Revision B.01,
 Gaussian 16:  ES64L-G16RevB.01 20-Dec-2017

 -------------------------------------------------------------------
 #p b3lyp/6-31g(d) 6D 10F nosymm GFInput td=(50-50,nstate=2) SCF=XQC
 -------------------------------------------------------------------

 ------------------------------
 Gaussian input prepared by ASE
 ------------------------------
 Symbolic Z-matrix:
 Charge =  0 Multiplicity = 1

                          Input orientation:
 ---------------------------------------------------------------------
 Center     Atomic      Atomic             Coordinates (Angstroms)
 Number     Number       Type             X           Y           Z
 ---------------------------------------------------------------------
      1          6           0        6.751305   -1.202700   -0.596406
      2          7           0        6.929336    0.007575    0.191731
      3          6           0        8.300569    0.337797    0.552787
      4          6           0        5.906813    0.775718    0.714383
      5          8           0        6.140565    1.792053    1.372299
      6          6           0        4.507875    0.328533    0.459927
      7          6           0        3.485917    1.098437    0.877705
      8          6           0        2.052247    0.836740    0.747643
      9          6           0        1.142790    1.770023    1.278954
     10          6           0       -0.231469    1.577880    1.184969
     11          6           0       -0.758020    0.441287    0.555969
     12          6           0       -2.286025    0.222700    0.486933
     13          6           0       -3.012320    1.457447   -0.029287
     14          6           0       -3.558095    2.417942    0.827575
     15          6           0       -4.179409    3.558994    0.325106
     16          6           0       -4.271046    3.739566   -1.058357
     17          8           0       -4.891162    4.872903   -1.506508
     18          6           0       -3.755061    2.770203   -1.925667
     19          6           0       -3.124818    1.635958   -1.414082
     20          6           0       -2.604035    0.513236   -2.272160
     21          6           0       -3.065151   -0.825807   -1.681444
     22          7           0       -2.656239   -0.972258   -0.286014
     23          6           0       -2.881574   -2.187668    0.364397
     24          6           0       -2.356125   -2.442549    1.652068
     25          6           0       -2.586116   -3.658073    2.290679
     26          6           0       -3.329093   -4.667485    1.676372
     27          6           0       -3.837723   -4.433764    0.399361
     28          6           0       -3.624144   -3.219774   -0.251438
     29          6           0        0.142071   -0.494551    0.028239
     30          6           0        1.517104   -0.301568    0.118917
     31          1           0        7.633504   -1.338078   -1.230247
     32          1           0        6.643523   -2.103160    0.026802
     33          1           0        5.887552   -1.126401   -1.259167
     34          1           0        8.285896    1.248266    1.149607
     35          1           0        8.757663   -0.474039    1.135884
     36          1           0        8.907095    0.498845   -0.347853
     37          1           0        4.323600   -0.620851   -0.029542
     38          1           0        3.761342    2.026083    1.376860
     39          1           0        1.527461    2.660727    1.769969
     40          1           0       -0.900584    2.328754    1.595241
     41          1           0       -2.634730    0.058790    1.513449
     42          1           0       -3.504355    2.274267    1.904477
     43          1           0       -4.605093    4.308486    0.984340
     44          1           0       -4.884864    4.873747   -2.476277
     45          1           0       -3.852201    2.897096   -3.003481
     46          1           0       -2.969502    0.594389   -3.301536
     47          1           0       -1.506593    0.536316   -2.313742
     48          1           0       -4.161600   -0.890431   -1.780383
     49          1           0       -2.639788   -1.652860   -2.264656
     50          1           0       -1.733552   -1.704023    2.144251
     51          1           0       -2.163446   -3.817720    3.279675
     52          1           0       -3.501015   -5.614869    2.178553
     53          1           0       -4.419890   -5.201994   -0.104024
     54          1           0       -4.054441   -3.074118   -1.234957
     55          1           0       -0.245879   -1.386405   -0.452440
     56          1           0        2.180924   -1.049614   -0.305408
 ---------------------------------------------------------------------

 SCF Done:  E(RB3LYP) =  -1266.36615360     A.U. after   16 cycles

 Excitation energies and oscillator strengths:

 Excited state symmetry could not be determined.
 Excited State   1:      Triplet-?Sym    2.5762 eV  481.28 nm  f=0.0000  <S**2>=2.000
      97 ->113         0.10290
      99 ->109        -0.10061
     103 ->107         0.12053
     104 ->107        -0.37948
     105 ->107         0.54166
 This state for optimization and/or second-order correction.
 Total Energy, E(TD-HF/TD-DFT) =  -1266.27148154
 Copying the excited state density for this state as the 1-particle RhoCI density.

 Excited state symmetry could not be determined.
 Excited State   2:      Triplet-?Sym    3.1433 eV  394.44 nm  f=0.0000  <S**2>=2.000
     106 ->107         0.69593

 Excited state symmetry could not be determined.
 Excited State   3:      Singlet-?Sym    3.1693 eV  391.21 nm  f=0.0074  <S**2>=0.000
     106 ->107         0.70458

 Excited state symmetry could not be determined.
 Excited State   4:      Singlet-?Sym    3.9679 eV  312.47 nm  f=0.0347  <S**2>=0.000
     101 ->107         0.21739
     102 ->107         0.61928
     102 ->113         0.10161
     105 ->107         0.20309

 Alpha  occ. eigenvalues --  -19.18406 -19.09396 -14.35793 -14.34963 -10.27491
 Alpha  occ. eigenvalues --  -10.25516 -10.23803 -10.22546 -10.22415 -10.22370
 Alpha  occ. eigenvalues --  -10.20601 -10.20354 -10.20098 -10.20048 -10.19998
 Alpha  occ. eigenvalues --  -10.19749 -10.19684 -10.19534 -10.19445 -10.19371
 Alpha  occ. eigenvalues --  -10.19289 -10.19037 -10.18965 -10.18923 -10.18765
 Alpha  occ. eigenvalues --  -10.18099 -10.18067 -10.17631 -10.17602 -10.17148
 Alpha  occ. eigenvalues --   -1.06422  -1.01547  -0.95180  -0.92215  -0.86651
 Alpha  occ. eigenvalues --   -0.85962  -0.83395  -0.80463  -0.79202  -0.77390
 Alpha  occ. eigenvalues --   -0.74887  -0.74476  -0.73713  -0.73204  -0.72193
 Alpha  occ. eigenvalues --   -0.71704  -0.69199  -0.67135  -0.64325  -0.62897
 Alpha  occ. eigenvalues --   -0.61761  -0.60778  -0.58946  -0.58831  -0.57156
 Alpha  occ. eigenvalues --   -0.55476  -0.54225  -0.53188  -0.52980  -0.51557
 Alpha  occ. eigenvalues --   -0.50141  -0.49654  -0.48320  -0.47644  -0.46996
 Alpha  occ. eigenvalues --   -0.46578  -0.46231  -0.45566  -0.45078  -0.44471
 Alpha  occ. eigenvalues --   -0.43511  -0.42833  -0.42406  -0.42248  -0.41987
 Alpha  occ. eigenvalues --   -0.41406  -0.40882  -0.40568  -0.40218  -0.39995
 Alpha  occ. eigenvalues --   -0.39721  -0.39431  -0.39208  -0.38228  -0.38094
 Alpha  occ. eigenvalues --   -0.37797  -0.36750  -0.36494  -0.35631  -0.35271
 Alpha  occ. eigenvalues --   -0.34953  -0.34562  -0.33834  -0.33655  -0.32699
 Alpha  occ. eigenvalues --   -0.32563  -0.29093  -0.27789  -0.25394  -0.25283
 Alpha  occ. eigenvalues --   -0.24038  -0.23954  -0.22981  -0.22584  -0.21837
 Alpha  occ. eigenvalues --   -0.18878
 Alpha virt. eigenvalues --   -0.05397  -0.00952  -0.00406   0.00399   0.00972
 Alpha virt. eigenvalues --    0.02498   0.03167   0.06268   0.08588   0.08861
 Alpha virt. eigenvalues --    0.09548   0.10011   0.10477   0.10821   0.11557

 Mulliken charges:
               1
     1  C   -0.312902
     2  N   -0.435963
     3  C   -0.324337
     4  C    0.605541
     5  O   -0.540961
     6  C   -0.222705
     7  C   -0.155535
     8  C    0.175049
     9  C   -0.195890
    10  C   -0.179116
    11  C    0.162453
    12  C   -0.144084
    13  C    0.127000
    14  C   -0.201956
    15  C   -0.163312
    16  C    0.364925
    17  O   -0.643631
    18  C   -0.271784
    19  C    0.138590
    20  C   -0.380138
    21  C   -0.118833
    22  N   -0.514867
    23  C    0.344209
    24  C   -0.183267
    25  C   -0.141014
    26  C   -0.134918
    27  C   -0.139206
    28  C   -0.193315
    29  C   -0.184082
    30  C   -0.179053
    31  H    0.161803
    32  H    0.157466
    33  H    0.168808
    34  H    0.208401
    35  H    0.149119
    36  H    0.148530
    37  H    0.129018
    38  H    0.169003
    39  H    0.139281
    40  H    0.135408
    41  H    0.162935
    42  H    0.132777
    43  H    0.142512
    44  H    0.408725
    45  H    0.115820
    46  H    0.149395
    47  H    0.172820
    48  H    0.143608
    49  H    0.148439
    50  H    0.134572
    51  H    0.124934
    52  H    0.119242
    53  H    0.122673
    54  H    0.123986
    55  H    0.146532
    56  H    0.127293
 Sum of Mulliken charges =  -0.00000

 Dipole moment (field-independent basis, Debye):
    X=             -0.9094    Y=             -1.7206    Z=             -4.0136  Tot=              4.4606
 Quadrupole moment (field-independent basis, Debye-Ang):
   XX=           -171.1922   YY=           -177.8346   ZZ=           -162.5069
   XY=            -21.8492   XZ=             -1.0979   YZ=             -5.1541

 Normal termination of Gaussian 16 at Sat Nov  5 09:51:57 2022.
