 Gaussian 16, Revision B.01,
 Gaussian 16:  ES64L-G16RevB.01 20-Dec-2017

 -----------------------------
 #p b3lyp/6-31g(d) opt SCF=XQC
 -----------------------------

 ------------------------------
 Gaussian input prepared by ASE
 ------------------------------
 Symbolic Z-matrix:
 Charge =  0 Multiplicity = 1

 SCF Done:  E(RB3LYP) =  -1681.66915406     A.U. after   15 cycles
 SCF Done:  E(RB3LYP) =  -1681.68053621     A.U. after   13 cycles
 SCF Done:  E(RB3LYP) =  -1681.67571213     A.U. after   13 cycles
 SCF Done:  E(RB3LYP) =  -1681.68485568     A.U. after   13 cycles
 SCF Done:  E(RB3LYP) =  -1681.68559545     A.U. after   13 cycles
 SCF Done:  E(RB3LYP) =  -1681.68559433     A.U. after   13 cycles
 SCF Done:  E(RB3LYP) =  -1681.69019984     A.U. after   12 cycles
 SCF Done:  E(RB3LYP) =  -1681.68287003     A.U. after   13 cycles
 SCF Done:  E(RB3LYP) =  -1681.69059490     A.U. after   12 cycles
 SCF Done:  E(RB3LYP) =  -1681.68882116     A.U. after   12 cycles
 SCF Done:  E(RB3LYP) =  -1681.69382321     A.U. after   11 cycles
 SCF Done:  E(RB3LYP) =  -1681.69388200     A.U. after   10 cycles
 SCF Done:  E(RB3LYP) =  -1681.69389634     A.U. after   10 cycles
 SCF Done:  E(RB3LYP) =  -1681.69390077     A.U. after   10 cycles
 SCF Done:  E(RB3LYP) =  -1681.69390168     A.U. after    8 cycles
 SCF Done:  E(RB3LYP) =  -1681.69390319     A.U. after    8 cycles
 SCF Done:  E(RB3LYP) =  -1681.69390383     A.U. after    7 cycles
 SCF Done:  E(RB3LYP) =  -1681.69390390     A.U. after    8 cycles
 SCF Done:  E(RB3LYP) =  -1681.69390438     A.U. after    7 cycles
 SCF Done:  E(RB3LYP) =  -1681.69390451     A.U. after    6 cycles
 Optimization completed.
    -- Stationary point found.

                         Standard orientation:
 ---------------------------------------------------------------------
 Center     Atomic      Atomic             Coordinates (Angstroms)
 Number     Number       Type             X           Y           Z
 ---------------------------------------------------------------------
      1          6           0       -3.198669    3.064779    2.406680
      2          6           0       -3.981925    2.201539    1.380553
      3          6           0       -4.873637    3.219657    0.626439
      4          6           0       -4.841611    1.249914    2.251891
      5          6           0       -2.997625    1.346078    0.501156
      6          6           0       -1.636537    1.648074    0.616018
      7          6           0       -0.659901    0.912439   -0.035206
      8          6           0       -0.911819   -0.354262   -0.567918
      9          6           0        0.263650   -0.892300   -1.531103
     10          6           0        0.041855   -2.302995   -2.082003
     11          6           0       -0.014209    0.039626   -2.751124
     12          6           0        1.662233   -0.601228   -0.790133
     13          6           0        1.978011   -1.289649    0.459417
     14          6           0        2.443343   -2.822345    0.451006
     15          6           0        3.722526   -2.917948    1.334447
     16          6           0        1.487564   -3.969051    0.865757
     17          6           0        2.997254   -3.199420   -0.948541
     18          6           0        2.261663   -0.428620    1.556166
     19          6           0        2.076641   -0.667945    3.104809
     20          6           0        3.406865   -0.516377    3.881209
     21          6           0        1.097221    0.435461    3.616260
     22          6           0        1.387527   -1.980033    3.534592
     23          6           0        2.602847    0.895375    1.251233
     24          6           0        2.822763    1.422085   -0.024384
     25          6           0        3.321072    2.924831    0.033517
     26          6           0        4.784000    2.991937    0.540328
     27          6           0        2.442719    3.704628    1.064947
     28          6           0        3.181234    3.787741   -1.240470
     29          6           0        2.424672    0.587241   -1.123827
     30          6           0        3.067149    0.709397   -2.574450
     31          6           0        3.113599   -0.645371   -3.336421
     32          6           0        2.484715    1.765035   -3.568204
     33          6           0        4.587618    0.972824   -2.353698
     34          6           0       -2.273513   -0.819917   -0.467786
     35          6           0       -2.661995   -2.315631   -0.073121
     36          6           0       -1.638260   -2.655103    1.040499
     37          6           0       -2.672451   -3.485857   -1.104402
     38          6           0       -4.024516   -2.377078    0.672853
     39          6           0       -3.309365    0.182127   -0.282474
     40          6           0       -4.558304    0.125625   -1.260608
     41          6           0       -4.500089   -1.034858   -2.285567
     42          6           0       -6.000278    0.121720   -0.699244
     43          6           0       -4.363697    1.387451   -2.160079
     44          1           0       -3.916632    3.520982    3.097490
     45          1           0       -2.499815    2.468384    3.001490
     46          1           0       -2.643391    3.882635    1.934970
     47          1           0       -5.422391    3.828988    1.355196
     48          1           0       -5.614138    2.769656   -0.033181
     49          1           0       -4.258379    3.900606    0.026754
     50          1           0       -5.536464    1.829867    2.872858
     51          1           0       -4.195868    0.673723    2.924897
     52          1           0       -5.426210    0.539062    1.671312
     53          1           0       -1.314606    2.526556    1.158614
     54          1           0        0.337332    1.323478   -0.080696
     55          1           0        0.133060   -3.089351   -1.339106
     56          1           0        0.757146   -2.512065   -2.882413
     57          1           0       -0.951247   -2.366998   -2.527511
     58          1           0        0.188117    1.085781   -2.525891
     59          1           0        0.541000   -0.248607   -3.643208
     60          1           0       -1.076313   -0.039487   -2.999783
     61          1           0        4.204797   -3.885902    1.150944
     62          1           0        4.436427   -2.131849    1.069848
     63          1           0        3.533113   -2.853257    2.401743
     64          1           0        0.960074   -3.787595    1.799051
     65          1           0        2.077602   -4.885321    0.992595
     66          1           0        0.741244   -4.185179    0.098290
     67          1           0        3.345454   -4.239488   -0.918870
     68          1           0        3.856713   -2.574246   -1.202349
     69          1           0        2.271384   -3.121481   -1.751322
     70          1           0        3.222008   -0.584542    4.960792
     71          1           0        3.877317    0.453069    3.687076
     72          1           0        4.132107   -1.291611    3.618168
     73          1           0        1.506749    1.445606    3.546058
     74          1           0        0.160125    0.415490    3.050342
     75          1           0        0.866625    0.255204    4.673132
     76          1           0        1.174589   -1.925863    4.608599
     77          1           0        0.431905   -2.108456    3.018646
     78          1           0        1.986218   -2.876798    3.384203
     79          1           0        2.806757    1.538607    2.090670
     80          1           0        4.890876    2.471340    1.497739
     81          1           0        5.085645    4.036534    0.690245
     82          1           0        5.492010    2.538366   -0.158742
     83          1           0        2.681140    4.772759    1.005134
     84          1           0        1.376132    3.585647    0.845215
     85          1           0        2.609220    3.407111    2.102610
     86          1           0        2.131311    3.881890   -1.535879
     87          1           0        3.746198    3.442062   -2.101754
     88          1           0        3.541944    4.797532   -1.012175
     89          1           0        3.753738   -1.366291   -2.826824
     90          1           0        2.148104   -1.115416   -3.497150
     91          1           0        3.552568   -0.462784   -4.325255
     92          1           0        1.846430    1.292809   -4.318686
     93          1           0        1.890619    2.537356   -3.083832
     94          1           0        3.295539    2.262654   -4.113816
     95          1           0        5.010032    0.230095   -1.668814
     96          1           0        5.107736    0.876894   -3.314889
     97          1           0        4.819079    1.955866   -1.957805
     98          1           0       -0.612935   -2.545106    0.698163
     99          1           0       -1.770834   -1.986885    1.898637
    100          1           0       -1.785854   -3.687093    1.384995
    101          1           0       -1.704856   -3.980339   -1.186296
    102          1           0       -2.976830   -3.182205   -2.106401
    103          1           0       -3.383471   -4.250696   -0.770658
    104          1           0       -4.075272   -3.332908    1.208634
    105          1           0       -4.119728   -1.576497    1.410220
    106          1           0       -4.891067   -2.344027    0.014013
    107          1           0       -5.206254   -0.812791   -3.094201
    108          1           0       -3.506495   -1.126934   -2.732747
    109          1           0       -4.787542   -2.002786   -1.877426
    110          1           0       -6.704186    0.058834   -1.538166
    111          1           0       -6.257104    1.018695   -0.139712
    112          1           0       -6.189530   -0.740166   -0.053855
    113          1           0       -3.421551    1.313984   -2.714352
    114          1           0       -5.180858    1.447207   -2.890805
    115          1           0       -4.338403    2.318136   -1.598861
 ---------------------------------------------------------------------

 The electronic state is 1-A.
 Alpha  occ. eigenvalues --  -10.21783 -10.20709 -10.20619 -10.20604 -10.20496
 Alpha  occ. eigenvalues --  -10.20385 -10.20230 -10.20118 -10.19875 -10.19241
 Alpha  occ. eigenvalues --  -10.19201 -10.19185 -10.19114 -10.18500 -10.18065
 Alpha  occ. eigenvalues --  -10.18031 -10.17978 -10.16934 -10.16908 -10.16847
 Alpha  occ. eigenvalues --  -10.16811 -10.16765 -10.16727 -10.16684 -10.16670
 Alpha  occ. eigenvalues --  -10.16642 -10.16640 -10.16632 -10.16626 -10.16597
 Alpha  occ. eigenvalues --  -10.16571 -10.16547 -10.16503 -10.16479 -10.16445
 Alpha  occ. eigenvalues --  -10.16393 -10.16372 -10.16361 -10.16337 -10.16312
 Alpha  occ. eigenvalues --  -10.16038 -10.15606 -10.15395  -0.85779  -0.84808
 Alpha  occ. eigenvalues --   -0.81858  -0.81761  -0.81055  -0.80382  -0.80005
 Alpha  occ. eigenvalues --   -0.79582  -0.78229  -0.77562  -0.71291  -0.71074
 Alpha  occ. eigenvalues --   -0.70953  -0.70802  -0.68764  -0.68588  -0.68547
 Alpha  occ. eigenvalues --   -0.68304  -0.68131  -0.68059  -0.67723  -0.67617
 Alpha  occ. eigenvalues --   -0.67538  -0.67419  -0.67305  -0.66812  -0.66626
 Alpha  occ. eigenvalues --   -0.66454  -0.66244  -0.61210  -0.60574  -0.59630
 Alpha  occ. eigenvalues --   -0.58671  -0.56467  -0.55287  -0.55240  -0.53565
 Alpha  occ. eigenvalues --   -0.53283  -0.52076  -0.50358  -0.49677  -0.48756
 Alpha  occ. eigenvalues --   -0.48341  -0.46455  -0.46043  -0.45656  -0.45471
 Alpha  occ. eigenvalues --   -0.45438  -0.45254  -0.44927  -0.44640  -0.44089
 Alpha  occ. eigenvalues --   -0.43838  -0.43606  -0.43498  -0.43278  -0.42885
 Alpha  occ. eigenvalues --   -0.42497  -0.42308  -0.42133  -0.42013  -0.41654
 Alpha  occ. eigenvalues --   -0.41509  -0.41364  -0.40895  -0.40338  -0.40057
 Alpha  occ. eigenvalues --   -0.39625  -0.39467  -0.39257  -0.38849  -0.38625
 Alpha  occ. eigenvalues --   -0.38468  -0.38380  -0.38140  -0.37739  -0.37361
 Alpha  occ. eigenvalues --   -0.37235  -0.37172  -0.36958  -0.36808  -0.36726
 Alpha  occ. eigenvalues --   -0.36491  -0.36257  -0.36036  -0.35876  -0.35850
 Alpha  occ. eigenvalues --   -0.35718  -0.35673  -0.35626  -0.35552  -0.35164
 Alpha  occ. eigenvalues --   -0.34997  -0.34535  -0.34118  -0.33594  -0.33432
 Alpha  occ. eigenvalues --   -0.33120  -0.32959  -0.32879  -0.32768  -0.32664
 Alpha  occ. eigenvalues --   -0.32391  -0.32126  -0.32061  -0.31740  -0.31310
 Alpha  occ. eigenvalues --   -0.31270  -0.31145  -0.31036  -0.30800  -0.30486
 Alpha  occ. eigenvalues --   -0.30237  -0.30113  -0.29206  -0.28886  -0.28797
 Alpha  occ. eigenvalues --   -0.27420  -0.20678  -0.19899  -0.19340  -0.18668
 Alpha virt. eigenvalues --   -0.03929  -0.02266  -0.00207   0.00847   0.06630
 Alpha virt. eigenvalues --    0.07455   0.08023   0.08841   0.08905   0.09373
 Alpha virt. eigenvalues --    0.09886   0.10205   0.10626   0.10996   0.11283

 Mulliken charges:
               1
     1  C   -0.456560
     2  C    0.036247
     3  C   -0.455845
     4  C   -0.456135
     5  C    0.091393
     6  C   -0.190749
     7  C   -0.165671
     8  C    0.066585
     9  C    0.016007
    10  C   -0.493863
    11  C   -0.467578
    12  C   -0.026120
    13  C   -0.008578
    14  C    0.061203
    15  C   -0.459794
    16  C   -0.468144
    17  C   -0.460099
    18  C    0.124729
    19  C    0.035539
    20  C   -0.445111
    21  C   -0.450132
    22  C   -0.478138
    23  C   -0.222113
    24  C    0.119437
    25  C    0.033093
    26  C   -0.443173
    27  C   -0.454286
    28  C   -0.464095
    29  C   -0.033927
    30  C    0.092799
    31  C   -0.474321
    32  C   -0.476601
    33  C   -0.466978
    34  C   -0.029577
    35  C    0.087445
    36  C   -0.477114
    37  C   -0.475660
    38  C   -0.475194
    39  C   -0.008043
    40  C    0.058962
    41  C   -0.465302
    42  C   -0.467650
    43  C   -0.456606
    44  H    0.137743
    45  H    0.151553
    46  H    0.144463
    47  H    0.135858
    48  H    0.156178
    49  H    0.146153
    50  H    0.131043
    51  H    0.144691
    52  H    0.161661
    53  H    0.121077
    54  H    0.146838
    55  H    0.155248
    56  H    0.156299
    57  H    0.156608
    58  H    0.168107
    59  H    0.140908
    60  H    0.156430
    61  H    0.134322
    62  H    0.151506
    63  H    0.152130
    64  H    0.160626
    65  H    0.134237
    66  H    0.151595
    67  H    0.131811
    68  H    0.150368
    69  H    0.155496
    70  H    0.134025
    71  H    0.142312
    72  H    0.148994
    73  H    0.140810
    74  H    0.164335
    75  H    0.131265
    76  H    0.134995
    77  H    0.164243
    78  H    0.151585
    79  H    0.106577
    80  H    0.144013
    81  H    0.133267
    82  H    0.151050
    83  H    0.135620
    84  H    0.155815
    85  H    0.145571
    86  H    0.146193
    87  H    0.156328
    88  H    0.135333
    89  H    0.150358
    90  H    0.148289
    91  H    0.135484
    92  H    0.147433
    93  H    0.158653
    94  H    0.138352
    95  H    0.147475
    96  H    0.135726
    97  H    0.153903
    98  H    0.181986
    99  H    0.152041
   100  H    0.132335
   101  H    0.146607
   102  H    0.154162
   103  H    0.138322
   104  H    0.135464
   105  H    0.157094
   106  H    0.147071
   107  H    0.136022
   108  H    0.152458
   109  H    0.151982
   110  H    0.135776
   111  H    0.156608
   112  H    0.152820
   113  H    0.151627
   114  H    0.131965
   115  H    0.164425
 Sum of Mulliken charges =  -0.00000

 Dipole moment (field-independent basis, Debye):
    X=             -0.2968    Y=             -0.1700    Z=             -0.3015  Tot=              0.4559
 Quadrupole moment (field-independent basis, Debye-Ang):
   XX=           -272.4662   YY=           -271.3632   ZZ=           -273.2306
   XY=              0.5896   XZ=             -0.0930   YZ=              0.9470

 Normal termination of Gaussian 16 at Sat Nov  5 03:27:01 2022.
