 Gaussian 16, Revision B.01,
 Gaussian 16:  ES64L-G16RevB.01 20-Dec-2017

 -------------------------------------------------------------------
 #p b3lyp/6-31g(d) 6D 10F nosymm GFInput td=(50-50,nstate=2) SCF=XQC
 -------------------------------------------------------------------

 ------------------------------
 Gaussian input prepared by ASE
 ------------------------------
 Symbolic Z-matrix:
 Charge =  0 Multiplicity = 1

                          Input orientation:
 ---------------------------------------------------------------------
 Center     Atomic      Atomic             Coordinates (Angstroms)
 Number     Number       Type             X           Y           Z
 ---------------------------------------------------------------------
      1          6           0        2.200622    0.601687    4.489907
      2          6           0        3.283991    0.368421    3.402014
      3          6           0        4.216036   -0.706583    4.015251
      4          6           0        4.012672    1.731789    3.283135
      5          6           0        2.622466    0.015834    2.019240
      6          6           0        1.247951   -0.243866    2.034049
      7          6           0        0.528879   -0.479286    0.873626
      8          6           0        1.025810   -0.152569   -0.390531
      9          6           0        0.165995   -0.779838   -1.601394
     10          6           0        0.652787   -0.389452   -2.999026
     11          6           0        0.620438   -2.263822   -1.441968
     12          6           0       -1.388114   -0.531421   -1.265493
     13          6           0       -1.911104    0.832152   -1.218988
     14          6           0       -2.201759    1.640639   -2.570887
     15          6           0       -3.633434    2.241372   -2.447015
     16          6           0       -1.254703    2.758708   -3.074349
     17          6           0       -2.376061    0.650221   -3.752591
     18          6           0       -2.527133    1.189891    0.012766
     19          6           0       -2.680753    2.604861    0.693990
     20          6           0       -4.162544    2.970800    0.950214
     21          6           0       -1.964571    2.517115    2.078814
     22          6           0       -1.978173    3.794459    0.006672
     23          6           0       -2.923091    0.140538    0.852068
     24          6           0       -2.895778   -1.222438    0.544601
     25          6           0       -3.545854   -2.101111    1.691442
     26          6           0       -5.085166   -1.922623    1.704817
     27          6           0       -3.014132   -1.596176    3.071929
     28          6           0       -3.205409   -3.607542    1.735863
     29          6           0       -2.171093   -1.582211   -0.642669
     30          6           0       -2.470655   -2.911275   -1.464773
     31          6           0       -2.200471   -2.759200   -2.988593
     32          6           0       -1.786436   -4.242610   -1.016959
     33          6           0       -4.019844   -3.084263   -1.458480
     34          6           0        2.368147    0.374870   -0.422304
     35          6           0        2.806832    1.601347   -1.342710
     36          6           0        1.594306    2.561682   -1.238023
     37          6           0        3.175222    1.437372   -2.849521
     38          6           0        3.959404    2.420460   -0.696685
     39          6           0        3.224596    0.088565    0.716093
     40          6           0        4.664496   -0.505803    0.410812
     41          6           0        4.963982   -0.679312   -1.099438
     42          6           0        5.930614    0.141455    1.021087
     43          6           0        4.553912   -1.981486    0.910069
     44          1           0        2.689017    0.994813    5.388647
     45          1           0        1.448553    1.331977    4.175338
     46          1           0        1.688045   -0.321424    4.781221
     47          1           0        4.516204   -0.392707    5.022666
     48          1           0        5.130981   -0.885219    3.452308
     49          1           0        3.689030   -1.662897    4.113154
     50          1           0        4.482090    1.994529    4.239890
     51          1           0        3.291875    2.520839    3.038656
     52          1           0        4.785366    1.745750    2.517050
     53          1           0        0.720927   -0.349749    2.972568
     54          1           0       -0.467803   -0.883073    0.968903
     55          1           0        0.474041    0.649705   -3.257431
     56          1           0        0.166841   -1.012321   -3.755266
     57          1           0        1.723045   -0.582195   -3.077899
     58          1           0        0.265109   -2.706716   -0.512618
     59          1           0        0.318675   -2.894453   -2.277668
     60          1           0        1.713604   -2.279455   -1.412003
     61          1           0       -3.958174    2.582816   -3.437546
     62          1           0       -4.344002    1.483113   -2.103858
     63          1           0       -3.703033    3.093362   -1.777348
     64          1           0       -0.978284    3.480117   -2.309253
     65          1           0       -1.760625    3.307556   -3.878460
     66          1           0       -0.333304    2.359750   -3.503959
     67          1           0       -2.612837    1.223202   -4.657851
     68          1           0       -3.213404   -0.026483   -3.565888
     69          1           0       -1.496548    0.051746   -3.966378
     70          1           0       -4.225720    3.908136    1.517425
     71          1           0       -4.672671    2.196876    1.533010
     72          1           0       -4.723850    3.105493    0.021265
     73          1           0       -2.448526    1.828282    2.774752
     74          1           0       -0.925253    2.194309    1.958703
     75          1           0       -1.966723    3.506237    2.552394
     76          1           0       -2.025476    4.661009    0.676464
     77          1           0       -0.921303    3.576595   -0.170719
     78          1           0       -2.430520    4.106593   -0.933110
     79          1           0       -3.380201    0.425122    1.784830
     80          1           0       -5.355897   -0.863925    1.775116
     81          1           0       -5.519060   -2.438722    2.570859
     82          1           0       -5.562297   -2.322625    0.805902
     83          1           0       -3.340889   -2.287153    3.857491
     84          1           0       -1.919200   -1.564992    3.086037
     85          1           0       -3.384013   -0.608012    3.354253
     86          1           0       -2.131065   -3.761746    1.878954
     87          1           0       -3.517807   -4.181666    0.867947
     88          1           0       -3.710953   -4.048091    2.603186
     89          1           0       -2.863262   -2.018891   -3.437864
     90          1           0       -1.180856   -2.492784   -3.250059
     91          1           0       -2.415871   -3.722122   -3.468391
     92          1           0       -0.947145   -4.495596   -1.669047
     93          1           0       -1.402782   -4.213808    0.000895
     94          1           0       -2.496284   -5.076127   -1.081135
     95          1           0       -4.510164   -2.160806   -1.783994
     96          1           0       -4.291492   -3.876206   -2.167456
     97          1           0       -4.436242   -3.356757   -0.494615
     98          1           0        0.669886    2.086108   -1.554032
     99          1           0        1.455885    2.891590   -0.202410
    100          1           0        1.763789    3.450425   -1.860016
    101          1           0        2.308755    1.526055   -3.504372
    102          1           0        3.669653    0.492795   -3.077920
    103          1           0        3.864866    2.239060   -3.138664
    104          1           0        3.983228    3.407675   -1.174269
    105          1           0        3.799079    2.571946    0.373387
    106          1           0        4.946446    1.982778   -0.839003
    107          1           0        5.810954   -1.367581   -1.203345
    108          1           0        4.115237   -1.119963   -1.629659
    109          1           0        5.247518    0.242789   -1.604837
    110          1           0        6.811699   -0.408617    0.668466
    111          1           0        5.957774    0.115205    2.108365
    112          1           0        6.053495    1.181961    0.708937
    113          1           0        3.777739   -2.512673    0.348241
    114          1           0        5.507003   -2.499165    0.740038
    115          1           0        4.304242   -2.062948    1.964966
 ---------------------------------------------------------------------

 SCF Done:  E(RB3LYP) =  -1681.69392385     A.U. after   15 cycles

 Excitation energies and oscillator strengths:

 Excited state symmetry could not be determined.
 Excited State   1:      Triplet-?Sym    1.5162 eV  817.75 nm  f=0.0000  <S**2>=2.000
     162 ->166        -0.12796
     163 ->168         0.14013
     164 ->168         0.14250
     165 ->166         0.66245
     165 ->167         0.13247
     165 <-166         0.19106
 This state for optimization and/or second-order correction.
 Total Energy, E(TD-HF/TD-DFT) =  -1681.63820570
 Copying the excited state density for this state as the 1-particle RhoCI density.

 Excited state symmetry could not be determined.
 Excited State   2:      Triplet-?Sym    2.1707 eV  571.17 nm  f=0.0000  <S**2>=2.000
     162 ->169        -0.19098
     163 ->166         0.13113
     163 ->167        -0.43798
     164 ->166        -0.15330
     164 ->167         0.46864
     163 <-167        -0.10204
     164 <-167         0.10293

 Excited state symmetry could not be determined.
 Excited State   3:      Singlet-?Sym    3.3201 eV  373.43 nm  f=0.0125  <S**2>=0.000
     162 ->166        -0.11427
     163 ->166         0.33400
     164 ->166         0.52499
     165 ->166         0.19694
     165 ->168        -0.22103

 Excited state symmetry could not be determined.
 Excited State   4:      Singlet-?Sym    3.4235 eV  362.16 nm  f=0.0306  <S**2>=0.000
     162 ->166         0.10285
     164 ->166        -0.16824
     165 ->166         0.66852

 Alpha  occ. eigenvalues --  -10.21783 -10.20709 -10.20619 -10.20604 -10.20496
 Alpha  occ. eigenvalues --  -10.20385 -10.20230 -10.20118 -10.19875 -10.19241
 Alpha  occ. eigenvalues --  -10.19202 -10.19185 -10.19114 -10.18500 -10.18065
 Alpha  occ. eigenvalues --  -10.18031 -10.17978 -10.16933 -10.16908 -10.16847
 Alpha  occ. eigenvalues --  -10.16811 -10.16765 -10.16727 -10.16684 -10.16670
 Alpha  occ. eigenvalues --  -10.16642 -10.16640 -10.16632 -10.16626 -10.16597
 Alpha  occ. eigenvalues --  -10.16571 -10.16547 -10.16503 -10.16479 -10.16445
 Alpha  occ. eigenvalues --  -10.16393 -10.16372 -10.16361 -10.16337 -10.16312
 Alpha  occ. eigenvalues --  -10.16038 -10.15606 -10.15395  -0.85779  -0.84808
 Alpha  occ. eigenvalues --   -0.81858  -0.81761  -0.81055  -0.80382  -0.80005
 Alpha  occ. eigenvalues --   -0.79582  -0.78229  -0.77562  -0.71291  -0.71074
 Alpha  occ. eigenvalues --   -0.70953  -0.70802  -0.68764  -0.68588  -0.68547
 Alpha  occ. eigenvalues --   -0.68304  -0.68131  -0.68059  -0.67723  -0.67617
 Alpha  occ. eigenvalues --   -0.67538  -0.67419  -0.67305  -0.66812  -0.66626
 Alpha  occ. eigenvalues --   -0.66454  -0.66244  -0.61210  -0.60574  -0.59630
 Alpha  occ. eigenvalues --   -0.58671  -0.56467  -0.55287  -0.55240  -0.53565
 Alpha  occ. eigenvalues --   -0.53283  -0.52076  -0.50358  -0.49677  -0.48756
 Alpha  occ. eigenvalues --   -0.48341  -0.46455  -0.46043  -0.45656  -0.45471
 Alpha  occ. eigenvalues --   -0.45438  -0.45254  -0.44928  -0.44640  -0.44089
 Alpha  occ. eigenvalues --   -0.43838  -0.43606  -0.43498  -0.43278  -0.42885
 Alpha  occ. eigenvalues --   -0.42497  -0.42308  -0.42133  -0.42013  -0.41654
 Alpha  occ. eigenvalues --   -0.41509  -0.41364  -0.40895  -0.40338  -0.40057
 Alpha  occ. eigenvalues --   -0.39625  -0.39467  -0.39257  -0.38849  -0.38625
 Alpha  occ. eigenvalues --   -0.38468  -0.38380  -0.38140  -0.37739  -0.37361
 Alpha  occ. eigenvalues --   -0.37235  -0.37172  -0.36958  -0.36808  -0.36726
 Alpha  occ. eigenvalues --   -0.36491  -0.36257  -0.36036  -0.35876  -0.35850
 Alpha  occ. eigenvalues --   -0.35718  -0.35673  -0.35626  -0.35552  -0.35164
 Alpha  occ. eigenvalues --   -0.34997  -0.34535  -0.34118  -0.33594  -0.33432
 Alpha  occ. eigenvalues --   -0.33120  -0.32959  -0.32879  -0.32768  -0.32664
 Alpha  occ. eigenvalues --   -0.32391  -0.32126  -0.32061  -0.31740  -0.31310
 Alpha  occ. eigenvalues --   -0.31270  -0.31145  -0.31036  -0.30800  -0.30486
 Alpha  occ. eigenvalues --   -0.30237  -0.30113  -0.29206  -0.28886  -0.28797
 Alpha  occ. eigenvalues --   -0.27420  -0.20678  -0.19899  -0.19340  -0.18668
 Alpha virt. eigenvalues --   -0.03930  -0.02266  -0.00207   0.00847   0.06630
 Alpha virt. eigenvalues --    0.07454   0.08023   0.08841   0.08905   0.09373
 Alpha virt. eigenvalues --    0.09886   0.10205   0.10626   0.10996   0.11283

 Mulliken charges:
               1
     1  C   -0.456553
     2  C    0.036282
     3  C   -0.455851
     4  C   -0.456157
     5  C    0.091330
     6  C   -0.190730
     7  C   -0.165691
     8  C    0.066591
     9  C    0.016060
    10  C   -0.493879
    11  C   -0.467585
    12  C   -0.026089
    13  C   -0.008708
    14  C    0.061291
    15  C   -0.459791
    16  C   -0.468176
    17  C   -0.460125
    18  C    0.124765
    19  C    0.035573
    20  C   -0.445104
    21  C   -0.450148
    22  C   -0.478177
    23  C   -0.222111
    24  C    0.119444
    25  C    0.033089
    26  C   -0.443168
    27  C   -0.454296
    28  C   -0.464077
    29  C   -0.033971
    30  C    0.092753
    31  C   -0.474315
    32  C   -0.476558
    33  C   -0.466960
    34  C   -0.029604
    35  C    0.087490
    36  C   -0.477122
    37  C   -0.475671
    38  C   -0.475212
    39  C   -0.007966
    40  C    0.058911
    41  C   -0.465301
    42  C   -0.467637
    43  C   -0.456598
    44  H    0.137743
    45  H    0.151550
    46  H    0.144463
    47  H    0.135858
    48  H    0.156180
    49  H    0.146153
    50  H    0.131045
    51  H    0.144690
    52  H    0.161665
    53  H    0.121075
    54  H    0.146831
    55  H    0.155252
    56  H    0.156301
    57  H    0.156606
    58  H    0.168110
    59  H    0.140907
    60  H    0.156431
    61  H    0.134321
    62  H    0.151506
    63  H    0.152126
    64  H    0.160628
    65  H    0.134240
    66  H    0.151599
    67  H    0.131811
    68  H    0.150370
    69  H    0.155499
    70  H    0.134022
    71  H    0.142310
    72  H    0.148991
    73  H    0.140810
    74  H    0.164339
    75  H    0.131268
    76  H    0.135002
    77  H    0.164251
    78  H    0.151594
    79  H    0.106575
    80  H    0.144012
    81  H    0.133268
    82  H    0.151051
    83  H    0.135622
    84  H    0.155818
    85  H    0.145575
    86  H    0.146189
    87  H    0.156323
    88  H    0.135329
    89  H    0.150361
    90  H    0.148287
    91  H    0.135484
    92  H    0.147428
    93  H    0.158649
    94  H    0.138347
    95  H    0.147478
    96  H    0.135725
    97  H    0.153904
    98  H    0.181989
    99  H    0.152040
   100  H    0.132334
   101  H    0.146606
   102  H    0.154161
   103  H    0.138322
   104  H    0.135466
   105  H    0.157097
   106  H    0.147071
   107  H    0.136026
   108  H    0.152458
   109  H    0.151985
   110  H    0.135777
   111  H    0.156603
   112  H    0.152821
   113  H    0.151631
   114  H    0.131966
   115  H    0.164425
 Sum of Mulliken charges =  -0.00000

 Dipole moment (field-independent basis, Debye):
    X=              0.3743    Y=             -0.1075    Z=             -0.2372  Tot=              0.4560
 Quadrupole moment (field-independent basis, Debye-Ang):
   XX=           -272.3920   YY=           -273.3707   ZZ=           -271.3152
   XY=              0.6545   XZ=             -0.6261   YZ=             -0.4811

 Normal termination of Gaussian 16 at Sat Nov  5 10:47:15 2022.
