 Gaussian 16, Revision B.01,
 Gaussian 16:  ES64L-G16RevB.01 20-Dec-2017

 -----------------------------
 #p b3lyp/6-31g(d) opt SCF=XQC
 -----------------------------

 ------------------------------
 Gaussian input prepared by ASE
 ------------------------------
 Symbolic Z-matrix:
 Charge =  0 Multiplicity = 1

 SCF Done:  E(RB3LYP) =  -1357.66297357     A.U. after   15 cycles
 SCF Done:  E(RB3LYP) =  -1357.66968757     A.U. after   13 cycles
 SCF Done:  E(RB3LYP) =  -1357.67005117     A.U. after   12 cycles
 SCF Done:  E(RB3LYP) =  -1357.67049697     A.U. after   14 cycles
 SCF Done:  E(RB3LYP) =  -1357.67066958     A.U. after   11 cycles
 SCF Done:  E(RB3LYP) =  -1357.67073080     A.U. after   12 cycles
 SCF Done:  E(RB3LYP) =  -1357.67075494     A.U. after   10 cycles
 SCF Done:  E(RB3LYP) =  -1357.67077010     A.U. after   10 cycles
 SCF Done:  E(RB3LYP) =  -1357.67077434     A.U. after    9 cycles
 SCF Done:  E(RB3LYP) =  -1357.67077591     A.U. after    8 cycles
 SCF Done:  E(RB3LYP) =  -1357.67077645     A.U. after    8 cycles
 SCF Done:  E(RB3LYP) =  -1357.67077664     A.U. after    7 cycles
 SCF Done:  E(RB3LYP) =  -1357.67077670     A.U. after    6 cycles
 Optimization completed.
    -- Stationary point found.

                         Standard orientation:
 ---------------------------------------------------------------------
 Center     Atomic      Atomic             Coordinates (Angstroms)
 Number     Number       Type             X           Y           Z
 ---------------------------------------------------------------------
      1          6           0       -7.563828   -0.199959    0.421274
      2          7           0       -7.089120    1.011538   -0.236985
      3          6           0       -8.149189    2.005008   -0.338916
      4          6           0       -5.898245    1.559530    0.411509
      5          6           0       -4.667267    0.689676    0.240673
      6          6           0       -3.789939    0.463521    1.305717
      7          6           0       -2.630132   -0.290960    1.135322
      8          6           0       -2.310762   -0.852649   -0.110598
      9          6           0       -1.078011   -1.661129   -0.294630
     10          6           0       -1.084834   -2.789699   -1.137586
     11          6           0        0.053516   -3.579291   -1.344364
     12          6           0        1.197770   -3.201844   -0.671291
     13          8           0        2.441560   -3.802622   -0.694173
     14          6           0        3.275519   -3.084309    0.145885
     15          8           0        4.433472   -3.361216    0.353854
     16          7           0        2.540320   -2.026830    0.658275
     17          6           0        3.049145   -1.130725    1.681764
     18          6           0        3.001914    0.362222    1.293524
     19          8           0        2.216363    1.088873    1.891943
     20          7           0        3.845428    0.808706    0.300741
     21          6           0        4.724643   -0.083141   -0.465015
     22          6           0        3.792072    2.180521   -0.122563
     23          6           0        3.768058    3.224894    0.811739
     24          6           0        3.759317    4.547538    0.373989
     25          6           0        3.782437    4.848366   -0.989530
     26          6           0        3.811483    3.809313   -1.918477
     27          6           0        3.813622    2.481339   -1.490011
     28          6           0        1.229471   -2.091545    0.173758
     29          6           0        0.109453   -1.299840    0.377537
     30          6           0       -3.198680   -0.626613   -1.177465
     31          6           0       -4.353769    0.129910   -1.005136
     32          1           0       -6.764738   -0.945956    0.448432
     33          1           0       -7.903509   -0.019936    1.460807
     34          1           0       -8.404319   -0.618172   -0.143069
     35          1           0       -7.788861    2.878107   -0.893963
     36          1           0       -8.520656    2.353359    0.645439
     37          1           0       -8.997645    1.579815   -0.886124
     38          1           0       -6.064701    1.751226    1.491130
     39          1           0       -5.704754    2.539714   -0.046043
     40          1           0       -4.018900    0.876153    2.285921
     41          1           0       -1.980636   -0.469685    1.987680
     42          1           0       -2.011099   -3.074397   -1.625897
     43          1           0        0.036711   -4.451319   -1.988965
     44          1           0        4.058071   -1.471465    1.926935
     45          1           0        2.426843   -1.207134    2.577642
     46          1           0        5.633385    0.464516   -0.725333
     47          1           0        5.007867   -0.959307    0.116380
     48          1           0        4.251090   -0.432759   -1.390445
     49          1           0        3.747062    2.999638    1.869818
     50          1           0        3.740444    5.348477    1.108093
     51          1           0        3.778380    5.882232   -1.323139
     52          1           0        3.826797    4.025922   -2.983169
     53          1           0        3.821917    1.682343   -2.224268
     54          1           0        0.157032   -0.414165    1.001751
     55          1           0       -2.964862   -1.025112   -2.161023
     56          1           0       -5.031059    0.292919   -1.838459
 ---------------------------------------------------------------------

 The electronic state is 1-A.
 Alpha  occ. eigenvalues --  -19.22323 -19.14134 -19.12654 -14.40666 -14.38620
 Alpha  occ. eigenvalues --  -14.32736 -10.35084 -10.30249 -10.25937 -10.25109
 Alpha  occ. eigenvalues --  -10.24521 -10.23463 -10.22966 -10.21233 -10.20919
 Alpha  occ. eigenvalues --  -10.20817 -10.20361 -10.20264 -10.19971 -10.19901
 Alpha  occ. eigenvalues --  -10.19857 -10.19600 -10.19470 -10.19314 -10.19264
 Alpha  occ. eigenvalues --  -10.19145 -10.19102 -10.18879 -10.18865 -10.18766
 Alpha  occ. eigenvalues --  -10.18428  -1.14251  -1.04805  -1.04280  -0.97755
 Alpha  occ. eigenvalues --   -0.95174  -0.92156  -0.87306  -0.85169  -0.84937
 Alpha  occ. eigenvalues --   -0.78945  -0.78132  -0.75658  -0.75098  -0.74563
 Alpha  occ. eigenvalues --   -0.74235  -0.73764  -0.71389  -0.70323  -0.69077
 Alpha  occ. eigenvalues --   -0.64368  -0.63923  -0.63554  -0.61359  -0.60795
 Alpha  occ. eigenvalues --   -0.60438  -0.59953  -0.57138  -0.56454  -0.54285
 Alpha  occ. eigenvalues --   -0.54138  -0.51722  -0.51111  -0.50109  -0.48955
 Alpha  occ. eigenvalues --   -0.48513  -0.48189  -0.47395  -0.47081  -0.46614
 Alpha  occ. eigenvalues --   -0.46035  -0.45753  -0.45123  -0.44490  -0.44348
 Alpha  occ. eigenvalues --   -0.44243  -0.43623  -0.43062  -0.43023  -0.42347
 Alpha  occ. eigenvalues --   -0.41684  -0.41292  -0.41057  -0.40168  -0.39333
 Alpha  occ. eigenvalues --   -0.39234  -0.38751  -0.38605  -0.37716  -0.37269
 Alpha  occ. eigenvalues --   -0.36807  -0.36459  -0.36423  -0.36001  -0.35779
 Alpha  occ. eigenvalues --   -0.35080  -0.34971  -0.33640  -0.33431  -0.31798
 Alpha  occ. eigenvalues --   -0.29846  -0.28549  -0.26753  -0.26588  -0.25097
 Alpha  occ. eigenvalues --   -0.24905  -0.23805  -0.22898  -0.21675  -0.21331
 Alpha virt. eigenvalues --   -0.03014  -0.01924  -0.01328  -0.00261  -0.00063
 Alpha virt. eigenvalues --    0.01831   0.02863   0.03845   0.08236   0.08789
 Alpha virt. eigenvalues --    0.09539   0.09905   0.10833   0.11569   0.12311

 Mulliken charges:
               1
     1  C   -0.302954
     2  N   -0.365506
     3  C   -0.293440
     4  C   -0.193672
     5  C    0.148264
     6  C   -0.192300
     7  C   -0.171509
     8  C    0.090184
     9  C    0.075599
    10  C   -0.190118
    11  C   -0.193356
    12  C    0.315154
    13  O   -0.520811
    14  C    0.778534
    15  O   -0.507392
    16  N   -0.581900
    17  C   -0.266278
    18  C    0.592696
    19  O   -0.503495
    20  N   -0.508408
    21  C   -0.349091
    22  C    0.285312
    23  C   -0.120969
    24  C   -0.146487
    25  C   -0.121834
    26  C   -0.141010
    27  C   -0.159460
    28  C    0.348149
    29  C   -0.227799
    30  C   -0.178062
    31  C   -0.170283
    32  H    0.163268
    33  H    0.116677
    34  H    0.148037
    35  H    0.149021
    36  H    0.118476
    37  H    0.149713
    38  H    0.116434
    39  H    0.153420
    40  H    0.126853
    41  H    0.134574
    42  H    0.140507
    43  H    0.155024
    44  H    0.207720
    45  H    0.196524
    46  H    0.179403
    47  H    0.199866
    48  H    0.170548
    49  H    0.155137
    50  H    0.135076
    51  H    0.131411
    52  H    0.133468
    53  H    0.134166
    54  H    0.184038
    55  H    0.130328
    56  H    0.142553
 Sum of Mulliken charges =  -0.00000

 Dipole moment (field-independent basis, Debye):
    X=             -1.6126    Y=              1.8129    Z=             -0.8563  Tot=              2.5730
 Quadrupole moment (field-independent basis, Debye-Ang):
   XX=           -170.5630   YY=           -181.7587   ZZ=           -172.0348
   XY=             11.7047   XZ=             -2.4601   YZ=             -0.8523

 Normal termination of Gaussian 16 at Fri Nov  4 23:18:46 2022.
