 Gaussian 16, Revision B.01,
 Gaussian 16:  ES64L-G16RevB.01 20-Dec-2017

 -------------------------------------------------------------------
 #p b3lyp/6-31g(d) 6D 10F nosymm GFInput td=(50-50,nstate=2) SCF=XQC
 -------------------------------------------------------------------

 ------------------------------
 Gaussian input prepared by ASE
 ------------------------------
 Symbolic Z-matrix:
 Charge =  0 Multiplicity = 1

                          Input orientation:
 ---------------------------------------------------------------------
 Center     Atomic      Atomic             Coordinates (Angstroms)
 Number     Number       Type             X           Y           Z
 ---------------------------------------------------------------------
      1          6           0        6.887469    1.235059    0.677550
      2          7           0        6.052743    2.212815    1.365738
      3          6           0        6.810879    3.411140    1.697954
      4          6           0        4.843181    2.533604    0.608718
      5          6           0        3.858999    1.381760    0.532697
      6          6           0        3.192183    1.079714   -0.658645
      7          6           0        2.247495    0.056106   -0.715365
      8          6           0        1.941357   -0.707639    0.421642
      9          6           0        0.938569   -1.802280    0.363673
     10          6           0        1.133747   -2.987612    1.099328
     11          6           0        0.214412   -4.044230    1.078448
     12          6           0       -0.904727   -3.873880    0.288943
     13          8           0       -1.952164   -4.751999    0.088302
     14          6           0       -2.839819   -4.159530   -0.793859
     15          8           0       -3.860105   -4.677876   -1.182595
     16          7           0       -2.340966   -2.904800   -1.107104
     17          6           0       -2.940060   -2.041969   -2.110122
     18          6           0       -3.313313   -0.636886   -1.592169
     19          8           0       -2.673281    0.320969   -2.011797
     20          7           0       -4.348095   -0.523767   -0.690551
     21          6           0       -5.055509   -1.682826   -0.132934
     22          6           0       -4.688981    0.761877   -0.147570
     23          6           0       -4.823087    1.884091   -0.976342
     24          6           0       -5.196140    3.110007   -0.429488
     25          6           0       -5.447337    3.234589    0.938575
     26          6           0       -5.318802    2.116933    1.761826
     27          6           0       -4.939107    0.886361    1.224585
     28          6           0       -1.118997   -2.711845   -0.453779
     29          6           0       -0.218155   -1.657908   -0.432288
     30          6           0        2.618178   -0.403400    1.616232
     31          6           0        3.558035    0.621281    1.670569
     32          1           0        6.309664    0.328710    0.476390
     33          1           0        7.285775    1.611461   -0.285827
     34          1           0        7.737049    0.965820    1.314366
     35          1           0        6.182723    4.101988    2.270986
     36          1           0        7.191257    3.950926    0.807879
     37          1           0        7.671797    3.139078    2.318361
     38          1           0        5.076531    2.884706   -0.417103
     39          1           0        4.359493    3.378862    1.117772
     40          1           0        3.418947    1.647050   -1.558754
     41          1           0        1.763871   -0.170902   -1.661343
     42          1           0        2.040809   -3.098781    1.684433
     43          1           0        0.377069   -4.956579    1.641819
     44          1           0       -3.796856   -2.582003   -2.520497
     45          1           0       -2.221802   -1.862344   -2.914819
     46          1           0       -6.096000   -1.401777    0.045660
     47          1           0       -5.042319   -2.526804   -0.820996
     48          1           0       -4.616552   -2.015677    0.815450
     49          1           0       -4.627280    1.796033   -2.036822
     50          1           0       -5.296571    3.972813   -1.082363
     51          1           0       -5.740644    4.193190    1.357197
     52          1           0       -5.507719    2.197231    2.828871
     53          1           0       -4.829012    0.027929    1.879238
     54          1           0       -0.416118   -0.742121   -0.978614
     55          1           0        2.382818   -0.958659    2.520197
     56          1           0        4.074470    0.841988    2.600249
 ---------------------------------------------------------------------

 SCF Done:  E(RB3LYP) =  -1357.67077816     A.U. after   15 cycles

 Excitation energies and oscillator strengths:

 Excited state symmetry could not be determined.
 Excited State   1:      Triplet-?Sym    3.2163 eV  385.49 nm  f=0.0000  <S**2>=2.000
     104 ->117        -0.10574
     106 ->115        -0.19747
     107 ->111         0.20487
     109 ->111        -0.36629
     109 ->113        -0.12852
     110 ->111         0.44313
     110 ->113         0.12798
 This state for optimization and/or second-order correction.
 Total Energy, E(TD-HF/TD-DFT) =  -1357.55258103
 Copying the excited state density for this state as the 1-particle RhoCI density.

 Excited state symmetry could not be determined.
 Excited State   2:      Triplet-?Sym    3.5912 eV  345.25 nm  f=0.0000  <S**2>=2.000
     102 ->116        -0.14876
     105 ->114         0.33472
     108 ->112         0.54144
     108 ->116         0.16522

 Excited state symmetry could not be determined.
 Excited State   3:      Singlet-?Sym    4.4250 eV  280.19 nm  f=0.0377  <S**2>=0.000
     109 ->111         0.36123
     110 ->111         0.59204

 Excited state symmetry could not be determined.
 Excited State   4:      Singlet-?Sym    4.5370 eV  273.27 nm  f=0.2995  <S**2>=0.000
     107 ->111         0.15762
     107 ->113         0.11194
     109 ->111         0.53365
     109 ->113        -0.12848
     110 ->111        -0.30660
     110 ->113         0.21305

 Alpha  occ. eigenvalues --  -19.22323 -19.14134 -19.12654 -14.40666 -14.38620
 Alpha  occ. eigenvalues --  -14.32736 -10.35084 -10.30249 -10.25937 -10.25109
 Alpha  occ. eigenvalues --  -10.24521 -10.23463 -10.22966 -10.21233 -10.20919
 Alpha  occ. eigenvalues --  -10.20817 -10.20361 -10.20264 -10.19971 -10.19901
 Alpha  occ. eigenvalues --  -10.19857 -10.19600 -10.19470 -10.19314 -10.19264
 Alpha  occ. eigenvalues --  -10.19145 -10.19102 -10.18879 -10.18865 -10.18766
 Alpha  occ. eigenvalues --  -10.18429  -1.14251  -1.04805  -1.04280  -0.97755
 Alpha  occ. eigenvalues --   -0.95174  -0.92156  -0.87306  -0.85169  -0.84937
 Alpha  occ. eigenvalues --   -0.78945  -0.78132  -0.75658  -0.75098  -0.74563
 Alpha  occ. eigenvalues --   -0.74235  -0.73764  -0.71389  -0.70323  -0.69077
 Alpha  occ. eigenvalues --   -0.64368  -0.63923  -0.63554  -0.61359  -0.60795
 Alpha  occ. eigenvalues --   -0.60438  -0.59953  -0.57138  -0.56454  -0.54285
 Alpha  occ. eigenvalues --   -0.54138  -0.51722  -0.51111  -0.50109  -0.48955
 Alpha  occ. eigenvalues --   -0.48513  -0.48189  -0.47395  -0.47081  -0.46614
 Alpha  occ. eigenvalues --   -0.46035  -0.45753  -0.45123  -0.44490  -0.44348
 Alpha  occ. eigenvalues --   -0.44243  -0.43623  -0.43062  -0.43023  -0.42347
 Alpha  occ. eigenvalues --   -0.41684  -0.41292  -0.41057  -0.40168  -0.39333
 Alpha  occ. eigenvalues --   -0.39234  -0.38751  -0.38605  -0.37716  -0.37269
 Alpha  occ. eigenvalues --   -0.36807  -0.36459  -0.36423  -0.36001  -0.35779
 Alpha  occ. eigenvalues --   -0.35080  -0.34971  -0.33640  -0.33431  -0.31798
 Alpha  occ. eigenvalues --   -0.29845  -0.28549  -0.26753  -0.26588  -0.25097
 Alpha  occ. eigenvalues --   -0.24905  -0.23805  -0.22898  -0.21675  -0.21331
 Alpha virt. eigenvalues --   -0.03014  -0.01924  -0.01328  -0.00261  -0.00063
 Alpha virt. eigenvalues --    0.01831   0.02863   0.03845   0.08236   0.08788
 Alpha virt. eigenvalues --    0.09539   0.09905   0.10833   0.11569   0.12311

 Mulliken charges:
               1
     1  C   -0.302952
     2  N   -0.365507
     3  C   -0.293448
     4  C   -0.193660
     5  C    0.148248
     6  C   -0.192300
     7  C   -0.171503
     8  C    0.090174
     9  C    0.075600
    10  C   -0.190113
    11  C   -0.193354
    12  C    0.315146
    13  O   -0.520812
    14  C    0.778537
    15  O   -0.507394
    16  N   -0.581907
    17  C   -0.266293
    18  C    0.592713
    19  O   -0.503496
    20  N   -0.508422
    21  C   -0.349091
    22  C    0.285320
    23  C   -0.120969
    24  C   -0.146495
    25  C   -0.121827
    26  C   -0.141015
    27  C   -0.159458
    28  C    0.348176
    29  C   -0.227806
    30  C   -0.178057
    31  C   -0.170282
    32  H    0.163265
    33  H    0.116678
    34  H    0.148036
    35  H    0.149021
    36  H    0.118478
    37  H    0.149715
    38  H    0.116432
    39  H    0.153420
    40  H    0.126853
    41  H    0.134574
    42  H    0.140505
    43  H    0.155023
    44  H    0.207721
    45  H    0.196525
    46  H    0.179403
    47  H    0.199866
    48  H    0.170549
    49  H    0.155137
    50  H    0.135077
    51  H    0.131411
    52  H    0.133469
    53  H    0.134166
    54  H    0.184038
    55  H    0.130328
    56  H    0.142557
 Sum of Mulliken charges =  -0.00000

 Dipole moment (field-independent basis, Debye):
    X=              0.9986    Y=              2.0315    Z=              1.2233  Tot=              2.5731
 Quadrupole moment (field-independent basis, Debye-Ang):
   XX=           -166.0172   YY=           -188.1387   ZZ=           -172.7172
   XY=             -8.5824   XZ=             -3.1943   YZ=             -2.6712

 Normal termination of Gaussian 16 at Sat Nov  5 10:05:48 2022.
