 Gaussian 16, Revision B.01,
 Gaussian 16:  ES64L-G16RevB.01 20-Dec-2017

 -----------------------------
 #p b3lyp/6-31g(d) opt SCF=XQC
 -----------------------------

 ------------------------------
 Gaussian input prepared by ASE
 ------------------------------
 Symbolic Z-matrix:
 Charge =  0 Multiplicity = 1

 SCF Done:  E(RB3LYP) =  -1270.94883626     A.U. after   14 cycles
 SCF Done:  E(RB3LYP) =  -1270.95719701     A.U. after   12 cycles
 SCF Done:  E(RB3LYP) =  -1270.95793554     A.U. after   11 cycles
 SCF Done:  E(RB3LYP) =  -1270.95806318     A.U. after   10 cycles
 SCF Done:  E(RB3LYP) =  -1270.95812508     A.U. after   10 cycles
 SCF Done:  E(RB3LYP) =  -1270.95815671     A.U. after   10 cycles
 SCF Done:  E(RB3LYP) =  -1270.95817386     A.U. after   10 cycles
 SCF Done:  E(RB3LYP) =  -1270.95817651     A.U. after    9 cycles
 SCF Done:  E(RB3LYP) =  -1270.95817691     A.U. after    7 cycles
 SCF Done:  E(RB3LYP) =  -1270.95817695     A.U. after    7 cycles
 SCF Done:  E(RB3LYP) =  -1270.95817693     A.U. after    6 cycles
 Optimization completed.
    -- Stationary point found.

                         Standard orientation:
 ---------------------------------------------------------------------
 Center     Atomic      Atomic             Coordinates (Angstroms)
 Number     Number       Type             X           Y           Z
 ---------------------------------------------------------------------
      1          6           0        0.568270    6.708038   -0.116463
      2          8           0        0.747068    5.595706   -0.978200
      3          6           0        0.539344    4.345970   -0.470100
      4          6           0        0.736007    3.284010   -1.369386
      5          6           0        0.555101    1.973797   -0.953006
      6          6           0        0.165963    1.678073    0.365550
      7          6           0       -0.060845    0.244552    0.825178
      8          7           0       -1.274644   -0.446168    0.301061
      9          6           0       -2.379614    0.370011   -0.183483
     10          6           0       -3.753168   -0.228682    0.083681
     11          6           0       -4.778652   -0.091992   -0.858722
     12          6           0       -6.062747   -0.574940   -0.596206
     13          6           0       -6.337351   -1.206219    0.617277
     14          6           0       -5.319128   -1.350796    1.563347
     15          6           0       -4.038892   -0.865702    1.298163
     16          6           0       -0.818905   -1.531145   -0.564871
     17          6           0       -1.732796   -2.743822   -0.752586
     18          6           0       -0.981793   -3.789302   -1.603561
     19          6           0        0.400683   -4.147244   -1.025994
     20          6           0        1.278624   -2.906840   -0.755148
     21          6           0        0.484172   -1.934939    0.117720
     22          7           0        1.065167   -0.623432    0.411704
     23          6           0        2.170744   -0.590580    1.367216
     24          6           0        3.512827   -1.002685    0.790037
     25          6           0        4.338651   -1.900581    1.474860
     26          6           0        5.598811   -2.239271    0.975235
     27          6           0        6.048000   -1.681513   -0.221558
     28          6           0        5.230345   -0.783064   -0.913006
     29          6           0        3.974374   -0.446204   -0.410824
     30          6           0       -0.020755    2.743330    1.246788
     31          6           0        0.161604    4.072427    0.847679
     32          1           0       -0.461412    6.765378    0.260958
     33          1           0        1.261760    6.675598    0.734416
     34          1           0        0.780368    7.592195   -0.720442
     35          1           0        1.037027    3.518040   -2.386070
     36          1           0        0.730998    1.157095   -1.646349
     37          1           0       -0.149708    0.268457    1.928723
     38          1           0       -2.327069    1.339712    0.324532
     39          1           0       -2.285738    0.594847   -1.262096
     40          1           0       -4.569469    0.396251   -1.808703
     41          1           0       -6.845188   -0.462684   -1.342618
     42          1           0       -7.334424   -1.586726    0.823340
     43          1           0       -5.523604   -1.844492    2.510343
     44          1           0       -3.239996   -0.989318    2.023524
     45          1           0       -0.572344   -1.146106   -1.576461
     46          1           0       -1.998657   -3.159338    0.228096
     47          1           0       -2.670978   -2.462604   -1.242646
     48          1           0       -1.591068   -4.696260   -1.701925
     49          1           0       -0.852921   -3.392024   -2.621015
     50          1           0        0.923984   -4.830518   -1.706275
     51          1           0        0.263081   -4.696090   -0.082886
     52          1           0        1.552588   -2.412624   -1.696550
     53          1           0        2.212796   -3.207108   -0.270179
     54          1           0        0.224062   -2.458731    1.061237
     55          1           0        1.948549   -1.204715    2.261282
     56          1           0        2.253727    0.446386    1.718114
     57          1           0        3.991644   -2.340868    2.407551
     58          1           0        6.225101   -2.941293    1.519899
     59          1           0        7.026590   -1.944499   -0.614651
     60          1           0        5.574096   -0.343104   -1.845907
     61          1           0        3.335279    0.248269   -0.948277
     62          1           0       -0.314513    2.539476    2.274828
     63          1           0        0.011988    4.870823    1.565547
 ---------------------------------------------------------------------

 The electronic state is 1-A.
 Alpha  occ. eigenvalues --  -19.17881 -14.32244 -14.31809 -10.24751 -10.24232
 Alpha  occ. eigenvalues --  -10.23886 -10.20945 -10.20540 -10.20140 -10.20101
 Alpha  occ. eigenvalues --  -10.19083 -10.18814 -10.18793 -10.18667 -10.18471
 Alpha  occ. eigenvalues --  -10.18409 -10.18407 -10.18311 -10.18299 -10.18253
 Alpha  occ. eigenvalues --  -10.18233 -10.18161 -10.18080 -10.17989 -10.17917
 Alpha  occ. eigenvalues --  -10.17828 -10.17543 -10.17532 -10.17507 -10.17119
 Alpha  occ. eigenvalues --  -10.17036  -1.06460  -0.95966  -0.88083  -0.85059
 Alpha  occ. eigenvalues --   -0.84550  -0.83910  -0.81604  -0.76748  -0.76191
 Alpha  occ. eigenvalues --   -0.74852  -0.74571  -0.73574  -0.73301  -0.72757
 Alpha  occ. eigenvalues --   -0.72492  -0.70004  -0.67844  -0.65217  -0.62349
 Alpha  occ. eigenvalues --   -0.61127  -0.59894  -0.59668  -0.59039  -0.58680
 Alpha  occ. eigenvalues --   -0.57638  -0.56448  -0.55545  -0.55226  -0.53164
 Alpha  occ. eigenvalues --   -0.50771  -0.50481  -0.48845  -0.48108  -0.47443
 Alpha  occ. eigenvalues --   -0.46927  -0.46898  -0.46035  -0.45153  -0.44869
 Alpha  occ. eigenvalues --   -0.44552  -0.44033  -0.43738  -0.43312  -0.42731
 Alpha  occ. eigenvalues --   -0.42386  -0.42057  -0.41242  -0.40976  -0.40957
 Alpha  occ. eigenvalues --   -0.40508  -0.40184  -0.39779  -0.38512  -0.37634
 Alpha  occ. eigenvalues --   -0.37376  -0.36707  -0.36199  -0.35781  -0.35392
 Alpha  occ. eigenvalues --   -0.34853  -0.34583  -0.33927  -0.33735  -0.33243
 Alpha  occ. eigenvalues --   -0.33139  -0.32937  -0.32542  -0.32444  -0.31861
 Alpha  occ. eigenvalues --   -0.31640  -0.30587  -0.29293  -0.25082  -0.24296
 Alpha  occ. eigenvalues --   -0.24027  -0.23690  -0.23294  -0.22538  -0.21205
 Alpha  occ. eigenvalues --   -0.19789
 Alpha virt. eigenvalues --   -0.00371   0.00156   0.00529   0.00695   0.00808
 Alpha virt. eigenvalues --    0.01425   0.08627   0.09472   0.09702   0.09959
 Alpha virt. eigenvalues --    0.10205   0.10718   0.12039   0.12381   0.13200

 Mulliken charges:
               1
     1  C   -0.215144
     2  O   -0.505792
     3  C    0.377313
     4  C   -0.175068
     5  C   -0.174830
     6  C    0.155596
     7  C    0.142225
     8  N   -0.473783
     9  C   -0.212766
    10  C    0.165757
    11  C   -0.191532
    12  C   -0.128246
    13  C   -0.130990
    14  C   -0.131955
    15  C   -0.166219
    16  C    0.072039
    17  C   -0.270121
    18  C   -0.267842
    19  C   -0.268007
    20  C   -0.270934
    21  C    0.067950
    22  N   -0.463141
    23  C   -0.215226
    24  C    0.162575
    25  C   -0.191076
    26  C   -0.128461
    27  C   -0.129903
    28  C   -0.132653
    29  C   -0.165813
    30  C   -0.205419
    31  C   -0.195852
    32  H    0.152445
    33  H    0.152515
    34  H    0.170304
    35  H    0.138048
    36  H    0.142759
    37  H    0.109037
    38  H    0.166094
    39  H    0.125317
    40  H    0.120274
    41  H    0.124950
    42  H    0.124121
    43  H    0.124508
    44  H    0.132844
    45  H    0.103151
    46  H    0.136334
    47  H    0.146051
    48  H    0.133583
    49  H    0.130188
    50  H    0.133435
    51  H    0.130509
    52  H    0.135157
    53  H    0.148605
    54  H    0.102807
    55  H    0.121021
    56  H    0.161425
    57  H    0.121448
    58  H    0.126257
    59  H    0.125880
    60  H    0.126987
    61  H    0.141249
    62  H    0.128744
    63  H    0.131270
 Sum of Mulliken charges =  -0.00000

 Dipole moment (field-independent basis, Debye):
    X=              0.1721    Y=              1.3115    Z=              0.7537  Tot=              1.5224
 Quadrupole moment (field-independent basis, Debye-Ang):
   XX=           -183.1796   YY=           -165.4130   ZZ=           -176.4063
   XY=             -1.6977   XZ=              0.5217   YZ=              2.5602

 Normal termination of Gaussian 16 at Fri Nov  4 22:52:21 2022.
