 Gaussian 16, Revision B.01,
 Gaussian 16:  ES64L-G16RevB.01 20-Dec-2017

 -------------------------------------------------------------------
 #p b3lyp/6-31g(d) 6D 10F nosymm GFInput td=(50-50,nstate=2) SCF=XQC
 -------------------------------------------------------------------

 ------------------------------
 Gaussian input prepared by ASE
 ------------------------------
 Symbolic Z-matrix:
 Charge =  0 Multiplicity = 1

                          Input orientation:
 ---------------------------------------------------------------------
 Center     Atomic      Atomic             Coordinates (Angstroms)
 Number     Number       Type             X           Y           Z
 ---------------------------------------------------------------------
      1          6           0        6.834665    0.520824   -0.659215
      2          8           0        5.692941    0.183683   -1.430346
      3          6           0        4.475841    0.177711   -0.812457
      4          6           0        3.383168   -0.168205   -1.625819
      5          6           0        2.102736   -0.208455   -1.095126
      6          6           0        1.866718    0.100953    0.256181
      7          6           0        0.461577    0.085328    0.841856
      8          7           0       -0.455803    1.183130    0.419549
      9          6           0        0.129516    2.414471   -0.093374
     10          6           0       -0.652800    3.668387    0.270133
     11          6           0       -0.763576    4.721712   -0.644559
     12          6           0       -1.418330    5.906012   -0.298460
     13          6           0       -1.975528    6.050725    0.972385
     14          6           0       -1.873334    5.003226    1.891640
     15          6           0       -1.217314    3.823134    1.542837
     16          6           0       -1.527227    0.577169   -0.367582
     17          6           0       -2.880868    1.288346   -0.421451
     18          6           0       -3.865463    0.397037   -1.207158
     19          6           0       -3.948050   -1.036557   -0.649546
     20          6           0       -2.565487   -1.709521   -0.513975
     21          6           0       -1.658192   -0.787591    0.301197
     22          7           0       -0.250589   -1.156589    0.464071
     23          6           0        0.040742   -2.262022    1.374854
     24          6           0       -0.203368   -3.640656    0.788398
     25          6           0       -0.895504   -4.613762    1.517231
     26          6           0       -1.073517   -5.901372    1.004676
     27          6           0       -0.559560   -6.230510   -0.249395
     28          6           0        0.133825   -5.265240   -0.985153
     29          6           0        0.310927   -3.982111   -0.470043
     30          6           0        2.962615    0.437955    1.050951
     31          6           0        4.263370    0.479446    0.535826
     32          1           0        6.761620    1.538371   -0.252716
     33          1           0        6.987425   -0.186267    0.167018
     34          1           0        7.684457    0.465806   -1.342103
     35          1           0        3.571215   -0.406771   -2.668293
     36          1           0        1.266156   -0.498774   -1.723231
     37          1           0        0.568397    0.154122    1.941918
     38          1           0        1.136322    2.507720    0.329481
     39          1           0        0.270321    2.380121   -1.189623
     40          1           0       -0.334144    4.613182   -1.638748
     41          1           0       -1.497434    6.711535   -1.024284
     42          1           0       -2.489152    6.969380    1.243801
     43          1           0       -2.307648    5.106297    2.883151
     44          1           0       -1.148638    2.999982    2.248082
     45          1           0       -1.198822    0.416466   -1.415765
     46          1           0       -3.245023    1.463842    0.599169
     47          1           0       -2.795801    2.269385   -0.900776
     48          1           0       -4.862411    0.854815   -1.208145
     49          1           0       -3.544138    0.354559   -2.258156
     50          1           0       -4.597349   -1.648570   -1.287778
     51          1           0       -4.426378   -1.008246    0.340414
     52          1           0       -2.119186   -1.881197   -1.502350
     53          1           0       -2.670374   -2.689555   -0.037985
     54          1           0       -2.131205   -0.634375    1.293680
     55          1           0       -0.519491   -2.159697    2.324356
     56          1           0        1.104653   -2.184783    1.634554
     57          1           0       -1.301079   -4.361173    2.494925
     58          1           0       -1.616914   -6.643260    1.584379
     59          1           0       -0.698223   -7.230308   -0.652510
     60          1           0        0.538546   -5.514664   -1.962918
     61          1           0        0.845512   -3.228946   -1.041491
     62          1           0        2.806394    0.673964    2.101956
     63          1           0        5.088264    0.740389    1.188984
 ---------------------------------------------------------------------

 SCF Done:  E(RB3LYP) =  -1270.95817543     A.U. after   14 cycles

 Excitation energies and oscillator strengths:

 Excited state symmetry could not be determined.
 Excited State   1:      Triplet-?Sym    3.6749 eV  337.38 nm  f=0.0000  <S**2>=2.000
     104 ->112         0.34641
     104 ->113        -0.13793
     109 ->113         0.21179
     109 ->114        -0.13085
     109 ->117        -0.15043
     110 ->112        -0.14400
     110 ->113        -0.28150
     110 ->114         0.20327
     110 ->117         0.23490
     111 ->113         0.13841
     111 ->114        -0.10064
 This state for optimization and/or second-order correction.
 Total Energy, E(TD-HF/TD-DFT) =  -1270.82312599
 Copying the excited state density for this state as the 1-particle RhoCI density.

 Excited state symmetry could not be determined.
 Excited State   2:      Triplet-?Sym    3.7286 eV  332.52 nm  f=0.0000  <S**2>=2.000
     106 ->115         0.10237
     106 ->116         0.42205
     108 ->112        -0.15430
     108 ->114         0.24785
     108 ->115         0.22421
     108 ->117        -0.28932
     110 ->117         0.10956
     111 ->117        -0.10224

 Excited state symmetry could not be determined.
 Excited State   3:      Singlet-?Sym    4.5358 eV  273.34 nm  f=0.0091  <S**2>=0.000
     111 ->112         0.69417

 Excited state symmetry could not be determined.
 Excited State   4:      Singlet-?Sym    4.6893 eV  264.40 nm  f=0.0186  <S**2>=0.000
     110 ->113         0.10369
     111 ->113         0.61769
     111 ->114        -0.29410

 Alpha  occ. eigenvalues --  -19.17881 -14.32244 -14.31809 -10.24751 -10.24232
 Alpha  occ. eigenvalues --  -10.23886 -10.20945 -10.20540 -10.20140 -10.20101
 Alpha  occ. eigenvalues --  -10.19083 -10.18814 -10.18793 -10.18667 -10.18471
 Alpha  occ. eigenvalues --  -10.18409 -10.18407 -10.18311 -10.18299 -10.18253
 Alpha  occ. eigenvalues --  -10.18233 -10.18161 -10.18080 -10.17989 -10.17917
 Alpha  occ. eigenvalues --  -10.17828 -10.17543 -10.17532 -10.17508 -10.17119
 Alpha  occ. eigenvalues --  -10.17036  -1.06460  -0.95966  -0.88083  -0.85059
 Alpha  occ. eigenvalues --   -0.84550  -0.83910  -0.81604  -0.76748  -0.76191
 Alpha  occ. eigenvalues --   -0.74852  -0.74571  -0.73574  -0.73301  -0.72757
 Alpha  occ. eigenvalues --   -0.72492  -0.70004  -0.67844  -0.65217  -0.62349
 Alpha  occ. eigenvalues --   -0.61127  -0.59894  -0.59668  -0.59039  -0.58680
 Alpha  occ. eigenvalues --   -0.57638  -0.56448  -0.55545  -0.55226  -0.53164
 Alpha  occ. eigenvalues --   -0.50771  -0.50481  -0.48845  -0.48108  -0.47443
 Alpha  occ. eigenvalues --   -0.46927  -0.46898  -0.46035  -0.45153  -0.44869
 Alpha  occ. eigenvalues --   -0.44552  -0.44033  -0.43738  -0.43312  -0.42731
 Alpha  occ. eigenvalues --   -0.42386  -0.42057  -0.41242  -0.40976  -0.40957
 Alpha  occ. eigenvalues --   -0.40508  -0.40184  -0.39779  -0.38512  -0.37634
 Alpha  occ. eigenvalues --   -0.37376  -0.36707  -0.36199  -0.35781  -0.35392
 Alpha  occ. eigenvalues --   -0.34853  -0.34583  -0.33927  -0.33735  -0.33243
 Alpha  occ. eigenvalues --   -0.33139  -0.32937  -0.32542  -0.32444  -0.31861
 Alpha  occ. eigenvalues --   -0.31640  -0.30587  -0.29293  -0.25082  -0.24296
 Alpha  occ. eigenvalues --   -0.24027  -0.23690  -0.23294  -0.22538  -0.21205
 Alpha  occ. eigenvalues --   -0.19789
 Alpha virt. eigenvalues --   -0.00371   0.00156   0.00529   0.00695   0.00809
 Alpha virt. eigenvalues --    0.01425   0.08627   0.09472   0.09702   0.09959
 Alpha virt. eigenvalues --    0.10205   0.10718   0.12039   0.12381   0.13200

 Mulliken charges:
               1
     1  C   -0.215144
     2  O   -0.505791
     3  C    0.377315
     4  C   -0.175055
     5  C   -0.174866
     6  C    0.155633
     7  C    0.142227
     8  N   -0.473767
     9  C   -0.212786
    10  C    0.165767
    11  C   -0.191521
    12  C   -0.128254
    13  C   -0.130987
    14  C   -0.131956
    15  C   -0.166221
    16  C    0.072044
    17  C   -0.270119
    18  C   -0.267873
    19  C   -0.267997
    20  C   -0.270917
    21  C    0.067943
    22  N   -0.463152
    23  C   -0.215225
    24  C    0.162580
    25  C   -0.191066
    26  C   -0.128482
    27  C   -0.129893
    28  C   -0.132645
    29  C   -0.165821
    30  C   -0.205422
    31  C   -0.195860
    32  H    0.152445
    33  H    0.152515
    34  H    0.170304
    35  H    0.138047
    36  H    0.142760
    37  H    0.109035
    38  H    0.166096
    39  H    0.125318
    40  H    0.120273
    41  H    0.124951
    42  H    0.124121
    43  H    0.124507
    44  H    0.132839
    45  H    0.103150
    46  H    0.136335
    47  H    0.146052
    48  H    0.133587
    49  H    0.130193
    50  H    0.133435
    51  H    0.130508
    52  H    0.135151
    53  H    0.148601
    54  H    0.102809
    55  H    0.121020
    56  H    0.161424
    57  H    0.121448
    58  H    0.126259
    59  H    0.125879
    60  H    0.126987
    61  H    0.141245
    62  H    0.128744
    63  H    0.131271
 Sum of Mulliken charges =  -0.00000

 Dipole moment (field-independent basis, Debye):
    X=              1.3835    Y=              0.0251    Z=              0.6347  Tot=              1.5223
 Quadrupole moment (field-independent basis, Debye-Ang):
   XX=           -165.5741   YY=           -182.1778   ZZ=           -176.7612
   XY=              4.3410   XZ=              1.9334   YZ=             -0.6049

 Normal termination of Gaussian 16 at Sat Nov  5 09:56:23 2022.
