 Gaussian 16, Revision B.01,
 Gaussian 16:  ES64L-G16RevB.01 20-Dec-2017

 -------------------------------------------------------------------
 #p b3lyp/6-31g(d) 6D 10F nosymm GFInput td=(50-50,nstate=2) SCF=XQC
 -------------------------------------------------------------------

 ------------------------------
 Gaussian input prepared by ASE
 ------------------------------
 Symbolic Z-matrix:
 Charge =  0 Multiplicity = 1

                          Input orientation:
 ---------------------------------------------------------------------
 Center     Atomic      Atomic             Coordinates (Angstroms)
 Number     Number       Type             X           Y           Z
 ---------------------------------------------------------------------
      1          6           0        1.814447   -1.672509    1.924725
      2          6           0        1.067514   -0.551787    1.242594
      3          7           0       -0.239362   -0.775469    1.051197
      4          6           0       -1.014317    0.142378    0.450634
      5          7           0       -2.358638   -0.208111    0.279016
      6          6           0       -2.720510   -1.625008    0.153414
      7          6           0       -3.267874   -1.883517   -1.252366
      8          6           0       -4.531864   -1.044945   -1.480299
      9          6           0       -4.447377    0.342789   -0.866979
     10          6           0       -5.470920    1.266368   -1.112339
     11          6           0       -5.473099    2.535152   -0.540516
     12          6           0       -4.434264    2.890353    0.323625
     13          6           0       -3.410626    1.989427    0.592413
     14          6           0       -3.384878    0.719564   -0.015810
     15          6           0       -0.478397    1.361856   -0.004364
     16          6           0        0.869942    1.596595    0.215292
     17          6           0        1.687892    0.650959    0.843690
     18          6           0        3.162130    0.967126    1.038966
     19          8           0        3.461798    0.913310    2.435520
     20          6           0        4.101947    0.094370    0.198199
     21          6           0        4.084937    0.213219   -1.198746
     22          6           0        4.949428   -0.540410   -1.989567
     23          6           0        5.852057   -1.426884   -1.394886
     24          6           0        5.877362   -1.551254   -0.006823
     25          6           0        5.007440   -0.795201    0.784394
     26          1           0        2.384384   -1.299907    2.779880
     27          1           0        2.528993   -2.144867    1.239920
     28          1           0        1.098132   -2.426733    2.257066
     29          1           0       -3.477359   -1.872774    0.910703
     30          1           0       -1.829819   -2.212587    0.367554
     31          1           0       -2.491654   -1.618060   -1.980980
     32          1           0       -3.487705   -2.949468   -1.386654
     33          1           0       -5.393193   -1.565927   -1.036935
     34          1           0       -4.751953   -0.965061   -2.552574
     35          1           0       -6.284128    0.972598   -1.773700
     36          1           0       -6.277892    3.232566   -0.754889
     37          1           0       -4.428431    3.864681    0.805175
     38          1           0       -2.625794    2.256751    1.291779
     39          1           0       -1.089476    2.089529   -0.523046
     40          1           0        1.302571    2.536619   -0.121830
     41          1           0        3.300369    2.002173    0.686356
     42          1           0        4.387868    1.185830    2.541233
     43          1           0        3.384235    0.899513   -1.669386
     44          1           0        4.921525   -0.434841   -3.071042
     45          1           0        6.528395   -2.013760   -2.010525
     46          1           0        6.572956   -2.239478    0.466667
     47          1           0        5.023209   -0.905169    1.864243
 ---------------------------------------------------------------------

 SCF Done:  E(RB3LYP) =  -1036.32170929     A.U. after   14 cycles

 Excitation energies and oscillator strengths:

 Excited state symmetry could not be determined.
 Excited State   1:      Triplet-?Sym    3.1414 eV  394.67 nm  f=0.0000  <S**2>=2.000
      87 -> 92         0.10122
      88 -> 89         0.45262
      88 -> 90         0.41136
      88 -> 91        -0.11814
      88 -> 92        -0.17493
 This state for optimization and/or second-order correction.
 Total Energy, E(TD-HF/TD-DFT) =  -1036.20626351
 Copying the excited state density for this state as the 1-particle RhoCI density.

 Excited state symmetry could not be determined.
 Excited State   2:      Triplet-?Sym    3.4412 eV  360.29 nm  f=0.0000  <S**2>=2.000
      88 -> 89        -0.41364
      88 -> 90         0.50842
      88 -> 93         0.14152

 Excited state symmetry could not be determined.
 Excited State   3:      Singlet-?Sym    4.0407 eV  306.84 nm  f=0.0664  <S**2>=0.000
      88 -> 89        -0.43069
      88 -> 90         0.54166

 Excited state symmetry could not be determined.
 Excited State   4:      Singlet-?Sym    4.1341 eV  299.90 nm  f=0.4467  <S**2>=0.000
      88 -> 89         0.54368
      88 -> 90         0.42652

 Alpha  occ. eigenvalues --  -19.15075 -14.35470 -14.31121 -10.25275 -10.24817
 Alpha  occ. eigenvalues --  -10.22336 -10.22197 -10.20767 -10.19644 -10.19624
 Alpha  occ. eigenvalues --  -10.19110 -10.19089 -10.19015 -10.18941 -10.18931
 Alpha  occ. eigenvalues --  -10.18833 -10.18828 -10.18551 -10.18359 -10.18345
 Alpha  occ. eigenvalues --  -10.18245 -10.18195 -10.18116 -10.17957 -10.16218
 Alpha  occ. eigenvalues --   -1.02429  -0.96959  -0.91433  -0.85391  -0.84159
 Alpha  occ. eigenvalues --   -0.80244  -0.79971  -0.77177  -0.75359  -0.74376
 Alpha  occ. eigenvalues --   -0.74323  -0.72836  -0.70034  -0.68091  -0.64719
 Alpha  occ. eigenvalues --   -0.62589  -0.61722  -0.60469  -0.59556  -0.58995
 Alpha  occ. eigenvalues --   -0.57811  -0.55037  -0.52801  -0.52121  -0.51004
 Alpha  occ. eigenvalues --   -0.48896  -0.48575  -0.47358  -0.46796  -0.45697
 Alpha  occ. eigenvalues --   -0.44937  -0.44413  -0.43363  -0.42829  -0.42551
 Alpha  occ. eigenvalues --   -0.42223  -0.41923  -0.41328  -0.41044  -0.40604
 Alpha  occ. eigenvalues --   -0.39749  -0.38689  -0.37949  -0.37582  -0.36655
 Alpha  occ. eigenvalues --   -0.36224  -0.35996  -0.35463  -0.35115  -0.34100
 Alpha  occ. eigenvalues --   -0.33668  -0.33138  -0.32885  -0.32542  -0.29385
 Alpha  occ. eigenvalues --   -0.27822  -0.26934  -0.25188  -0.24912  -0.24307
 Alpha  occ. eigenvalues --   -0.23948  -0.23559  -0.18359
 Alpha virt. eigenvalues --   -0.01358  -0.00923  -0.00334   0.00287   0.00470
 Alpha virt. eigenvalues --    0.02738   0.07575   0.09853   0.10016   0.10501
 Alpha virt. eigenvalues --    0.10588   0.12840   0.13721   0.13931   0.14569

 Mulliken charges:
               1
     1  C   -0.531798
     2  C    0.275675
     3  N   -0.560715
     4  C    0.488084
     5  N   -0.573570
     6  C   -0.162098
     7  C   -0.270659
     8  C   -0.340255
     9  C    0.124186
    10  C   -0.199658
    11  C   -0.127835
    12  C   -0.143751
    13  C   -0.174918
    14  C    0.279649
    15  C   -0.186967
    16  C   -0.173790
    17  C    0.144950
    18  C   -0.022226
    19  O   -0.624380
    20  C    0.129826
    21  C   -0.173463
    22  C   -0.131366
    23  C   -0.129112
    24  C   -0.127861
    25  C   -0.199380
    26  H    0.182669
    27  H    0.167105
    28  H    0.161920
    29  H    0.146159
    30  H    0.190644
    31  H    0.148483
    32  H    0.137330
    33  H    0.153774
    34  H    0.151250
    35  H    0.120011
    36  H    0.123853
    37  H    0.127184
    38  H    0.146628
    39  H    0.149769
    40  H    0.129634
    41  H    0.130761
    42  H    0.392601
    43  H    0.128016
    44  H    0.130611
    45  H    0.129602
    46  H    0.130206
    47  H    0.133222
 Sum of Mulliken charges =  -0.00000

 Dipole moment (field-independent basis, Debye):
    X=              1.1401    Y=              0.3935    Z=             -1.7394  Tot=              2.1167
 Quadrupole moment (field-independent basis, Debye-Ang):
   XX=           -127.4375   YY=           -137.8593   ZZ=           -145.5210
   XY=              1.6265   XZ=              4.9466   YZ=              1.6460

 Normal termination of Gaussian 16 at Sat Nov  5 09:48:47 2022.
