 Gaussian 16, Revision B.01,
 Gaussian 16:  ES64L-G16RevB.01 20-Dec-2017

 -----------------------------
 #p b3lyp/6-31g(d) opt SCF=XQC
 -----------------------------

 ------------------------------
 Gaussian input prepared by ASE
 ------------------------------
 Symbolic Z-matrix:
 Charge =  0 Multiplicity = 1

 SCF Done:  E(RB3LYP) =  -1036.31508198     A.U. after   14 cycles
 SCF Done:  E(RB3LYP) =  -1036.32090392     A.U. after   12 cycles
 SCF Done:  E(RB3LYP) =  -1036.32153201     A.U. after   12 cycles
 SCF Done:  E(RB3LYP) =  -1036.32168130     A.U. after   11 cycles
 SCF Done:  E(RB3LYP) =  -1036.32169505     A.U. after   10 cycles
 SCF Done:  E(RB3LYP) =  -1036.32170375     A.U. after    9 cycles
 SCF Done:  E(RB3LYP) =  -1036.32170699     A.U. after    8 cycles
 SCF Done:  E(RB3LYP) =  -1036.32170926     A.U. after    9 cycles
 SCF Done:  E(RB3LYP) =  -1036.32171030     A.U. after    9 cycles
 SCF Done:  E(RB3LYP) =  -1036.32171097     A.U. after    8 cycles
 SCF Done:  E(RB3LYP) =  -1036.32171158     A.U. after    8 cycles
 SCF Done:  E(RB3LYP) =  -1036.32171176     A.U. after    7 cycles
 Optimization completed.
    -- Stationary point found.

                         Standard orientation:
 ---------------------------------------------------------------------
 Center     Atomic      Atomic             Coordinates (Angstroms)
 Number     Number       Type             X           Y           Z
 ---------------------------------------------------------------------
      1          6           0       -2.123113    0.560303    2.207163
      2          6           0       -1.181522   -0.046404    1.194966
      3          7           0        0.090791    0.362504    1.287727
      4          6           0        1.026000   -0.099726    0.441911
      5          7           0        2.316118    0.415686    0.613496
      6          6           0        2.482656    1.759372    1.180150
      7          6           0        3.081953    2.684372    0.118138
      8          6           0        4.463857    2.167451   -0.301339
      9          6           0        4.534232    0.652005   -0.388375
     10          6           0        5.691776    0.045253   -0.891149
     11          6           0        5.833822   -1.337872   -0.951042
     12          6           0        4.799297   -2.146269   -0.473195
     13          6           0        3.643263   -1.570288    0.040204
     14          6           0        3.480246   -0.171739    0.065401
     15          6           0        0.699011   -1.019087   -0.572590
     16          6           0       -0.614611   -1.454646   -0.650404
     17          6           0       -1.598079   -0.984694    0.227143
     18          6           0       -3.022949   -1.492909    0.075707
     19          8           0       -3.420915   -2.114324    1.299849
     20          6           0       -4.017228   -0.424904   -0.396125
     21          6           0       -3.889277    0.112526   -1.684793
     22          6           0       -4.795766    1.059482   -2.156228
     23          6           0       -5.852269    1.484628   -1.345507
     24          6           0       -5.988590    0.955368   -0.063272
     25          6           0       -5.076423    0.006601    0.408106
     26          1           0       -2.691433   -0.215044    2.727549
     27          1           0       -2.849081    1.224281    1.722642
     28          1           0       -1.544181    1.141909    2.927568
     29          1           0        3.144171    1.702395    2.055846
     30          1           0        1.505726    2.096130    1.521673
     31          1           0        2.401855    2.710735   -0.742464
     32          1           0        3.158164    3.708551    0.502666
     33          1           0        5.211344    2.505750    0.431258
     34          1           0        4.764967    2.609558   -1.259707
     35          1           0        6.498379    0.685033   -1.244817
     36          1           0        6.741378   -1.779682   -1.352513
     37          1           0        4.898094   -3.228578   -0.482525
     38          1           0        2.858398   -2.201456    0.442885
     39          1           0        1.440056   -1.366338   -1.281269
     40          1           0       -0.886868   -2.171415   -1.422792
     41          1           0       -2.990007   -2.258715   -0.716266
     42          1           0       -4.304427   -2.491097    1.156682
     43          1           0       -3.068777   -0.211735   -2.321285
     44          1           0       -4.680248    1.464957   -3.158106
     45          1           0       -6.561287    2.221668   -1.712841
     46          1           0       -6.804508    1.280509    0.577241
     47          1           0       -5.180465   -0.393095    1.412016
 ---------------------------------------------------------------------

 The electronic state is 1-A.
 Alpha  occ. eigenvalues --  -19.15075 -14.35470 -14.31121 -10.25275 -10.24817
 Alpha  occ. eigenvalues --  -10.22336 -10.22197 -10.20767 -10.19644 -10.19624
 Alpha  occ. eigenvalues --  -10.19110 -10.19089 -10.19016 -10.18941 -10.18931
 Alpha  occ. eigenvalues --  -10.18833 -10.18828 -10.18551 -10.18359 -10.18345
 Alpha  occ. eigenvalues --  -10.18245 -10.18195 -10.18116 -10.17957 -10.16218
 Alpha  occ. eigenvalues --   -1.02429  -0.96959  -0.91433  -0.85391  -0.84160
 Alpha  occ. eigenvalues --   -0.80244  -0.79971  -0.77177  -0.75359  -0.74376
 Alpha  occ. eigenvalues --   -0.74323  -0.72836  -0.70034  -0.68091  -0.64719
 Alpha  occ. eigenvalues --   -0.62589  -0.61722  -0.60469  -0.59556  -0.58995
 Alpha  occ. eigenvalues --   -0.57811  -0.55037  -0.52801  -0.52121  -0.51004
 Alpha  occ. eigenvalues --   -0.48896  -0.48575  -0.47358  -0.46796  -0.45697
 Alpha  occ. eigenvalues --   -0.44937  -0.44413  -0.43363  -0.42829  -0.42551
 Alpha  occ. eigenvalues --   -0.42223  -0.41923  -0.41328  -0.41044  -0.40604
 Alpha  occ. eigenvalues --   -0.39749  -0.38689  -0.37949  -0.37582  -0.36655
 Alpha  occ. eigenvalues --   -0.36224  -0.35996  -0.35463  -0.35115  -0.34100
 Alpha  occ. eigenvalues --   -0.33668  -0.33138  -0.32885  -0.32542  -0.29385
 Alpha  occ. eigenvalues --   -0.27822  -0.26934  -0.25188  -0.24912  -0.24307
 Alpha  occ. eigenvalues --   -0.23948  -0.23559  -0.18359
 Alpha virt. eigenvalues --   -0.01358  -0.00923  -0.00334   0.00287   0.00470
 Alpha virt. eigenvalues --    0.02738   0.07575   0.09853   0.10016   0.10501
 Alpha virt. eigenvalues --    0.10588   0.12840   0.13721   0.13931   0.14569

 Mulliken charges:
               1
     1  C   -0.531795
     2  C    0.275698
     3  N   -0.560725
     4  C    0.488109
     5  N   -0.573566
     6  C   -0.162110
     7  C   -0.270665
     8  C   -0.340225
     9  C    0.124150
    10  C   -0.199660
    11  C   -0.127836
    12  C   -0.143753
    13  C   -0.174913
    14  C    0.279658
    15  C   -0.186987
    16  C   -0.173762
    17  C    0.144910
    18  C   -0.022215
    19  O   -0.624377
    20  C    0.129811
    21  C   -0.173453
    22  C   -0.131367
    23  C   -0.129114
    24  C   -0.127862
    25  C   -0.199381
    26  H    0.182668
    27  H    0.167104
    28  H    0.161921
    29  H    0.146163
    30  H    0.190642
    31  H    0.148480
    32  H    0.137331
    33  H    0.153772
    34  H    0.151248
    35  H    0.120012
    36  H    0.123853
    37  H    0.127184
    38  H    0.146628
    39  H    0.149769
    40  H    0.129631
    41  H    0.130761
    42  H    0.392600
    43  H    0.128016
    44  H    0.130611
    45  H    0.129602
    46  H    0.130206
    47  H    0.133225
 Sum of Mulliken charges =  -0.00000

 Dipole moment (field-independent basis, Debye):
    X=             -0.9532    Y=              0.3425    Z=             -1.8586  Tot=              2.1167
 Quadrupole moment (field-independent basis, Debye-Ang):
   XX=           -127.6152   YY=           -137.2502   ZZ=           -145.8508
   XY=              4.2791   XZ=             -1.6503   YZ=              2.1391

 Normal termination of Gaussian 16 at Fri Nov  4 22:43:19 2022.
