 Gaussian 16, Revision B.01,
 Gaussian 16:  ES64L-G16RevB.01 20-Dec-2017

 -----------------------------
 #p b3lyp/6-31g(d) opt SCF=XQC
 -----------------------------

 ------------------------------
 Gaussian input prepared by ASE
 ------------------------------
 Symbolic Z-matrix:
 Charge =  0 Multiplicity = 1

 SCF Done:  E(RB3LYP) =  -1411.97817987     A.U. after   16 cycles
 SCF Done:  E(RB3LYP) =  -1411.98474900     A.U. after   14 cycles
 SCF Done:  E(RB3LYP) =  -1411.98543919     A.U. after   12 cycles
 SCF Done:  E(RB3LYP) =  -1411.98534245     A.U. after   12 cycles
 SCF Done:  E(RB3LYP) =  -1411.98587574     A.U. after   12 cycles
 SCF Done:  E(RB3LYP) =  -1411.98597299     A.U. after   12 cycles
 SCF Done:  E(RB3LYP) =  -1411.98599226     A.U. after   11 cycles
 SCF Done:  E(RB3LYP) =  -1411.98601089     A.U. after   10 cycles
 SCF Done:  E(RB3LYP) =  -1411.98601762     A.U. after   10 cycles
 SCF Done:  E(RB3LYP) =  -1411.98601853     A.U. after    9 cycles
 SCF Done:  E(RB3LYP) =  -1411.98601936     A.U. after    8 cycles
 SCF Done:  E(RB3LYP) =  -1411.98601980     A.U. after    9 cycles
 SCF Done:  E(RB3LYP) =  -1411.98601991     A.U. after    8 cycles
 SCF Done:  E(RB3LYP) =  -1411.98601993     A.U. after    7 cycles
 Optimization completed.
    -- Stationary point found.

                         Standard orientation:
 ---------------------------------------------------------------------
 Center     Atomic      Atomic             Coordinates (Angstroms)
 Number     Number       Type             X           Y           Z
 ---------------------------------------------------------------------
      1          7           0       -1.396636   -5.030696   -0.856700
      2          6           0       -1.626569   -3.898489   -0.691594
      3          6           0       -1.931526   -2.521467   -0.539684
      4          6           0       -2.597185   -1.909552   -1.556985
      5          7           0       -3.065908   -2.492962   -2.702125
      6          8           0       -2.943544   -0.584418   -1.524718
      7          6           0       -2.805488    0.097436   -0.341516
      8          6           0       -2.168704   -0.426007    0.735109
      9          6           0       -2.148327    0.320480    1.990772
     10          8           0       -1.695785   -0.083492    3.036252
     11          8           0       -2.708871    1.596550    1.978941
     12          6           0       -3.305225    2.129602    0.875035
     13          6           0       -3.834205    3.416694    0.989562
     14          6           0       -4.465400    3.989510   -0.108599
     15          6           0       -4.574403    3.286776   -1.318143
     16          6           0       -4.047189    2.007969   -1.428707
     17          6           0       -3.400245    1.412793   -0.330785
     18          6           0       -1.471574   -1.771510    0.703120
     19          6           0        0.052756   -1.619195    0.774997
     20          6           0        0.743346   -1.925863    1.955176
     21          6           0        2.123253   -1.785796    2.033990
     22          6           0        2.849230   -1.327445    0.926739
     23          8           0        4.204460   -1.237411    1.107632
     24          6           0        5.040156   -0.950463   -0.010483
     25          6           0        5.084948    0.515847   -0.399023
     26          6           0        4.907784    1.519118    0.560316
     27          6           0        5.006912    2.863462    0.201118
     28          6           0        5.292377    3.220816   -1.118429
     29          6           0        5.472624    2.225099   -2.079780
     30          6           0        5.364507    0.880450   -1.721162
     31          6           0        2.175019   -1.003903   -0.256366
     32          6           0        0.788741   -1.155675   -0.317899
     33          1           0       -3.223289   -1.872562   -3.484869
     34          1           0       -2.673389   -3.396197   -2.935501
     35          1           0       -3.741976    3.937884    1.936414
     36          1           0       -4.879093    4.990227   -0.024320
     37          1           0       -5.071971    3.742517   -2.168643
     38          1           0       -4.125422    1.454031   -2.357544
     39          1           0       -1.781414   -2.328503    1.595418
     40          1           0        0.190351   -2.268864    2.824501
     41          1           0        2.661857   -2.031857    2.943724
     42          1           0        6.033464   -1.280873    0.314052
     43          1           0        4.753731   -1.571292   -0.870255
     44          1           0        4.682607    1.239762    1.585126
     45          1           0        4.861386    3.633686    0.954022
     46          1           0        5.370347    4.268540   -1.396192
     47          1           0        5.689711    2.493608   -3.110387
     48          1           0        5.499114    0.108071   -2.476324
     49          1           0        2.709033   -0.619610   -1.117231
     50          1           0        0.279014   -0.906918   -1.245745
 ---------------------------------------------------------------------

 The electronic state is 1-A.
 Alpha  occ. eigenvalues --  -19.24369 -19.21943 -19.17635 -19.13678 -14.38206
 Alpha  occ. eigenvalues --  -14.32459 -10.32648 -10.32471 -10.29669 -10.28039
 Alpha  occ. eigenvalues --  -10.24787 -10.24444 -10.22968 -10.22635 -10.22454
 Alpha  occ. eigenvalues --  -10.22140 -10.22077 -10.21956 -10.21796 -10.21263
 Alpha  occ. eigenvalues --  -10.21147 -10.19994 -10.19418 -10.19361 -10.19218
 Alpha  occ. eigenvalues --  -10.19160 -10.18967 -10.18913 -10.18912 -10.18495
 Alpha  occ. eigenvalues --  -10.18429 -10.17969  -1.14110  -1.12102  -1.06144
 Alpha  occ. eigenvalues --   -1.03310  -0.95692  -0.89490  -0.88408  -0.86434
 Alpha  occ. eigenvalues --   -0.85710  -0.84038  -0.82086  -0.77783  -0.77423
 Alpha  occ. eigenvalues --   -0.76955  -0.74808  -0.74538  -0.74219  -0.71033
 Alpha  occ. eigenvalues --   -0.70293  -0.67675  -0.65785  -0.63713  -0.61256
 Alpha  occ. eigenvalues --   -0.60832  -0.60618  -0.59771  -0.59023  -0.57712
 Alpha  occ. eigenvalues --   -0.57158  -0.55324  -0.53276  -0.52839  -0.51988
 Alpha  occ. eigenvalues --   -0.51450  -0.50367  -0.49026  -0.48589  -0.47812
 Alpha  occ. eigenvalues --   -0.47108  -0.46914  -0.46697  -0.45950  -0.44901
 Alpha  occ. eigenvalues --   -0.44665  -0.44076  -0.43967  -0.43670  -0.43305
 Alpha  occ. eigenvalues --   -0.42069  -0.41970  -0.41171  -0.40362  -0.39760
 Alpha  occ. eigenvalues --   -0.39496  -0.38499  -0.38377  -0.37941  -0.36764
 Alpha  occ. eigenvalues --   -0.36548  -0.35931  -0.35420  -0.35043  -0.34688
 Alpha  occ. eigenvalues --   -0.34405  -0.34231  -0.33589  -0.32289  -0.32138
 Alpha  occ. eigenvalues --   -0.31024  -0.30145  -0.28242  -0.26198  -0.25244
 Alpha  occ. eigenvalues --   -0.25011  -0.24507  -0.24080  -0.22655  -0.21292
 Alpha virt. eigenvalues --   -0.07178  -0.02084  -0.01552  -0.00774  -0.00456
 Alpha virt. eigenvalues --    0.00300   0.00553   0.01719   0.03016   0.05806
 Alpha virt. eigenvalues --    0.07506   0.08148   0.09255   0.09375   0.10237

 Mulliken charges:
               1
     1  N   -0.506075
     2  C    0.231195
     3  C    0.056553
     4  C    0.537143
     5  N   -0.785991
     6  O   -0.554536
     7  C    0.302049
     8  C    0.019422
     9  C    0.582780
    10  O   -0.464186
    11  O   -0.520449
    12  C    0.309901
    13  C   -0.175233
    14  C   -0.127317
    15  C   -0.135404
    16  C   -0.176355
    17  C    0.074134
    18  C   -0.292170
    19  C    0.197890
    20  C   -0.172487
    21  C   -0.178244
    22  C    0.375112
    23  O   -0.525016
    24  C   -0.113527
    25  C    0.120291
    26  C   -0.164853
    27  C   -0.129254
    28  C   -0.128212
    29  C   -0.128951
    30  C   -0.181241
    31  C   -0.179345
    32  C   -0.195910
    33  H    0.347235
    34  H    0.363876
    35  H    0.161752
    36  H    0.147087
    37  H    0.142052
    38  H    0.149648
    39  H    0.179638
    40  H    0.148014
    41  H    0.140709
    42  H    0.173419
    43  H    0.149362
    44  H    0.149154
    45  H    0.133829
    46  H    0.130346
    47  H    0.130400
    48  H    0.123868
    49  H    0.139475
    50  H    0.118423
 Sum of Mulliken charges =  -0.00000

 Dipole moment (field-independent basis, Debye):
    X=             -1.3932    Y=              5.3346    Z=             -5.8387  Tot=              8.0305
 Quadrupole moment (field-independent basis, Debye-Ang):
   XX=           -162.0221   YY=           -192.4050   ZZ=           -170.5417
   XY=            -10.7750   XZ=              8.1635   YZ=              0.6382

 Normal termination of Gaussian 16 at Fri Nov  4 22:53:25 2022.
