 Gaussian 16, Revision B.01,
 Gaussian 16:  ES64L-G16RevB.01 20-Dec-2017

 -------------------------------------------------------------------
 #p b3lyp/6-31g(d) 6D 10F nosymm GFInput td=(50-50,nstate=2) SCF=XQC
 -------------------------------------------------------------------

 ------------------------------
 Gaussian input prepared by ASE
 ------------------------------
 Symbolic Z-matrix:
 Charge =  0 Multiplicity = 1

                          Input orientation:
 ---------------------------------------------------------------------
 Center     Atomic      Atomic             Coordinates (Angstroms)
 Number     Number       Type             X           Y           Z
 ---------------------------------------------------------------------
      1          7           0       -1.016893    5.275685   -0.435329
      2          6           0       -1.384660    4.185449   -0.239992
      3          6           0       -1.845489    2.875244    0.048564
      4          6           0       -2.320342    2.638176    1.301862
      5          7           0       -2.461808    3.547661    2.313909
      6          8           0       -2.789473    1.413169    1.697157
      7          6           0       -2.986585    0.449897    0.739450
      8          6           0       -2.561489    0.592062   -0.540273
      9          6           0       -2.895162   -0.433112   -1.526188
     10          8           0       -2.653084   -0.370010   -2.708742
     11          8           0       -3.557408   -1.568072   -1.061428
     12          6           0       -3.938074   -1.718861    0.238858
     13          6           0       -4.599183   -2.900034    0.581359
     14          6           0       -5.018709   -3.085067    1.893702
     15          6           0       -4.785514   -2.099729    2.865011
     16          6           0       -4.127796   -0.927195    2.521357
     17          6           0       -3.690818   -0.723058    1.200153
     18          6           0       -1.750334    1.783669   -1.008774
     19          6           0       -0.302810    1.390554   -1.328277
     20          6           0        0.130557    1.291649   -2.657260
     21          6           0        1.437635    0.930327   -2.958867
     22          6           0        2.347116    0.652700   -1.929838
     23          8           0        3.612061    0.318057   -2.336542
     24          6           0        4.646680    0.190737   -1.364812
     25          6           0        4.638090   -1.125515   -0.609537
     26          6           0        4.155098   -2.294427   -1.208398
     27          6           0        4.204196   -3.509215   -0.524299
     28          6           0        4.743861   -3.571820    0.762261
     29          6           0        5.229578   -2.410116    1.364474
     30          6           0        5.171922   -1.193541    0.682568
     31          6           0        1.928687    0.733690   -0.596672
     32          6           0        0.612656    1.102957   -0.313312
     33          1           0       -2.497341    3.168533    3.250580
     34          1           0       -1.942792    4.410774    2.213773
     35          1           0       -4.772292   -3.644709   -0.188164
     36          1           0       -5.533988   -4.001903    2.164956
     37          1           0       -5.120036   -2.253318    3.886348
     38          1           0       -3.942054   -0.157666    3.262324
     39          1           0       -2.198547    2.145657   -1.941784
     40          1           0       -0.568629    1.490912   -3.463866
     41          1           0        1.778689    0.862403   -3.987131
     42          1           0        5.568327    0.278218   -1.951385
     43          1           0        4.621359    1.038814   -0.667100
     44          1           0        3.732777   -2.243538   -2.207415
     45          1           0        3.820479   -4.409182   -0.997698
     46          1           0        4.782328   -4.519215    1.293224
     47          1           0        5.646388   -2.447980    2.367574
     48          1           0        5.545764   -0.289312    1.159611
     49          1           0        2.603636    0.495666    0.216795
     50          1           0        0.303422    1.168378    0.727215
 ---------------------------------------------------------------------

 SCF Done:  E(RB3LYP) =  -1411.98602178     A.U. after   16 cycles

 Excitation energies and oscillator strengths:

 Excited state symmetry could not be determined.
 Excited State   1:      Triplet-?Sym    2.8010 eV  442.64 nm  f=0.0000  <S**2>=2.000
     104 ->111         0.21834
     106 ->111         0.11848
     107 ->111         0.28008
     108 ->111         0.39539
     109 ->111         0.37357
     110 ->111         0.17728
 This state for optimization and/or second-order correction.
 Total Energy, E(TD-HF/TD-DFT) =  -1411.88308681
 Copying the excited state density for this state as the 1-particle RhoCI density.

 Excited state symmetry could not be determined.
 Excited State   2:      Triplet-?Sym    2.9894 eV  414.75 nm  f=0.0000  <S**2>=2.000
     109 ->111        -0.36555
     109 ->112         0.12145
     109 ->113         0.21186
     110 ->111         0.49627
     110 ->113        -0.11984

 Excited state symmetry could not be determined.
 Excited State   3:      Singlet-?Sym    3.2949 eV  376.29 nm  f=0.0714  <S**2>=0.000
     109 ->111        -0.10844
     110 ->111         0.69562

 Excited state symmetry could not be determined.
 Excited State   4:      Singlet-?Sym    3.5920 eV  345.16 nm  f=0.0214  <S**2>=0.000
     109 ->111         0.69451
     110 ->111         0.10680

 Alpha  occ. eigenvalues --  -19.24369 -19.21943 -19.17635 -19.13678 -14.38206
 Alpha  occ. eigenvalues --  -14.32459 -10.32648 -10.32471 -10.29669 -10.28039
 Alpha  occ. eigenvalues --  -10.24787 -10.24444 -10.22968 -10.22635 -10.22454
 Alpha  occ. eigenvalues --  -10.22140 -10.22077 -10.21956 -10.21796 -10.21262
 Alpha  occ. eigenvalues --  -10.21147 -10.19994 -10.19419 -10.19361 -10.19218
 Alpha  occ. eigenvalues --  -10.19160 -10.18967 -10.18913 -10.18912 -10.18495
 Alpha  occ. eigenvalues --  -10.18429 -10.17969  -1.14110  -1.12102  -1.06144
 Alpha  occ. eigenvalues --   -1.03310  -0.95692  -0.89490  -0.88408  -0.86433
 Alpha  occ. eigenvalues --   -0.85710  -0.84038  -0.82086  -0.77783  -0.77423
 Alpha  occ. eigenvalues --   -0.76955  -0.74808  -0.74538  -0.74219  -0.71033
 Alpha  occ. eigenvalues --   -0.70293  -0.67675  -0.65785  -0.63712  -0.61256
 Alpha  occ. eigenvalues --   -0.60832  -0.60618  -0.59771  -0.59023  -0.57712
 Alpha  occ. eigenvalues --   -0.57158  -0.55324  -0.53276  -0.52839  -0.51988
 Alpha  occ. eigenvalues --   -0.51450  -0.50367  -0.49026  -0.48589  -0.47812
 Alpha  occ. eigenvalues --   -0.47108  -0.46914  -0.46697  -0.45950  -0.44901
 Alpha  occ. eigenvalues --   -0.44665  -0.44076  -0.43967  -0.43670  -0.43305
 Alpha  occ. eigenvalues --   -0.42069  -0.41970  -0.41171  -0.40362  -0.39760
 Alpha  occ. eigenvalues --   -0.39496  -0.38499  -0.38377  -0.37941  -0.36764
 Alpha  occ. eigenvalues --   -0.36548  -0.35931  -0.35420  -0.35043  -0.34688
 Alpha  occ. eigenvalues --   -0.34405  -0.34231  -0.33589  -0.32289  -0.32138
 Alpha  occ. eigenvalues --   -0.31024  -0.30145  -0.28242  -0.26198  -0.25244
 Alpha  occ. eigenvalues --   -0.25011  -0.24507  -0.24080  -0.22655  -0.21292
 Alpha virt. eigenvalues --   -0.07178  -0.02084  -0.01552  -0.00775  -0.00456
 Alpha virt. eigenvalues --    0.00300   0.00553   0.01719   0.03016   0.05806
 Alpha virt. eigenvalues --    0.07506   0.08148   0.09255   0.09375   0.10237

 Mulliken charges:
               1
     1  N   -0.506063
     2  C    0.231181
     3  C    0.056547
     4  C    0.537139
     5  N   -0.785989
     6  O   -0.554538
     7  C    0.302027
     8  C    0.019426
     9  C    0.582765
    10  O   -0.464181
    11  O   -0.520449
    12  C    0.309905
    13  C   -0.175235
    14  C   -0.127316
    15  C   -0.135399
    16  C   -0.176371
    17  C    0.074160
    18  C   -0.292148
    19  C    0.197917
    20  C   -0.172514
    21  C   -0.178245
    22  C    0.375096
    23  O   -0.525007
    24  C   -0.113510
    25  C    0.120261
    26  C   -0.164823
    27  C   -0.129265
    28  C   -0.128206
    29  C   -0.128943
    30  C   -0.181257
    31  C   -0.179332
    32  C   -0.195920
    33  H    0.347235
    34  H    0.363877
    35  H    0.161752
    36  H    0.147087
    37  H    0.142051
    38  H    0.149650
    39  H    0.179636
    40  H    0.148018
    41  H    0.140710
    42  H    0.173419
    43  H    0.149362
    44  H    0.149151
    45  H    0.133830
    46  H    0.130346
    47  H    0.130400
    48  H    0.123870
    49  H    0.139469
    50  H    0.118425
 Sum of Mulliken charges =  -0.00000

 Dipole moment (field-independent basis, Debye):
    X=             -0.5448    Y=             -3.4721    Z=              7.2206  Tot=              8.0305
 Quadrupole moment (field-independent basis, Debye-Ang):
   XX=           -163.9112   YY=           -192.8742   ZZ=           -170.2187
   XY=              6.2492   XZ=            -13.4765   YZ=              7.2394

 Normal termination of Gaussian 16 at Sat Nov  5 09:52:17 2022.
