 Gaussian 16, Revision B.01,
 Gaussian 16:  ES64L-G16RevB.01 20-Dec-2017

 -------------------------------------------------------------------
 #p b3lyp/6-31g(d) 6D 10F nosymm GFInput td=(50-50,nstate=2) SCF=XQC
 -------------------------------------------------------------------

 ------------------------------
 Gaussian input prepared by ASE
 ------------------------------
 Symbolic Z-matrix:
 Charge =  0 Multiplicity = 1

                          Input orientation:
 ---------------------------------------------------------------------
 Center     Atomic      Atomic             Coordinates (Angstroms)
 Number     Number       Type             X           Y           Z
 ---------------------------------------------------------------------
      1          6           0       -3.317475    3.039032   -0.779790
      2          6           0       -2.796535    1.898383   -0.328299
      3          6           0       -2.966840    1.372836    1.079281
      4          6           0       -3.601174   -0.006003    1.122546
      5          6           0       -4.953871   -0.181757    1.408564
      6          6           0       -5.545407   -1.453262    1.439248
      7          6           0       -4.778330   -2.578111    1.178903
      8          6           0       -3.413317   -2.445973    0.884239
      9          6           0       -2.571569   -3.636196    0.605084
     10          8           0       -3.021074   -4.783075    0.617933
     11          6           0       -1.181840   -3.319712    0.318585
     12          6           0       -0.709270   -2.041543    0.308715
     13          6           0        0.667235   -1.689660    0.023683
     14          6           0        1.152411   -0.427888    0.003182
     15          6           0        2.521199   -0.011067   -0.276706
     16          6           0        3.571667   -0.910213   -0.568329
     17          6           0        4.853043   -0.459123   -0.826468
     18          6           0        5.140758    0.917894   -0.804020
     19          8           0        6.431132    1.253595   -1.071407
     20          6           0        6.787845    2.628828   -1.064293
     21          6           0        4.118374    1.830318   -0.517728
     22          6           0        2.832325    1.358574   -0.259655
     23          8           0       -1.516397   -0.971531    0.570684
     24          6           0       -2.848844   -1.164181    0.857147
     25          1           0       -3.162728    3.372314   -1.802506
     26          1           0       -3.919218    3.685938   -0.144064
     27          1           0       -2.204131    1.274722   -0.997291
     28          1           0       -1.985490    1.329820    1.570866
     29          1           0       -3.583782    2.070430    1.656655
     30          1           0       -5.559521    0.697580    1.614566
     31          1           0       -6.602611   -1.550239    1.668865
     32          1           0       -5.194685   -3.580171    1.194013
     33          1           0       -0.506322   -4.140400    0.104578
     34          1           0        1.309618   -2.541084   -0.182318
     35          1           0        0.457952    0.381875    0.216478
     36          1           0        3.380806   -1.978956   -0.592285
     37          1           0        5.659168   -1.150743   -1.050057
     38          1           0        6.619494    3.082262   -0.078991
     39          1           0        6.229669    3.192402   -1.822968
     40          1           0        7.852683    2.661584   -1.300243
     41          1           0        4.309858    2.896802   -0.493384
     42          1           0        2.045199    2.075697   -0.038748
 ---------------------------------------------------------------------

 SCF Done:  E(RB3LYP) =  -1036.70957116     A.U. after   17 cycles

 Excitation energies and oscillator strengths:

 Excited state symmetry could not be determined.
 Excited State   1:      Triplet-?Sym    2.1273 eV  582.82 nm  f=0.0000  <S**2>=2.000
      79 -> 85        -0.11833
      84 -> 85         0.66492
      84 -> 86        -0.12870
 This state for optimization and/or second-order correction.
 Total Energy, E(TD-HF/TD-DFT) =  -1036.63139327
 Copying the excited state density for this state as the 1-particle RhoCI density.

 Excited state symmetry could not be determined.
 Excited State   2:      Triplet-?Sym    2.9544 eV  419.66 nm  f=0.0000  <S**2>=2.000
      82 -> 85         0.11836
      83 -> 85         0.64342
      83 -> 86         0.20718
      83 -> 89        -0.11644

 Excited state symmetry could not be determined.
 Excited State   3:      Singlet-?Sym    3.3102 eV  374.56 nm  f=0.0000  <S**2>=0.000
      82 -> 85         0.12322
      83 -> 85         0.66906
      83 -> 86         0.15110

 Excited state symmetry could not be determined.
 Excited State   4:      Singlet-?Sym    3.5710 eV  347.19 nm  f=1.0542  <S**2>=0.000
      82 -> 85        -0.11574
      84 -> 85         0.68756

 Alpha  occ. eigenvalues --  -19.22153 -19.19290 -19.10591 -10.27580 -10.26353
 Alpha  occ. eigenvalues --  -10.26284 -10.25634 -10.25264 -10.21069 -10.20752
 Alpha  occ. eigenvalues --  -10.20619 -10.20562 -10.20435 -10.20406 -10.20095
 Alpha  occ. eigenvalues --  -10.20063 -10.20028 -10.19797 -10.19709 -10.19459
 Alpha  occ. eigenvalues --  -10.19359 -10.19285 -10.18825 -10.18200  -1.11176
 Alpha  occ. eigenvalues --   -1.07884  -1.00515  -0.87150  -0.86722  -0.82638
 Alpha  occ. eigenvalues --   -0.80728  -0.78880  -0.77164  -0.76226  -0.75193
 Alpha  occ. eigenvalues --   -0.74247  -0.70942  -0.68685  -0.65554  -0.64928
 Alpha  occ. eigenvalues --   -0.62591  -0.60904  -0.58715  -0.57342  -0.55830
 Alpha  occ. eigenvalues --   -0.55088  -0.54139  -0.51936  -0.51385  -0.49115
 Alpha  occ. eigenvalues --   -0.48631  -0.48088  -0.46877  -0.46720  -0.46503
 Alpha  occ. eigenvalues --   -0.46047  -0.45068  -0.43489  -0.43240  -0.42838
 Alpha  occ. eigenvalues --   -0.42054  -0.41375  -0.40549  -0.40441  -0.39395
 Alpha  occ. eigenvalues --   -0.38837  -0.38110  -0.38043  -0.37402  -0.36557
 Alpha  occ. eigenvalues --   -0.36460  -0.35858  -0.35095  -0.34308  -0.34125
 Alpha  occ. eigenvalues --   -0.33702  -0.30703  -0.26580  -0.26231  -0.26102
 Alpha  occ. eigenvalues --   -0.24967  -0.23227  -0.23167  -0.20919
 Alpha virt. eigenvalues --   -0.07198  -0.02768  -0.01259  -0.00513   0.01367
 Alpha virt. eigenvalues --    0.02474   0.06777   0.07906   0.08718   0.08862
 Alpha virt. eigenvalues --    0.09701   0.10040   0.10913   0.12392   0.12647

 Mulliken charges:
               1
     1  C   -0.339568
     2  C   -0.037496
     3  C   -0.392513
     4  C    0.121578
     5  C   -0.186182
     6  C   -0.125900
     7  C   -0.181088
     8  C    0.066237
     9  C    0.426746
    10  O   -0.524691
    11  C   -0.288649
    12  C    0.412030
    13  C   -0.205525
    14  C   -0.183648
    15  C    0.179889
    16  C   -0.179611
    17  C   -0.172723
    18  C    0.381783
    19  O   -0.500843
    20  C   -0.219127
    21  C   -0.196311
    22  C   -0.204367
    23  O   -0.558495
    24  C    0.237210
    25  H    0.142186
    26  H    0.134716
    27  H    0.141231
    28  H    0.167218
    29  H    0.149240
    30  H    0.132593
    31  H    0.136572
    32  H    0.165284
    33  H    0.151069
    34  H    0.146263
    35  H    0.155790
    36  H    0.137398
    37  H    0.146419
    38  H    0.156813
    39  H    0.156854
    40  H    0.175718
    41  H    0.137973
    42  H    0.137928
 Sum of Mulliken charges =  -0.00000

 Dipole moment (field-independent basis, Debye):
    X=              3.5431    Y=              6.0014    Z=             -0.2461  Tot=              6.9736
 Quadrupole moment (field-independent basis, Debye-Ang):
   XX=           -119.1298   YY=           -148.8894   ZZ=           -140.2288
   XY=             -5.9447   XZ=             -5.7657   YZ=              2.3718

 Normal termination of Gaussian 16 at Sat Nov  5 09:46:42 2022.
