 Gaussian 16, Revision B.01,
 Gaussian 16:  ES64L-G16RevB.01 20-Dec-2017

 -----------------------------
 #p b3lyp/6-31g(d) opt SCF=XQC
 -----------------------------

 ------------------------------
 Gaussian input prepared by ASE
 ------------------------------
 Symbolic Z-matrix:
 Charge =  0 Multiplicity = 1

 SCF Done:  E(RB3LYP) =  -1036.70551697     A.U. after   16 cycles
 SCF Done:  E(RB3LYP) =  -1036.70938318     A.U. after   12 cycles
 SCF Done:  E(RB3LYP) =  -1036.70954535     A.U. after   11 cycles
 SCF Done:  E(RB3LYP) =  -1036.70956745     A.U. after   11 cycles
 SCF Done:  E(RB3LYP) =  -1036.70957221     A.U. after    8 cycles
 SCF Done:  E(RB3LYP) =  -1036.70957416     A.U. after    8 cycles
 SCF Done:  E(RB3LYP) =  -1036.70957510     A.U. after    9 cycles
 SCF Done:  E(RB3LYP) =  -1036.70957530     A.U. after    8 cycles
 SCF Done:  E(RB3LYP) =  -1036.70957543     A.U. after    7 cycles
 SCF Done:  E(RB3LYP) =  -1036.70957548     A.U. after    7 cycles
 SCF Done:  E(RB3LYP) =  -1036.70957550     A.U. after    7 cycles
 Optimization completed.
    -- Stationary point found.

                         Standard orientation:
 ---------------------------------------------------------------------
 Center     Atomic      Atomic             Coordinates (Angstroms)
 Number     Number       Type             X           Y           Z
 ---------------------------------------------------------------------
      1          6           0        1.889989    4.247097    1.115942
      2          6           0        1.794876    2.988990    0.686494
      3          6           0        2.350627    2.483870   -0.625938
      4          6           0        3.340318    1.345927   -0.449743
      5          6           0        4.716959    1.557423   -0.500864
      6          6           0        5.634194    0.510295   -0.328276
      7          6           0        5.176400   -0.777691   -0.098091
      8          6           0        3.798719   -1.034156   -0.036697
      9          6           0        3.285257   -2.405542    0.205697
     10          8           0        4.030605   -3.373734    0.362583
     11          6           0        1.834465   -2.493048    0.239373
     12          6           0        1.031388   -1.405996    0.064667
     13          6           0       -0.416494   -1.455870    0.095979
     14          6           0       -1.228798   -0.387754   -0.068875
     15          6           0       -2.686526   -0.373457   -0.046946
     16          6           0       -3.480141   -1.526073    0.149633
     17          6           0       -4.861010   -1.454572    0.161146
     18          6           0       -5.511294   -0.220810   -0.024389
     19          8           0       -6.870234   -0.261973    0.004651
     20          6           0       -7.587882    0.950743   -0.176626
     21          6           0       -4.748827    0.936605   -0.221327
     22          6           0       -3.357820    0.846692   -0.230267
     23          8           0        1.542521   -0.158986   -0.156057
     24          6           0        2.904815    0.030487   -0.209393
     25          1           0        1.470410    4.558691    2.068744
     26          1           0        2.390850    5.016396    0.531096
     27          1           0        1.290492    2.245839    1.303558
     28          1           0        1.522915    2.141758   -1.261869
     29          1           0        2.841437    3.308183   -1.155305
     30          1           0        5.080935    2.565930   -0.682294
     31          1           0        6.699967    0.714009   -0.377661
     32          1           0        5.850611   -1.616961    0.038920
     33          1           0        1.386808   -3.465295    0.412549
     34          1           0       -0.822909   -2.448262    0.269178
     35          1           0       -0.760347    0.579529   -0.237405
     36          1           0       -3.007226   -2.492748    0.294899
     37          1           0       -5.469541   -2.340641    0.311940
     38          1           0       -7.380657    1.397181   -1.157705
     39          1           0       -7.351602    1.678646    0.610199
     40          1           0       -8.644139    0.683612   -0.116738
     41          1           0       -5.221635    1.900926   -0.366880
     42          1           0       -2.774787    1.751782   -0.383625
 ---------------------------------------------------------------------

 The electronic state is 1-A.
 Alpha  occ. eigenvalues --  -19.22153 -19.19290 -19.10591 -10.27581 -10.26353
 Alpha  occ. eigenvalues --  -10.26284 -10.25634 -10.25264 -10.21069 -10.20752
 Alpha  occ. eigenvalues --  -10.20619 -10.20562 -10.20435 -10.20406 -10.20095
 Alpha  occ. eigenvalues --  -10.20063 -10.20028 -10.19797 -10.19709 -10.19459
 Alpha  occ. eigenvalues --  -10.19359 -10.19285 -10.18825 -10.18200  -1.11176
 Alpha  occ. eigenvalues --   -1.07884  -1.00515  -0.87150  -0.86722  -0.82638
 Alpha  occ. eigenvalues --   -0.80728  -0.78880  -0.77164  -0.76226  -0.75193
 Alpha  occ. eigenvalues --   -0.74247  -0.70942  -0.68685  -0.65554  -0.64928
 Alpha  occ. eigenvalues --   -0.62591  -0.60904  -0.58715  -0.57342  -0.55830
 Alpha  occ. eigenvalues --   -0.55088  -0.54139  -0.51936  -0.51386  -0.49115
 Alpha  occ. eigenvalues --   -0.48631  -0.48088  -0.46877  -0.46720  -0.46503
 Alpha  occ. eigenvalues --   -0.46047  -0.45068  -0.43489  -0.43240  -0.42838
 Alpha  occ. eigenvalues --   -0.42054  -0.41375  -0.40549  -0.40441  -0.39395
 Alpha  occ. eigenvalues --   -0.38837  -0.38110  -0.38043  -0.37402  -0.36557
 Alpha  occ. eigenvalues --   -0.36460  -0.35858  -0.35095  -0.34308  -0.34125
 Alpha  occ. eigenvalues --   -0.33702  -0.30703  -0.26580  -0.26231  -0.26102
 Alpha  occ. eigenvalues --   -0.24967  -0.23227  -0.23167  -0.20919
 Alpha virt. eigenvalues --   -0.07199  -0.02768  -0.01259  -0.00513   0.01367
 Alpha virt. eigenvalues --    0.02474   0.06777   0.07906   0.08718   0.08862
 Alpha virt. eigenvalues --    0.09701   0.10040   0.10913   0.12392   0.12647

 Mulliken charges:
               1
     1  C   -0.339567
     2  C   -0.037501
     3  C   -0.392503
     4  C    0.121573
     5  C   -0.186186
     6  C   -0.125901
     7  C   -0.181086
     8  C    0.066227
     9  C    0.426736
    10  O   -0.524692
    11  C   -0.288627
    12  C    0.412000
    13  C   -0.205522
    14  C   -0.183650
    15  C    0.179881
    16  C   -0.179605
    17  C   -0.172719
    18  C    0.381777
    19  O   -0.500843
    20  C   -0.219131
    21  C   -0.196307
    22  C   -0.204367
    23  O   -0.558496
    24  C    0.237240
    25  H    0.142187
    26  H    0.134717
    27  H    0.141230
    28  H    0.167215
    29  H    0.149239
    30  H    0.132594
    31  H    0.136572
    32  H    0.165284
    33  H    0.151071
    34  H    0.146264
    35  H    0.155791
    36  H    0.137397
    37  H    0.146418
    38  H    0.156814
    39  H    0.156856
    40  H    0.175719
    41  H    0.137973
    42  H    0.137930
 Sum of Mulliken charges =  -0.00000

 Dipole moment (field-independent basis, Debye):
    X=             -5.0564    Y=              4.7294    Z=             -0.8345  Tot=              6.9736
 Quadrupole moment (field-independent basis, Debye-Ang):
   XX=           -120.8832   YY=           -140.0596   ZZ=           -141.4604
   XY=             10.4418   XZ=             -2.5517   YZ=             -1.3716

 1\1\GINC-NODE43\FOpt\RB3LYP\6-31G(d)\C21H18O3\WYKGROUP\04-Nov-2022\0\\
 #p b3lyp/6-31g(d) opt SCF=XQC\\Gaussian input prepared by ASE\\0,1\C,-
 3.3174753756,3.0390322458,-0.77979033\C,-2.7965347684,1.8983832137,-0.
 3282985645\C,-2.9668401746,1.3728359871,1.0792811458\C,-3.6011738469,-
 0.0060025206,1.1225458493\C,-4.9538712491,-0.1817571189,1.4085640248\C
 ,-5.5454069032,-1.4532623812,1.4392484395\C,-4.7783302942,-2.578110610
 1,1.1789026734\C,-3.4133174161,-2.4459725864,0.8842385268\C,-2.5715687
 564,-3.6361955567,0.6050841341\O,-3.0210742868,-4.7830753983,0.6179331

 Normal termination of Gaussian 16 at Fri Nov  4 22:40:20 2022.
