 Gaussian 16, Revision B.01,
 Gaussian 16:  ES64L-G16RevB.01 20-Dec-2017

 -----------------------------
 #p b3lyp/6-31g(d) opt SCF=XQC
 -----------------------------

 ------------------------------
 Gaussian input prepared by ASE
 ------------------------------
 Symbolic Z-matrix:
 Charge =  0 Multiplicity = 1

 SCF Done:  E(RB3LYP) =  -786.818367729     A.U. after   14 cycles
 SCF Done:  E(RB3LYP) =  -786.821658613     A.U. after   12 cycles
 SCF Done:  E(RB3LYP) =  -786.821795532     A.U. after   11 cycles
 SCF Done:  E(RB3LYP) =  -786.821816346     A.U. after   10 cycles
 SCF Done:  E(RB3LYP) =  -786.821821616     A.U. after   10 cycles
 SCF Done:  E(RB3LYP) =  -786.821826865     A.U. after   10 cycles
 SCF Done:  E(RB3LYP) =  -786.821829622     A.U. after   10 cycles
 SCF Done:  E(RB3LYP) =  -786.821829862     A.U. after    8 cycles
 SCF Done:  E(RB3LYP) =  -786.821829926     A.U. after    7 cycles
 Optimization completed.
    -- Stationary point found.

                         Standard orientation:
 ---------------------------------------------------------------------
 Center     Atomic      Atomic             Coordinates (Angstroms)
 Number     Number       Type             X           Y           Z
 ---------------------------------------------------------------------
      1          6           0       -5.094037    1.036560    1.368709
      2          6           0       -5.055079   -0.353505    1.483541
      3          6           0       -4.265379   -1.104468    0.611243
      4          6           0       -3.502483   -0.483299   -0.386021
      5          6           0       -2.628784   -1.305740   -1.310769
      6          6           0       -1.163316   -1.383665   -0.878190
      7          8           0       -0.584495   -0.088037   -1.026543
      8          6           0        0.715326    0.083108   -0.664862
      9          6           0        1.215503    1.410391   -0.833612
     10          7           0        2.439522    1.778817   -0.548271
     11          6           0        3.299621    0.834071   -0.055021
     12          6           0        4.626634    1.221825    0.257154
     13          6           0        5.524693    0.302901    0.755561
     14          6           0        5.129080   -1.040660    0.961091
     15          6           0        3.844919   -1.445611    0.666330
     16          6           0        2.898138   -0.522378    0.151838
     17          6           0        1.561905   -0.884242   -0.170528
     18          6           0       -3.551425    0.913513   -0.492158
     19          6           0       -4.339579    1.667495    0.377340
     20          1           0       -5.710328    1.624097    2.043983
     21          1           0       -5.642620   -0.855192    2.248120
     22          1           0       -4.245808   -2.188834    0.702689
     23          1           0       -3.006925   -2.334289   -1.362943
     24          1           0       -2.659529   -0.903283   -2.330449
     25          1           0       -0.617671   -2.103011   -1.506049
     26          1           0       -1.085256   -1.709115    0.168547
     27          1           0        0.533545    2.164706   -1.224940
     28          1           0        4.900407    2.258877    0.089066
     29          1           0        6.540682    0.605868    0.993143
     30          1           0        5.845461   -1.756829    1.354744
     31          1           0        3.541595   -2.478133    0.824697
     32          1           0        1.240000   -1.909561   -0.021096
     33          1           0       -2.962759    1.409829   -1.258423
     34          1           0       -4.365913    2.749674    0.279273
 ---------------------------------------------------------------------

 The electronic state is 1-A.
 Alpha  occ. eigenvalues --  -19.18742 -14.32776 -10.25549 -10.25286 -10.22137
 Alpha  occ. eigenvalues --  -10.21641 -10.20295 -10.20081 -10.20052 -10.19696
 Alpha  occ. eigenvalues --  -10.19251 -10.19159 -10.18955 -10.18924 -10.18894
 Alpha  occ. eigenvalues --  -10.18840 -10.18785 -10.18600 -10.18560  -1.07466
 Alpha  occ. eigenvalues --   -0.93877  -0.85531  -0.84374  -0.80975  -0.78776
 Alpha  occ. eigenvalues --   -0.75001  -0.74193  -0.73786  -0.71846  -0.66402
 Alpha  occ. eigenvalues --   -0.63215  -0.61295  -0.60306  -0.59947  -0.57840
 Alpha  occ. eigenvalues --   -0.54223  -0.52528  -0.51680  -0.51302  -0.48723
 Alpha  occ. eigenvalues --   -0.47345  -0.45708  -0.45156  -0.44815  -0.43607
 Alpha  occ. eigenvalues --   -0.41943  -0.41828  -0.41759  -0.41214  -0.40647
 Alpha  occ. eigenvalues --   -0.39766  -0.38714  -0.36639  -0.35848  -0.35699
 Alpha  occ. eigenvalues --   -0.34914  -0.34257  -0.33866  -0.33237  -0.32225
 Alpha  occ. eigenvalues --   -0.28739  -0.25218  -0.24826  -0.24274  -0.23612
 Alpha  occ. eigenvalues --   -0.21728
 Alpha virt. eigenvalues --   -0.04401  -0.00623  -0.00119   0.00101   0.02585
 Alpha virt. eigenvalues --    0.08829   0.09429   0.10108   0.10139   0.11347
 Alpha virt. eigenvalues --    0.12359   0.13227   0.14190   0.14564   0.15315

 Mulliken charges:
               1
     1  C   -0.129669
     2  C   -0.126595
     3  C   -0.185168
     4  C    0.168816
     5  C   -0.375825
     6  C   -0.026010
     7  O   -0.520037
     8  C    0.354508
     9  C    0.010315
    10  N   -0.493603
    11  C    0.228165
    12  C   -0.139919
    13  C   -0.142030
    14  C   -0.131132
    15  C   -0.202412
    16  C    0.162490
    17  C   -0.225932
    18  C   -0.166389
    19  C   -0.129420
    20  H    0.129439
    21  H    0.128825
    22  H    0.119496
    23  H    0.149723
    24  H    0.164352
    25  H    0.142150
    26  H    0.149047
    27  H    0.149152
    28  H    0.142629
    29  H    0.131556
    30  H    0.131018
    31  H    0.126723
    32  H    0.139962
    33  H    0.134859
    34  H    0.130919
 Sum of Mulliken charges =  -0.00000

 Dipole moment (field-independent basis, Debye):
    X=             -1.1349    Y=             -2.8420    Z=              0.3152  Tot=              3.0764
 Quadrupole moment (field-independent basis, Debye-Ang):
   XX=           -104.0956   YY=           -102.9220   ZZ=           -109.8571
   XY=             -3.6616   XZ=              1.2679   YZ=              0.1731

 Normal termination of Gaussian 16 at Fri Nov  4 22:19:41 2022.
