 Gaussian 16, Revision B.01,
 Gaussian 16:  ES64L-G16RevB.01 20-Dec-2017

 -------------------------------------------------------------------
 #p b3lyp/6-31g(d) 6D 10F nosymm GFInput td=(50-50,nstate=2) SCF=XQC
 -------------------------------------------------------------------

 ------------------------------
 Gaussian input prepared by ASE
 ------------------------------
 Symbolic Z-matrix:
 Charge =  0 Multiplicity = 1

                          Input orientation:
 ---------------------------------------------------------------------
 Center     Atomic      Atomic             Coordinates (Angstroms)
 Number     Number       Type             X           Y           Z
 ---------------------------------------------------------------------
      1          6           0        4.990776    0.737213    1.307604
      2          6           0        4.851051    1.485629    0.138274
      3          6           0        3.996039    1.046538   -0.873965
      4          6           0        3.267169   -0.141848   -0.736539
      5          6           0        2.322393   -0.595881   -1.830235
      6          6           0        0.861349   -0.209281   -1.592153
      7          8           0        0.377607   -0.956978   -0.477417
      8          6           0       -0.900885   -0.745489   -0.064659
      9          6           0       -1.304156   -1.524243    1.062838
     10          7           0       -2.493581   -1.470529    1.608515
     11          6           0       -3.414020   -0.613007    1.067168
     12          6           0       -4.704349   -0.546836    1.649786
     13          6           0       -5.660666    0.302379    1.136333
     14          6           0       -5.362350    1.118943    0.019132
     15          6           0       -4.115777    1.075244   -0.567456
     16          6           0       -3.110784    0.210868   -0.061198
     17          6           0       -1.809494    0.123823   -0.626401
     18          6           0        3.417469   -0.885497    0.442078
     19          6           0        4.271123   -0.450322    1.455785
     20          1           0        5.658069    1.074352    2.096316
     21          1           0        5.410621    2.408654    0.010282
     22          1           0        3.897858    1.632256   -1.786044
     23          1           0        2.622912   -0.154432   -2.788586
     24          1           0        2.368490   -1.684671   -1.953022
     25          1           0        0.255447   -0.441504   -2.480043
     26          1           0        0.774125    0.866516   -1.385458
     27          1           0       -0.573972   -2.206811    1.496575
     28          1           0       -4.903241   -1.184774    2.505449
     29          1           0       -6.648140    0.348939    1.587106
     30          1           0       -6.124016    1.785034   -0.377418
     31          1           0       -3.887219    1.703124   -1.425776
     32          1           0       -1.562000    0.740855   -1.483868
     33          1           0        2.856357   -1.807535    0.564629
     34          1           0        4.375795   -1.040729    2.362364
 ---------------------------------------------------------------------

 SCF Done:  E(RB3LYP) =  -786.821828751     A.U. after   14 cycles

 Excitation energies and oscillator strengths:

 Excited state symmetry could not be determined.
 Excited State   1:      Triplet-?Sym    2.8409 eV  436.43 nm  f=0.0000  <S**2>=2.000
      61 -> 71        -0.10552
      65 -> 67         0.27846
      65 -> 68        -0.10812
      66 -> 67         0.60180
      66 -> 68         0.15093
 This state for optimization and/or second-order correction.
 Total Energy, E(TD-HF/TD-DFT) =  -786.717428855
 Copying the excited state density for this state as the 1-particle RhoCI density.

 Excited state symmetry could not be determined.
 Excited State   2:      Triplet-?Sym    3.5427 eV  349.97 nm  f=0.0000  <S**2>=2.000
      65 -> 67         0.59862
      65 -> 68        -0.11541
      66 -> 67        -0.32612

 Excited state symmetry could not be determined.
 Excited State   3:      Singlet-?Sym    4.2162 eV  294.07 nm  f=0.0597  <S**2>=0.000
      65 -> 67        -0.10866
      65 -> 68        -0.18580
      66 -> 67         0.65070
      66 -> 68        -0.14535

 Excited state symmetry could not be determined.
 Excited State   4:      Singlet-?Sym    4.4251 eV  280.19 nm  f=0.0018  <S**2>=0.000
      62 -> 67         0.69420

 Alpha  occ. eigenvalues --  -19.18742 -14.32776 -10.25549 -10.25286 -10.22137
 Alpha  occ. eigenvalues --  -10.21641 -10.20294 -10.20081 -10.20052 -10.19696
 Alpha  occ. eigenvalues --  -10.19251 -10.19159 -10.18955 -10.18924 -10.18894
 Alpha  occ. eigenvalues --  -10.18841 -10.18785 -10.18600 -10.18560  -1.07466
 Alpha  occ. eigenvalues --   -0.93877  -0.85531  -0.84374  -0.80975  -0.78776
 Alpha  occ. eigenvalues --   -0.75001  -0.74193  -0.73786  -0.71846  -0.66402
 Alpha  occ. eigenvalues --   -0.63215  -0.61295  -0.60306  -0.59947  -0.57840
 Alpha  occ. eigenvalues --   -0.54223  -0.52528  -0.51680  -0.51302  -0.48723
 Alpha  occ. eigenvalues --   -0.47345  -0.45708  -0.45156  -0.44815  -0.43607
 Alpha  occ. eigenvalues --   -0.41943  -0.41828  -0.41759  -0.41214  -0.40647
 Alpha  occ. eigenvalues --   -0.39766  -0.38714  -0.36639  -0.35848  -0.35699
 Alpha  occ. eigenvalues --   -0.34914  -0.34257  -0.33866  -0.33237  -0.32225
 Alpha  occ. eigenvalues --   -0.28739  -0.25218  -0.24826  -0.24274  -0.23612
 Alpha  occ. eigenvalues --   -0.21728
 Alpha virt. eigenvalues --   -0.04401  -0.00623  -0.00119   0.00101   0.02585
 Alpha virt. eigenvalues --    0.08829   0.09429   0.10108   0.10139   0.11347
 Alpha virt. eigenvalues --    0.12359   0.13227   0.14190   0.14564   0.15315

 Mulliken charges:
               1
     1  C   -0.129678
     2  C   -0.126591
     3  C   -0.185158
     4  C    0.168792
     5  C   -0.375832
     6  C   -0.026013
     7  O   -0.520036
     8  C    0.354519
     9  C    0.010312
    10  N   -0.493608
    11  C    0.228187
    12  C   -0.139925
    13  C   -0.142034
    14  C   -0.131124
    15  C   -0.202413
    16  C    0.162467
    17  C   -0.225929
    18  C   -0.166365
    19  C   -0.129421
    20  H    0.129441
    21  H    0.128824
    22  H    0.119495
    23  H    0.149725
    24  H    0.164353
    25  H    0.142150
    26  H    0.149048
    27  H    0.149152
    28  H    0.142629
    29  H    0.131556
    30  H    0.131017
    31  H    0.126723
    32  H    0.139960
    33  H    0.134858
    34  H    0.130918
 Sum of Mulliken charges =  -0.00000

 Dipole moment (field-independent basis, Debye):
    X=              0.9266    Y=              1.6281    Z=             -2.4403  Tot=              3.0764
 Quadrupole moment (field-independent basis, Debye-Ang):
   XX=           -103.9287   YY=           -108.9511   ZZ=           -105.2610
   XY=             -3.3109   XZ=              3.2207   YZ=             -2.0522

 Normal termination of Gaussian 16 at Sat Nov  5 09:39:58 2022.
