 Gaussian 16, Revision B.01,
 Gaussian 16:  ES64L-G16RevB.01 20-Dec-2017

 -----------------------------
 #p b3lyp/6-31g(d) opt SCF=XQC
 -----------------------------

 ------------------------------
 Gaussian input prepared by ASE
 ------------------------------
 Symbolic Z-matrix:
 Charge =  0 Multiplicity = 1

 SCF Done:  E(RB3LYP) =  -1260.13030515     A.U. after   15 cycles
 SCF Done:  E(RB3LYP) =  -1260.13744924     A.U. after   13 cycles
 SCF Done:  E(RB3LYP) =  -1260.13810859     A.U. after   12 cycles
 SCF Done:  E(RB3LYP) =  -1260.13836095     A.U. after   12 cycles
 SCF Done:  E(RB3LYP) =  -1260.13847995     A.U. after   11 cycles
 SCF Done:  E(RB3LYP) =  -1260.13853060     A.U. after   11 cycles
 SCF Done:  E(RB3LYP) =  -1260.13857665     A.U. after   10 cycles
 SCF Done:  E(RB3LYP) =  -1260.13861062     A.U. after   11 cycles
 SCF Done:  E(RB3LYP) =  -1260.13861810     A.U. after   10 cycles
 SCF Done:  E(RB3LYP) =  -1260.13862110     A.U. after   10 cycles
 SCF Done:  E(RB3LYP) =  -1260.13875111     A.U. after   11 cycles
 SCF Done:  E(RB3LYP) =  -1260.13880908     A.U. after    8 cycles
 SCF Done:  E(RB3LYP) =  -1260.13875679     A.U. after   13 cycles
 SCF Done:  E(RB3LYP) =  -1260.13883791     A.U. after   12 cycles
 SCF Done:  E(RB3LYP) =  -1260.13883952     A.U. after    9 cycles
 SCF Done:  E(RB3LYP) =  -1260.13884043     A.U. after    8 cycles
 SCF Done:  E(RB3LYP) =  -1260.13884106     A.U. after    9 cycles
 SCF Done:  E(RB3LYP) =  -1260.13884139     A.U. after    8 cycles
 SCF Done:  E(RB3LYP) =  -1260.13884150     A.U. after    7 cycles
 SCF Done:  E(RB3LYP) =  -1260.13884154     A.U. after    7 cycles
 Optimization completed.
    -- Stationary point found.

                         Standard orientation:
 ---------------------------------------------------------------------
 Center     Atomic      Atomic             Coordinates (Angstroms)
 Number     Number       Type             X           Y           Z
 ---------------------------------------------------------------------
      1          8           0       -2.680771   -2.933640   -0.833569
      2          6           0       -2.409958   -1.749894   -0.695869
      3          7           0       -3.360223   -0.753114   -0.801414
      4          6           0       -4.733050   -1.051028   -1.173159
      5          6           0       -5.751592   -0.324144   -0.318402
      6          6           0       -6.886606    0.258496   -0.888406
      7          6           0       -7.816895    0.891486   -0.062387
      8          7           0       -7.691881    0.985412    1.266334
      9          6           0       -6.600466    0.425299    1.806568
     10          6           0       -5.614790   -0.230542    1.071191
     11          6           0       -1.024152   -1.262042   -0.359902
     12          6           0       -0.793360   -0.146743    0.450121
     13          6           0        0.511577    0.231569    0.752071
     14          6           0        1.583177   -0.519214    0.238568
     15          7           0        2.916042   -0.185577    0.479482
     16          6           0        3.238371    1.068437    1.164003
     17          6           0        2.958122    2.338674    0.372540
     18          6           0        2.754999    3.541662    1.060672
     19          6           0        2.561511    4.736376    0.367127
     20          6           0        2.559512    4.741875   -1.029214
     21          6           0        2.751968    3.546185   -1.722541
     22          6           0        2.950879    2.352504   -1.026223
     23          6           0        3.965202   -1.148377    0.347210
     24          6           0        3.858788   -2.421862    0.925313
     25          6           0        4.907815   -3.332814    0.812423
     26          6           0        6.082983   -2.980600    0.144806
     27          6           0        6.197727   -1.709094   -0.418649
     28          6           0        5.143304   -0.800239   -0.328005
     29          6           0        1.234386   -1.617990   -0.589556
     30          7           0       -0.008425   -1.982491   -0.866908
     31          1           0       -3.042628    0.201205   -0.900890
     32          1           0       -4.910801   -0.821307   -2.233074
     33          1           0       -4.837310   -2.135806   -1.062381
     34          1           0       -7.047353    0.223954   -1.963246
     35          1           0       -8.705266    1.351445   -0.493096
     36          1           0       -6.510424    0.505877    2.888968
     37          1           0       -4.751427   -0.661040    1.569807
     38          1           0       -1.622334    0.413901    0.872468
     39          1           0        0.682193    1.101879    1.373767
     40          1           0        2.715947    1.116544    2.132099
     41          1           0        4.303971    1.020794    1.406596
     42          1           0        2.750430    3.544017    2.149244
     43          1           0        2.405904    5.660781    0.917055
     44          1           0        2.403379    5.670170   -1.571928
     45          1           0        2.744482    3.539432   -2.809325
     46          1           0        3.086459    1.422130   -1.570005
     47          1           0        2.954506   -2.693019    1.461456
     48          1           0        4.810158   -4.316882    1.262683
     49          1           0        6.900878   -3.690882    0.065070
     50          1           0        7.105036   -1.424373   -0.944471
     51          1           0        5.226429    0.182118   -0.784725
     52          1           0        2.018647   -2.219290   -1.041794
 ---------------------------------------------------------------------

 The electronic state is 1-A.
 Alpha  occ. eigenvalues --  -19.10682 -14.37688 -14.36017 -14.33086 -14.32604
 Alpha  occ. eigenvalues --  -10.28197 -10.24692 -10.24199 -10.24040 -10.22860
 Alpha  occ. eigenvalues --  -10.22234 -10.22089 -10.22078 -10.22018 -10.21458
 Alpha  occ. eigenvalues --  -10.20907 -10.20734 -10.20660 -10.20232 -10.20152
 Alpha  occ. eigenvalues --  -10.20101 -10.20068 -10.20028 -10.20010 -10.19952
 Alpha  occ. eigenvalues --  -10.19859 -10.19826 -10.19753 -10.19745 -10.19527
 Alpha  occ. eigenvalues --   -1.02718  -0.97567  -0.93725  -0.93711  -0.92043
 Alpha  occ. eigenvalues --   -0.86606  -0.85755  -0.81541  -0.80457  -0.78704
 Alpha  occ. eigenvalues --   -0.77133  -0.75789  -0.75647  -0.75320  -0.74092
 Alpha  occ. eigenvalues --   -0.71535  -0.69123  -0.64919  -0.63721  -0.62909
 Alpha  occ. eigenvalues --   -0.62022  -0.61391  -0.60478  -0.60233  -0.59125
 Alpha  occ. eigenvalues --   -0.57971  -0.55193  -0.54292  -0.52940  -0.51419
 Alpha  occ. eigenvalues --   -0.50434  -0.50139  -0.49308  -0.48097  -0.46967
 Alpha  occ. eigenvalues --   -0.46787  -0.46171  -0.45930  -0.45056  -0.45005
 Alpha  occ. eigenvalues --   -0.44392  -0.43845  -0.43263  -0.42893  -0.42735
 Alpha  occ. eigenvalues --   -0.42603  -0.42308  -0.41902  -0.40405  -0.40195
 Alpha  occ. eigenvalues --   -0.39612  -0.38656  -0.38102  -0.38010  -0.37173
 Alpha  occ. eigenvalues --   -0.36774  -0.36540  -0.35880  -0.35604  -0.35367
 Alpha  occ. eigenvalues --   -0.35100  -0.31848  -0.28434  -0.28141  -0.26715
 Alpha  occ. eigenvalues --   -0.26215  -0.26120  -0.25983  -0.25710  -0.25398
 Alpha  occ. eigenvalues --   -0.25181  -0.25149  -0.23866  -0.20656
 Alpha virt. eigenvalues --   -0.03472  -0.02812  -0.02229  -0.01253  -0.01080
 Alpha virt. eigenvalues --   -0.00935  -0.00900  -0.00513   0.05793   0.08062
 Alpha virt. eigenvalues --    0.08586   0.08813   0.09900   0.10970   0.11339

 Mulliken charges:
               1
     1  O   -0.495185
     2  C    0.566505
     3  N   -0.612658
     4  C   -0.201543
     5  C    0.165683
     6  C   -0.196278
     7  C    0.041103
     8  N   -0.408964
     9  C    0.036677
    10  C   -0.176379
    11  C    0.189041
    12  C   -0.178750
    13  C   -0.151349
    14  C    0.328229
    15  N   -0.581561
    16  C   -0.233881
    17  C    0.151644
    18  C   -0.185350
    19  C   -0.128055
    20  C   -0.128593
    21  C   -0.130626
    22  C   -0.172442
    23  C    0.251600
    24  C   -0.147636
    25  C   -0.139677
    26  C   -0.123792
    27  C   -0.138624
    28  C   -0.163378
    29  C   -0.009464
    30  N   -0.441786
    31  H    0.325233
    32  H    0.154288
    33  H    0.214392
    34  H    0.132233
    35  H    0.140763
    36  H    0.140716
    37  H    0.143784
    38  H    0.140312
    39  H    0.146990
    40  H    0.156780
    41  H    0.183318
    42  H    0.125092
    43  H    0.134199
    44  H    0.133686
    45  H    0.135414
    46  H    0.143381
    47  H    0.150677
    48  H    0.140841
    49  H    0.135418
    50  H    0.137525
    51  H    0.141847
    52  H    0.158598
 Sum of Mulliken charges =  -0.00000

 Dipole moment (field-independent basis, Debye):
    X=              5.0380    Y=              4.1839    Z=              0.3186  Tot=              6.5565
 Quadrupole moment (field-independent basis, Debye-Ang):
   XX=           -175.7669   YY=           -177.5722   ZZ=           -165.4812
   XY=             -6.5779   XZ=             12.4914   YZ=             -7.9270

 Normal termination of Gaussian 16 at Fri Nov  4 23:00:03 2022.
