 Gaussian 16, Revision B.01,
 Gaussian 16:  ES64L-G16RevB.01 20-Dec-2017

 -------------------------------------------------------------------
 #p b3lyp/6-31g(d) 6D 10F nosymm GFInput td=(50-50,nstate=2) SCF=XQC
 -------------------------------------------------------------------

 ------------------------------
 Gaussian input prepared by ASE
 ------------------------------
 Symbolic Z-matrix:
 Charge =  0 Multiplicity = 1

                          Input orientation:
 ---------------------------------------------------------------------
 Center     Atomic      Atomic             Coordinates (Angstroms)
 Number     Number       Type             X           Y           Z
 ---------------------------------------------------------------------
      1          8           0        2.879290    0.922524   -3.148509
      2          6           0        2.492997    0.200741   -2.241116
      3          7           0        3.204911   -0.903858   -1.815962
      4          6           0        4.421967   -1.325989   -2.488406
      5          6           0        5.536788   -1.688348   -1.528058
      6          6           0        6.338756   -2.811828   -1.745477
      7          6           0        7.375657   -3.093141   -0.854344
      8          7           0        7.658031   -2.347807    0.220222
      9          6           0        6.884396   -1.272195    0.423483
     10          6           0        5.827092   -0.903513   -0.406363
     11          6           0        1.224553    0.463727   -1.470910
     12          6           0        1.095230    0.173751   -0.109850
     13          6           0       -0.091701    0.473694    0.552256
     14          6           0       -1.146571    1.069981   -0.160050
     15          7           0       -2.372117    1.376416    0.431572
     16          6           0       -2.646936    0.937707    1.801618
     17          6           0       -2.817931   -0.563811    1.987792
     18          6           0       -2.590815   -1.125998    3.250459
     19          6           0       -2.801617   -2.486657    3.473962
     20          6           0       -3.235213   -3.307644    2.430998
     21          6           0       -3.455012   -2.757286    1.167585
     22          6           0       -3.248590   -1.394090    0.947623
     23          6           0       -3.255919    2.347372   -0.135308
     24          6           0       -2.787878    3.606059   -0.540200
     25          6           0       -3.673182    4.549467   -1.059094
     26          6           0       -5.036248    4.261733   -1.159349
     27          6           0       -5.507257    3.015690   -0.743536
     28          6           0       -4.623501    2.059165   -0.243457
     29          6           0       -0.914552    1.300212   -1.541323
     30          7           0        0.219673    1.023670   -2.166960
     31          1           0        2.734776   -1.577846   -1.227573
     32          1           0        4.224948   -2.173064   -3.160296
     33          1           0        4.714628   -0.481166   -3.121262
     34          1           0        6.160179   -3.464376   -2.596715
     35          1           0        8.007578   -3.966407   -1.010418
     36          1           0        7.124897   -0.671754    1.299737
     37          1           0        5.235433   -0.020416   -0.184054
     38          1           0        1.922056   -0.257755    0.446978
     39          1           0       -0.186953    0.238383    1.605162
     40          1           0       -1.862262    1.304715    2.481355
     41          1           0       -3.564719    1.447407    2.109034
     42          1           0       -2.248017   -0.492850    4.066933
     43          1           0       -2.620959   -2.906142    4.460144
     44          1           0       -3.394761   -4.368922    2.600942
     45          1           0       -3.785287   -3.389853    0.347841
     46          1           0       -3.407653   -0.972785   -0.040748
     47          1           0       -1.732013    3.840670   -0.446343
     48          1           0       -3.295927    5.519358   -1.371581
     49          1           0       -5.723910    5.002151   -1.557735
     50          1           0       -6.564755    2.777894   -0.820456
     51          1           0       -4.988874    1.082249    0.060953
     52          1           0       -1.702700    1.730759   -2.153367
 ---------------------------------------------------------------------

 SCF Done:  E(RB3LYP) =  -1260.13884379     A.U. after   16 cycles

 Excitation energies and oscillator strengths:

 Excited state symmetry could not be determined.
 Excited State   1:      Triplet-?Sym    3.1306 eV  396.04 nm  f=0.0000  <S**2>=2.000
      93 ->106        -0.11232
      95 ->112         0.10968
     104 ->105         0.64091
     104 ->106        -0.11227
 This state for optimization and/or second-order correction.
 Total Energy, E(TD-HF/TD-DFT) =  -1260.02379513
 Copying the excited state density for this state as the 1-particle RhoCI density.

 Excited state symmetry could not be determined.
 Excited State   2:      Triplet-?Sym    3.4696 eV  357.34 nm  f=0.0000  <S**2>=2.000
     104 ->105         0.13200
     104 ->106         0.61551
     104 ->109        -0.22890

 Excited state symmetry could not be determined.
 Excited State   3:      Singlet-?Sym    4.1596 eV  298.07 nm  f=0.0575  <S**2>=0.000
     104 ->105         0.26085
     104 ->106         0.63374

 Excited state symmetry could not be determined.
 Excited State   4:      Singlet-?Sym    4.1874 eV  296.09 nm  f=0.5249  <S**2>=0.000
     104 ->105         0.63012
     104 ->106        -0.26652

 Alpha  occ. eigenvalues --  -19.10682 -14.37688 -14.36017 -14.33086 -14.32605
 Alpha  occ. eigenvalues --  -10.28197 -10.24692 -10.24199 -10.24040 -10.22860
 Alpha  occ. eigenvalues --  -10.22234 -10.22089 -10.22078 -10.22018 -10.21458
 Alpha  occ. eigenvalues --  -10.20907 -10.20734 -10.20660 -10.20232 -10.20152
 Alpha  occ. eigenvalues --  -10.20101 -10.20068 -10.20028 -10.20010 -10.19951
 Alpha  occ. eigenvalues --  -10.19859 -10.19826 -10.19753 -10.19745 -10.19527
 Alpha  occ. eigenvalues --   -1.02718  -0.97567  -0.93725  -0.93711  -0.92043
 Alpha  occ. eigenvalues --   -0.86606  -0.85755  -0.81541  -0.80457  -0.78704
 Alpha  occ. eigenvalues --   -0.77133  -0.75789  -0.75647  -0.75320  -0.74092
 Alpha  occ. eigenvalues --   -0.71535  -0.69123  -0.64919  -0.63721  -0.62909
 Alpha  occ. eigenvalues --   -0.62022  -0.61391  -0.60478  -0.60233  -0.59125
 Alpha  occ. eigenvalues --   -0.57971  -0.55193  -0.54292  -0.52940  -0.51419
 Alpha  occ. eigenvalues --   -0.50434  -0.50139  -0.49308  -0.48097  -0.46967
 Alpha  occ. eigenvalues --   -0.46787  -0.46171  -0.45930  -0.45056  -0.45005
 Alpha  occ. eigenvalues --   -0.44392  -0.43845  -0.43263  -0.42893  -0.42735
 Alpha  occ. eigenvalues --   -0.42603  -0.42308  -0.41902  -0.40405  -0.40195
 Alpha  occ. eigenvalues --   -0.39612  -0.38656  -0.38102  -0.38010  -0.37173
 Alpha  occ. eigenvalues --   -0.36774  -0.36540  -0.35880  -0.35604  -0.35367
 Alpha  occ. eigenvalues --   -0.35100  -0.31848  -0.28434  -0.28141  -0.26715
 Alpha  occ. eigenvalues --   -0.26215  -0.26120  -0.25983  -0.25710  -0.25398
 Alpha  occ. eigenvalues --   -0.25181  -0.25149  -0.23866  -0.20656
 Alpha virt. eigenvalues --   -0.03472  -0.02812  -0.02229  -0.01253  -0.01080
 Alpha virt. eigenvalues --   -0.00935  -0.00900  -0.00513   0.05793   0.08062
 Alpha virt. eigenvalues --    0.08586   0.08813   0.09900   0.10970   0.11339

 Mulliken charges:
               1
     1  O   -0.495180
     2  C    0.566501
     3  N   -0.612659
     4  C   -0.201527
     5  C    0.165662
     6  C   -0.196257
     7  C    0.041092
     8  N   -0.408965
     9  C    0.036679
    10  C   -0.176372
    11  C    0.189028
    12  C   -0.178740
    13  C   -0.151346
    14  C    0.328215
    15  N   -0.581558
    16  C   -0.233873
    17  C    0.151653
    18  C   -0.185357
    19  C   -0.128047
    20  C   -0.128595
    21  C   -0.130628
    22  C   -0.172450
    23  C    0.251612
    24  C   -0.147638
    25  C   -0.139683
    26  C   -0.123788
    27  C   -0.138626
    28  C   -0.163381
    29  C   -0.009465
    30  N   -0.441785
    31  H    0.325233
    32  H    0.154288
    33  H    0.214390
    34  H    0.132231
    35  H    0.140764
    36  H    0.140716
    37  H    0.143779
    38  H    0.140313
    39  H    0.146992
    40  H    0.156774
    41  H    0.183317
    42  H    0.125093
    43  H    0.134198
    44  H    0.133686
    45  H    0.135415
    46  H    0.143383
    47  H    0.150679
    48  H    0.140841
    49  H    0.135418
    50  H    0.137525
    51  H    0.141848
    52  H    0.158597
 Sum of Mulliken charges =  -0.00000

 Dipole moment (field-independent basis, Debye):
    X=             -5.2485    Y=             -1.3772    Z=              3.6802  Tot=              6.5564
 Quadrupole moment (field-independent basis, Debye-Ang):
   XX=           -185.1862   YY=           -158.8305   ZZ=           -178.6525
   XY=             -6.2719   XZ=             -0.2970   YZ=             10.7249

 Normal termination of Gaussian 16 at Sat Nov  5 10:11:39 2022.
