 Gaussian 16, Revision B.01,
 Gaussian 16:  ES64L-G16RevB.01 20-Dec-2017

 -------------------------------------------------------------------
 #p b3lyp/6-31g(d) 6D 10F nosymm GFInput td=(50-50,nstate=2) SCF=XQC
 -------------------------------------------------------------------

 ------------------------------
 Gaussian input prepared by ASE
 ------------------------------
 Symbolic Z-matrix:
 Charge =  0 Multiplicity = 1

                          Input orientation:
 ---------------------------------------------------------------------
 Center     Atomic      Atomic             Coordinates (Angstroms)
 Number     Number       Type             X           Y           Z
 ---------------------------------------------------------------------
      1          6           0        5.032334    0.521656   -2.740085
      2          8           0        4.369907    0.147057   -1.540212
      3          6           0        5.054612   -0.609534   -0.621424
      4          6           0        6.396661   -0.974064   -0.755393
      5          6           0        7.008833   -1.736110    0.244322
      6          6           0        6.292274   -2.129818    1.370127
      7          6           0        4.950332   -1.758023    1.491223
      8          6           0        4.309029   -1.003463    0.509356
      9          6           0        2.845397   -0.639777    0.632483
     10          7           0        2.654045    0.804109    0.763995
     11          6           0        1.387348    1.344446    0.916017
     12          6           0        1.193556    2.732949    0.721754
     13          7           0        0.038645    3.363193    0.901748
     14          6           0       -1.025628    2.636577    1.272331
     15          6           0       -0.965087    1.253221    1.469610
     16          6           0       -2.123976    0.437463    1.973585
     17          8           0       -1.931939   -0.441651    2.813107
     18          7           0       -3.391886    0.741819    1.522096
     19          6           0       -4.511952    0.000197    2.104806
     20          6           0       -4.844555   -1.218433    1.240366
     21          6           0       -4.999679   -0.832601   -0.218134
     22          6           0       -5.691403   -1.664753   -1.109256
     23          6           0       -5.837711   -1.323625   -2.451290
     24          6           0       -5.289836   -0.128733   -2.924976
     25          6           0       -4.601453    0.706270   -2.048897
     26          6           0       -4.447544    0.365492   -0.698937
     27          6           0       -3.699173    1.326722    0.218174
     28          6           0        0.262530    0.603869    1.303383
     29          1           0        5.897778    1.165934   -2.538310
     30          1           0        4.297523    1.076250   -3.326249
     31          1           0        5.360653   -0.358947   -3.306346
     32          1           0        6.969589   -0.671499   -1.624343
     33          1           0        8.053064   -2.015413    0.132939
     34          1           0        6.767310   -2.719463    2.148386
     35          1           0        4.383379   -2.062150    2.367711
     36          1           0        2.285998   -1.037347   -0.231904
     37          1           0        2.442266   -1.125019    1.527096
     38          1           0        3.249736    1.331365    0.136922
     39          1           0        2.040446    3.349251    0.415242
     40          1           0       -1.948904    3.185805    1.440622
     41          1           0       -5.372130    0.680687    2.155508
     42          1           0       -4.234306   -0.296618    3.115621
     43          1           0       -4.035438   -1.952244    1.355935
     44          1           0       -5.761179   -1.700196    1.603976
     45          1           0       -6.122260   -2.592021   -0.736859
     46          1           0       -6.379219   -1.983088   -3.124298
     47          1           0       -5.396499    0.148349   -3.970338
     48          1           0       -4.172475    1.637433   -2.415083
     49          1           0       -2.770742    1.639890   -0.261119
     50          1           0       -4.303284    2.236208    0.362060
     51          1           0        0.315017   -0.461623    1.494400
 ---------------------------------------------------------------------

 SCF Done:  E(RB3LYP) =  -1205.00388362     A.U. after   15 cycles

 Excitation energies and oscillator strengths:

 Excited state symmetry could not be determined.
 Excited State   1:      Triplet-?Sym    3.1639 eV  391.87 nm  f=0.0000  <S**2>=2.000
      91 ->100         0.10340
      99 ->100         0.67521
      99 ->106        -0.10487
 This state for optimization and/or second-order correction.
 Total Energy, E(TD-HF/TD-DFT) =  -1204.88761157
 Copying the excited state density for this state as the 1-particle RhoCI density.

 Excited state symmetry could not be determined.
 Excited State   2:      Triplet-?Sym    3.4981 eV  354.43 nm  f=0.0000  <S**2>=2.000
      91 ->100        -0.17613
      92 ->100        -0.10161
      93 ->100         0.11442
      97 ->100        -0.11318
      99 ->100         0.14354
      99 ->102        -0.26901
      99 ->103         0.43264
      99 ->105        -0.30464

 Excited state symmetry could not be determined.
 Excited State   3:      Singlet-?Sym    4.1289 eV  300.28 nm  f=0.0497  <S**2>=0.000
      99 ->100         0.68591

 Excited state symmetry could not be determined.
 Excited State   4:      Singlet-?Sym    4.3958 eV  282.05 nm  f=0.0041  <S**2>=0.000
      95 ->100         0.38894
      96 ->100         0.21633
      97 ->100        -0.36078
      98 ->100         0.37340

 Alpha  occ. eigenvalues --  -19.19347 -19.10649 -14.35865 -14.34367 -14.32361
 Alpha  occ. eigenvalues --  -10.28216 -10.25699 -10.25343 -10.23021 -10.22769
 Alpha  occ. eigenvalues --  -10.22555 -10.21381 -10.21303 -10.20833 -10.20141
 Alpha  occ. eigenvalues --  -10.19850 -10.19837 -10.19689 -10.19675 -10.19648
 Alpha  occ. eigenvalues --  -10.19552 -10.19237 -10.18995 -10.18890 -10.18823
 Alpha  occ. eigenvalues --  -10.18787 -10.18770 -10.18650  -1.07677  -1.02643
 Alpha  occ. eigenvalues --   -0.94526  -0.93472  -0.91909  -0.85896  -0.85400
 Alpha  occ. eigenvalues --   -0.79856  -0.78603  -0.77709  -0.76603  -0.75811
 Alpha  occ. eigenvalues --   -0.74407  -0.72833  -0.71035  -0.68584  -0.67801
 Alpha  occ. eigenvalues --   -0.65264  -0.62718  -0.61375  -0.60794  -0.60086
 Alpha  occ. eigenvalues --   -0.58958  -0.58375  -0.54782  -0.53841  -0.52159
 Alpha  occ. eigenvalues --   -0.50763  -0.50587  -0.49814  -0.49441  -0.48319
 Alpha  occ. eigenvalues --   -0.47954  -0.47380  -0.46996  -0.45761  -0.45463
 Alpha  occ. eigenvalues --   -0.44690  -0.44574  -0.43861  -0.43378  -0.43003
 Alpha  occ. eigenvalues --   -0.41826  -0.41027  -0.40654  -0.40210  -0.39801
 Alpha  occ. eigenvalues --   -0.39135  -0.38390  -0.38324  -0.38085  -0.37912
 Alpha  occ. eigenvalues --   -0.37564  -0.37109  -0.36171  -0.35878  -0.34466
 Alpha  occ. eigenvalues --   -0.33733  -0.33430  -0.32918  -0.32771  -0.30813
 Alpha  occ. eigenvalues --   -0.27437  -0.25774  -0.25375  -0.24633  -0.24035
 Alpha  occ. eigenvalues --   -0.23816  -0.22972  -0.22835  -0.20200
 Alpha virt. eigenvalues --   -0.02914  -0.00993  -0.00424  -0.00025   0.00342
 Alpha virt. eigenvalues --    0.00438   0.05581   0.08063   0.08740   0.09965
 Alpha virt. eigenvalues --    0.10114   0.10759   0.11752   0.12101   0.12863

 Mulliken charges:
               1
     1  C   -0.219427
     2  O   -0.524475
     3  C    0.329582
     4  C   -0.191023
     5  C   -0.136773
     6  C   -0.128099
     7  C   -0.187560
     8  C    0.100250
     9  C   -0.188574
    10  N   -0.672011
    11  C    0.344069
    12  C   -0.009110
    13  N   -0.416723
    14  C   -0.015986
    15  C    0.042056
    16  C    0.527325
    17  O   -0.522313
    18  N   -0.431162
    19  C   -0.164273
    20  C   -0.343688
    21  C    0.130045
    22  C   -0.191387
    23  C   -0.126512
    24  C   -0.132880
    25  C   -0.179086
    26  C    0.095271
    27  C   -0.226527
    28  C   -0.178004
    29  H    0.156737
    30  H    0.174772
    31  H    0.158977
    32  H    0.135129
    33  H    0.133827
    34  H    0.131855
    35  H    0.135565
    36  H    0.152992
    37  H    0.162888
    38  H    0.332863
    39  H    0.129966
    40  H    0.143875
    41  H    0.146669
    42  H    0.185750
    43  H    0.178395
    44  H    0.146775
    45  H    0.123946
    46  H    0.128272
    47  H    0.128524
    48  H    0.124447
    49  H    0.182471
    50  H    0.162886
    51  H    0.159413
 Sum of Mulliken charges =  -0.00000

 Dipole moment (field-independent basis, Debye):
    X=              2.1857    Y=             -1.2689    Z=             -4.2464  Tot=              4.9415
 Quadrupole moment (field-independent basis, Debye-Ang):
   XX=           -126.6859   YY=           -167.3716   ZZ=           -160.8136
   XY=             -0.5827   XZ=             -7.9592   YZ=             -5.6884

 Normal termination of Gaussian 16 at Sat Nov  5 10:08:32 2022.
