 Gaussian 16, Revision B.01,
 Gaussian 16:  ES64L-G16RevB.01 20-Dec-2017

 -----------------------------
 #p b3lyp/6-31g(d) opt SCF=XQC
 -----------------------------

 ------------------------------
 Gaussian input prepared by ASE
 ------------------------------
 Symbolic Z-matrix:
 Charge =  0 Multiplicity = 1

 SCF Done:  E(RB3LYP) =  -1204.99712338     A.U. after   15 cycles
 SCF Done:  E(RB3LYP) =  -1205.00243843     A.U. after   12 cycles
 SCF Done:  E(RB3LYP) =  -1205.00300730     A.U. after   12 cycles
 SCF Done:  E(RB3LYP) =  -1205.00347594     A.U. after   11 cycles
 SCF Done:  E(RB3LYP) =  -1205.00362576     A.U. after   12 cycles
 SCF Done:  E(RB3LYP) =  -1205.00371876     A.U. after   10 cycles
 SCF Done:  E(RB3LYP) =  -1205.00376608     A.U. after   10 cycles
 SCF Done:  E(RB3LYP) =  -1205.00380988     A.U. after   10 cycles
 SCF Done:  E(RB3LYP) =  -1205.00383882     A.U. after   10 cycles
 SCF Done:  E(RB3LYP) =  -1205.00386235     A.U. after   10 cycles
 SCF Done:  E(RB3LYP) =  -1205.00387352     A.U. after   10 cycles
 SCF Done:  E(RB3LYP) =  -1205.00387652     A.U. after    9 cycles
 SCF Done:  E(RB3LYP) =  -1205.00387691     A.U. after    8 cycles
 SCF Done:  E(RB3LYP) =  -1205.00387695     A.U. after    6 cycles
 SCF Done:  E(RB3LYP) =  -1205.00387697     A.U. after    6 cycles
 SCF Done:  E(RB3LYP) =  -1205.00387700     A.U. after    6 cycles
 Optimization completed.
    -- Stationary point found.

                         Standard orientation:
 ---------------------------------------------------------------------
 Center     Atomic      Atomic             Coordinates (Angstroms)
 Number     Number       Type             X           Y           Z
 ---------------------------------------------------------------------
      1          6           0        4.982371    2.601517    1.668239
      2          8           0        4.356441    1.597646    0.881294
      3          6           0        5.093066    0.976560   -0.096999
      4          6           0        6.451399    1.214777   -0.320849
      5          6           0        7.116905    0.519610   -1.335119
      6          6           0        6.437067   -0.407688   -2.118599
      7          6           0        5.078283   -0.636163   -1.883640
      8          6           0        4.384325    0.044832   -0.883960
      9          6           0        2.904515   -0.182075   -0.664133
     10          7           0        2.635567   -0.782798    0.641821
     11          6           0        1.343006   -1.096734    1.029539
     12          6           0        1.070650   -1.371704    2.390953
     13          7           0       -0.114910   -1.742530    2.860378
     14          6           0       -1.132892   -1.844712    1.993632
     15          6           0       -0.993822   -1.573413    0.628600
     16          6           0       -2.099715   -1.771338   -0.371552
     17          8           0       -1.849202   -2.273828   -1.466662
     18          7           0       -3.387938   -1.437680   -0.006558
     19          6           0       -4.458181   -1.734694   -0.960742
     20          6           0       -4.733805   -0.513467   -1.841410
     21          6           0       -4.927934    0.736121   -1.004155
     22          6           0       -5.583722    1.856979   -1.532053
     23          6           0       -5.765149    3.011406   -0.774944
     24          6           0       -5.289805    3.059294    0.538093
     25          6           0       -4.637696    1.951710    1.073465
     26          6           0       -4.448601    0.789639    0.314491
     27          6           0       -3.743044   -0.398838    0.958562
     28          6           0        0.265550   -1.209733    0.140694
     29          1           0        5.813441    2.192175    2.256935
     30          1           0        4.210951    2.975921    2.343402
     31          1           0        5.351677    3.425142    1.044413
     32          1           0        6.996024    1.930816    0.283749
     33          1           0        8.173480    0.710271   -1.502849
     34          1           0        6.953428   -0.950042   -2.904889
     35          1           0        4.539802   -1.358837   -2.491868
     36          1           0        2.357235    0.768849   -0.784068
     37          1           0        2.539793   -0.862987   -1.439791
     38          1           0        3.193529   -0.369516    1.379346
     39          1           0        1.878464   -1.292037    3.120399
     40          1           0       -2.082869   -2.179207    2.403595
     41          1           0       -5.353841   -2.002090   -0.384689
     42          1           0       -4.152154   -2.592109   -1.559173
     43          1           0       -3.884135   -0.384982   -2.525557
     44          1           0       -5.617946   -0.691082   -2.466913
     45          1           0       -5.958225    1.815320   -2.552912
     46          1           0       -6.277780    3.868303   -1.203897
     47          1           0       -5.424461    3.954712    1.138949
     48          1           0       -4.265206    1.986231    2.095835
     49          1           0       -2.839258   -0.056341    1.464176
     50          1           0       -4.394508   -0.831645    1.733864
     51          1           0        0.378994   -1.037677   -0.923280
 ---------------------------------------------------------------------

 The electronic state is 1-A.
 Alpha  occ. eigenvalues --  -19.19346 -19.10649 -14.35865 -14.34367 -14.32361
 Alpha  occ. eigenvalues --  -10.28216 -10.25698 -10.25343 -10.23021 -10.22769
 Alpha  occ. eigenvalues --  -10.22555 -10.21381 -10.21303 -10.20833 -10.20141
 Alpha  occ. eigenvalues --  -10.19850 -10.19838 -10.19689 -10.19675 -10.19648
 Alpha  occ. eigenvalues --  -10.19552 -10.19237 -10.18995 -10.18890 -10.18823
 Alpha  occ. eigenvalues --  -10.18787 -10.18770 -10.18650  -1.07677  -1.02643
 Alpha  occ. eigenvalues --   -0.94526  -0.93472  -0.91909  -0.85896  -0.85400
 Alpha  occ. eigenvalues --   -0.79856  -0.78603  -0.77709  -0.76602  -0.75811
 Alpha  occ. eigenvalues --   -0.74407  -0.72833  -0.71035  -0.68584  -0.67801
 Alpha  occ. eigenvalues --   -0.65264  -0.62718  -0.61375  -0.60793  -0.60086
 Alpha  occ. eigenvalues --   -0.58958  -0.58375  -0.54782  -0.53841  -0.52159
 Alpha  occ. eigenvalues --   -0.50763  -0.50587  -0.49814  -0.49441  -0.48319
 Alpha  occ. eigenvalues --   -0.47954  -0.47380  -0.46996  -0.45761  -0.45463
 Alpha  occ. eigenvalues --   -0.44690  -0.44574  -0.43861  -0.43378  -0.43003
 Alpha  occ. eigenvalues --   -0.41826  -0.41027  -0.40654  -0.40210  -0.39801
 Alpha  occ. eigenvalues --   -0.39135  -0.38390  -0.38324  -0.38084  -0.37912
 Alpha  occ. eigenvalues --   -0.37564  -0.37109  -0.36171  -0.35878  -0.34466
 Alpha  occ. eigenvalues --   -0.33733  -0.33430  -0.32918  -0.32771  -0.30813
 Alpha  occ. eigenvalues --   -0.27437  -0.25774  -0.25375  -0.24633  -0.24035
 Alpha  occ. eigenvalues --   -0.23816  -0.22972  -0.22835  -0.20200
 Alpha virt. eigenvalues --   -0.02914  -0.00993  -0.00424  -0.00025   0.00342
 Alpha virt. eigenvalues --    0.00438   0.05581   0.08063   0.08740   0.09965
 Alpha virt. eigenvalues --    0.10114   0.10759   0.11752   0.12101   0.12863

 Mulliken charges:
               1
     1  C   -0.219430
     2  O   -0.524481
     3  C    0.329609
     4  C   -0.191030
     5  C   -0.136785
     6  C   -0.128094
     7  C   -0.187556
     8  C    0.100248
     9  C   -0.188581
    10  N   -0.672018
    11  C    0.344084
    12  C   -0.009115
    13  N   -0.416728
    14  C   -0.015981
    15  C    0.042071
    16  C    0.527308
    17  O   -0.522311
    18  N   -0.431160
    19  C   -0.164288
    20  C   -0.343650
    21  C    0.130021
    22  C   -0.191392
    23  C   -0.126515
    24  C   -0.132878
    25  C   -0.179083
    26  C    0.095282
    27  C   -0.226526
    28  C   -0.178010
    29  H    0.156738
    30  H    0.174774
    31  H    0.158977
    32  H    0.135129
    33  H    0.133828
    34  H    0.131855
    35  H    0.135565
    36  H    0.152992
    37  H    0.162888
    38  H    0.332862
    39  H    0.129966
    40  H    0.143876
    41  H    0.146670
    42  H    0.185749
    43  H    0.178392
    44  H    0.146773
    45  H    0.123945
    46  H    0.128273
    47  H    0.128524
    48  H    0.124446
    49  H    0.182468
    50  H    0.162886
    51  H    0.159412
 Sum of Mulliken charges =  -0.00000

 Dipole moment (field-independent basis, Debye):
    X=              2.1996    Y=              4.4125    Z=              0.3319  Tot=              4.9415
 Quadrupole moment (field-independent basis, Debye-Ang):
   XX=           -126.8483   YY=           -163.2281   ZZ=           -162.7549
   XY=              7.6537   XZ=              4.1388   YZ=              6.9058

 Normal termination of Gaussian 16 at Fri Nov  4 22:46:05 2022.
