 Gaussian 16, Revision B.01,
 Gaussian 16:  ES64L-G16RevB.01 20-Dec-2017

 -------------------------------------------------------------------
 #p b3lyp/6-31g(d) 6D 10F nosymm GFInput td=(50-50,nstate=2) SCF=XQC
 -------------------------------------------------------------------

 ------------------------------
 Gaussian input prepared by ASE
 ------------------------------
 Symbolic Z-matrix:
 Charge =  0 Multiplicity = 1

                          Input orientation:
 ---------------------------------------------------------------------
 Center     Atomic      Atomic             Coordinates (Angstroms)
 Number     Number       Type             X           Y           Z
 ---------------------------------------------------------------------
      1          7           0       -6.131098   -0.177981   -1.935497
      2          6           0       -4.823869    0.411501   -1.680931
      3          6           0       -4.680072    0.801864   -0.234995
      4          6           0       -4.814001   -0.180651    0.757812
      5          6           0       -4.724506    0.155300    2.106582
      6          6           0       -4.507584    1.482758    2.488243
      7          6           0       -4.385335    2.469216    1.510664
      8          6           0       -4.474770    2.128971    0.158013
      9          6           0       -4.096310    1.181103   -2.760691
     10          6           0       -3.667268   -0.242800   -2.442737
     11          6           0       -2.348822   -0.607507   -1.848531
     12          6           0       -1.888572   -1.926632   -1.973475
     13          6           0       -0.669532   -2.348582   -1.447789
     14          6           0        0.138630   -1.429306   -0.764035
     15          7           0        1.387236   -1.758113   -0.193678
     16          6           0        2.053674   -2.956253   -0.206338
     17          8           0        1.646532   -3.977014   -0.743708
     18          6           0        3.381622   -2.965106    0.581081
     19          6           0        4.101559   -1.644750    0.730681
     20          6           0        4.841613   -1.112990   -0.364942
     21          6           0        5.491720    0.093355   -0.262929
     22          6           0        5.444776    0.852789    0.938224
     23          6           0        6.105013    2.102174    1.077326
     24          6           0        6.037519    2.806842    2.258669
     25          6           0        5.305714    2.291647    3.356468
     26          6           0        4.654902    1.082444    3.252827
     27          6           0        4.703768    0.331997    2.047661
     28          6           0        4.044737   -0.919886    1.906111
     29          6           0       -0.304278   -0.104999   -0.630678
     30          6           0       -1.523374    0.297127   -1.164420
     31          1           0       -6.205183   -0.464246   -2.910798
     32          1           0       -6.855463    0.524009   -1.781018
     33          1           0       -4.994407   -1.208080    0.457358
     34          1           0       -4.823458   -0.618912    2.863156
     35          1           0       -4.438203    1.744377    3.540959
     36          1           0       -4.226734    3.505878    1.796952
     37          1           0       -4.392504    2.905287   -0.598234
     38          1           0       -4.613061    1.352475   -3.702690
     39          1           0       -3.416194    1.982227   -2.482370
     40          1           0       -4.014421   -0.989909   -3.156121
     41          1           0       -2.502599   -2.652330   -2.502391
     42          1           0       -0.336468   -3.370522   -1.561881
     43          1           0        1.864566   -0.996830    0.273232
     44          1           0        3.152517   -3.385128    1.569003
     45          1           0        4.011295   -3.700968    0.071367
     46          1           0        4.889597   -1.679235   -1.291999
     47          1           0        6.056082    0.483077   -1.106903
     48          1           0        6.666871    2.494219    0.232771
     49          1           0        6.546759    3.761975    2.353386
     50          1           0        5.260503    2.856081    4.283857
     51          1           0        4.093428    0.685006    4.095184
     52          1           0        3.493981   -1.314338    2.758518
     53          1           0        0.313823    0.619631   -0.103766
     54          1           0       -1.830349    1.329739   -1.034190
 ---------------------------------------------------------------------

 SCF Done:  E(RB3LYP) =  -1228.05461640     A.U. after   15 cycles

 Excitation energies and oscillator strengths:

 Excited state symmetry could not be determined.
 Excited State   1:      Triplet-?Sym    2.7414 eV  452.27 nm  f=0.0000  <S**2>=2.000
      95 ->111        -0.14154
      97 ->106         0.12209
     100 ->105         0.11663
     100 ->106        -0.10137
     102 ->105         0.14753
     103 ->105         0.63439
 This state for optimization and/or second-order correction.
 Total Energy, E(TD-HF/TD-DFT) =  -1227.95387167
 Copying the excited state density for this state as the 1-particle RhoCI density.

 Excited state symmetry could not be determined.
 Excited State   2:      Triplet-?Sym    3.3791 eV  366.91 nm  f=0.0000  <S**2>=2.000
      98 ->110         0.14326
     100 ->110         0.11832
     101 ->110        -0.13321
     102 ->107         0.13540
     104 ->105         0.24004
     104 ->107         0.49345
     104 ->108         0.25217
     104 ->112        -0.11556

 Excited state symmetry could not be determined.
 Excited State   3:      Singlet-?Sym    3.7446 eV  331.10 nm  f=0.0291  <S**2>=0.000
     104 ->105         0.70233

 Excited state symmetry could not be determined.
 Excited State   4:      Singlet-?Sym    4.3279 eV  286.48 nm  f=0.0285  <S**2>=0.000
     100 ->105        -0.20067
     101 ->105        -0.17523
     103 ->105         0.57454
     103 ->106        -0.22815

 Alpha  occ. eigenvalues --  -19.11301 -14.37057 -14.31878 -10.29030 -10.22718
 Alpha  occ. eigenvalues --  -10.22690 -10.20995 -10.20660 -10.20550 -10.20142
 Alpha  occ. eigenvalues --  -10.20043 -10.20032 -10.19904 -10.19883 -10.19843
 Alpha  occ. eigenvalues --  -10.19802 -10.19780 -10.19496 -10.18965 -10.18796
 Alpha  occ. eigenvalues --  -10.18537 -10.18523 -10.18491 -10.18463 -10.18426
 Alpha  occ. eigenvalues --  -10.18313 -10.18206 -10.17964 -10.17951 -10.17427
 Alpha  occ. eigenvalues --   -1.03239  -0.93593  -0.91197  -0.88146  -0.84613
 Alpha  occ. eigenvalues --   -0.84302  -0.83432  -0.81282  -0.78555  -0.77072
 Alpha  occ. eigenvalues --   -0.74632  -0.73930  -0.73708  -0.73663  -0.72993
 Alpha  occ. eigenvalues --   -0.70350  -0.64384  -0.62970  -0.62153  -0.61107
 Alpha  occ. eigenvalues --   -0.61011  -0.60393  -0.59894  -0.58419  -0.56038
 Alpha  occ. eigenvalues --   -0.55070  -0.53265  -0.52147  -0.51710  -0.51543
 Alpha  occ. eigenvalues --   -0.49924  -0.49016  -0.48448  -0.46768  -0.45778
 Alpha  occ. eigenvalues --   -0.45615  -0.44715  -0.44576  -0.44108  -0.43928
 Alpha  occ. eigenvalues --   -0.43481  -0.42768  -0.42394  -0.41888  -0.41673
 Alpha  occ. eigenvalues --   -0.41247  -0.40922  -0.39983  -0.39646  -0.39206
 Alpha  occ. eigenvalues --   -0.38877  -0.38828  -0.37376  -0.36278  -0.35548
 Alpha  occ. eigenvalues --   -0.34979  -0.34638  -0.34489  -0.33773  -0.33644
 Alpha  occ. eigenvalues --   -0.33438  -0.33043  -0.32023  -0.31486  -0.29265
 Alpha  occ. eigenvalues --   -0.28023  -0.25777  -0.24566  -0.24411  -0.24014
 Alpha  occ. eigenvalues --   -0.23998  -0.22267  -0.22183  -0.20039
 Alpha virt. eigenvalues --   -0.04689  -0.01929  -0.00796   0.00001   0.00558
 Alpha virt. eigenvalues --    0.01070   0.02459   0.04961   0.08217   0.08294
 Alpha virt. eigenvalues --    0.09157   0.09460   0.10182   0.10667   0.10784

 Mulliken charges:
               1
     1  N   -0.716923
     2  C    0.138194
     3  C    0.132587
     4  C   -0.143292
     5  C   -0.134721
     6  C   -0.127147
     7  C   -0.131659
     8  C   -0.188659
     9  C   -0.349257
    10  C   -0.225675
    11  C    0.234020
    12  C   -0.220147
    13  C   -0.161444
    14  C    0.352438
    15  N   -0.718529
    16  C    0.606376
    17  O   -0.502778
    18  C   -0.451516
    19  C    0.132991
    20  C   -0.171951
    21  C   -0.190446
    22  C    0.133327
    23  C   -0.190790
    24  C   -0.134052
    25  C   -0.135821
    26  C   -0.190037
    27  C    0.145579
    28  C   -0.276197
    29  C   -0.200930
    30  C   -0.201727
    31  H    0.293304
    32  H    0.299926
    33  H    0.145405
    34  H    0.129397
    35  H    0.126116
    36  H    0.125576
    37  H    0.124315
    38  H    0.142740
    39  H    0.153503
    40  H    0.135371
    41  H    0.126146
    42  H    0.182654
    43  H    0.341774
    44  H    0.180943
    45  H    0.184006
    46  H    0.139960
    47  H    0.136611
    48  H    0.133602
    49  H    0.133940
    50  H    0.134139
    51  H    0.133085
    52  H    0.132381
    53  H    0.124593
    54  H    0.128704
 Sum of Mulliken charges =  -0.00000

 Dipole moment (field-independent basis, Debye):
    X=              0.9289    Y=              4.0347    Z=              0.7087  Tot=              4.2005
 Quadrupole moment (field-independent basis, Debye-Ang):
   XX=           -158.9159   YY=           -178.1045   ZZ=           -158.6826
   XY=              2.9322   XZ=             10.5883   YZ=             -2.6352

 Normal termination of Gaussian 16 at Sat Nov  5 09:56:13 2022.
