 Gaussian 16, Revision B.01,
 Gaussian 16:  ES64L-G16RevB.01 20-Dec-2017

 -----------------------------
 #p b3lyp/6-31g(d) opt SCF=XQC
 -----------------------------

 ------------------------------
 Gaussian input prepared by ASE
 ------------------------------
 Symbolic Z-matrix:
 Charge =  0 Multiplicity = 1

 SCF Done:  E(RB3LYP) =  -1228.04542214     A.U. after   15 cycles
 SCF Done:  E(RB3LYP) =  -1228.05296168     A.U. after   12 cycles
 SCF Done:  E(RB3LYP) =  -1228.05391423     A.U. after   12 cycles
 SCF Done:  E(RB3LYP) =  -1228.05402695     A.U. after   12 cycles
 SCF Done:  E(RB3LYP) =  -1228.05442508     A.U. after   11 cycles
 SCF Done:  E(RB3LYP) =  -1228.05454420     A.U. after   11 cycles
 SCF Done:  E(RB3LYP) =  -1228.05458591     A.U. after   11 cycles
 SCF Done:  E(RB3LYP) =  -1228.05460162     A.U. after   10 cycles
 SCF Done:  E(RB3LYP) =  -1228.05461339     A.U. after   10 cycles
 SCF Done:  E(RB3LYP) =  -1228.05461640     A.U. after    9 cycles
 SCF Done:  E(RB3LYP) =  -1228.05461784     A.U. after    9 cycles
 SCF Done:  E(RB3LYP) =  -1228.05461875     A.U. after    8 cycles
 SCF Done:  E(RB3LYP) =  -1228.05461890     A.U. after    8 cycles
 SCF Done:  E(RB3LYP) =  -1228.05461897     A.U. after    7 cycles
 SCF Done:  E(RB3LYP) =  -1228.05461900     A.U. after    7 cycles
 Optimization completed.
    -- Stationary point found.

                         Standard orientation:
 ---------------------------------------------------------------------
 Center     Atomic      Atomic             Coordinates (Angstroms)
 Number     Number       Type             X           Y           Z
 ---------------------------------------------------------------------
      1          7           0       -6.566476   -0.541960   -0.456247
      2          6           0       -5.247551   -0.056339   -0.838019
      3          6           0       -4.809887    1.074328    0.052954
      4          6           0       -4.710667    0.859435    1.436036
      5          6           0       -4.345449    1.895982    2.291745
      6          6           0       -4.080564    3.170151    1.780673
      7          6           0       -4.188065    3.398221    0.409493
      8          6           0       -4.553955    2.355954   -0.446797
      9          6           0       -4.780573   -0.127495   -2.274813
     10          6           0       -4.264477   -1.147792   -1.272160
     11          6           0       -2.842984   -1.243915   -0.831124
     12          6           0       -2.392085   -2.436284   -0.245907
     13          6           0       -1.081009   -2.607604    0.192471
     14          6           0       -0.166052   -1.554870    0.049921
     15          7           0        1.181406   -1.628058    0.463972
     16          6           0        1.854984   -2.679729    1.029764
     17          8           0        1.364940   -3.773716    1.273761
     18          6           0        3.319135   -2.376997    1.414692
     19          6           0        4.026735   -1.295193    0.631730
     20          6           0        4.507535   -1.570009   -0.681338
     21          6           0        5.139226   -0.600674   -1.422735
     22          6           0        5.331114    0.709849   -0.905608
     23          6           0        5.979638    1.734333   -1.644577
     24          6           0        6.148404    2.991194   -1.107454
     25          6           0        5.675780    3.279838    0.196171
     26          6           0        5.043117    2.307322    0.938074
     27          6           0        4.852071    1.001596    0.412181
     28          6           0        4.204261   -0.026449    1.150445
     29          6           0       -0.598336   -0.355317   -0.534837
     30          6           0       -1.910754   -0.204715   -0.968033
     31          1           0       -6.838821   -1.325702   -1.048043
     32          1           0       -7.256374    0.194075   -0.610044
     33          1           0       -4.928978   -0.128315    1.829890
     34          1           0       -4.266268    1.711187    3.360006
     35          1           0       -3.795958    3.978747    2.448986
     36          1           0       -3.994246    4.387674    0.003045
     37          1           0       -4.649416    2.544422   -1.512964
     38          1           0       -5.488018   -0.473194   -3.025664
     39          1           0       -4.073882    0.610482   -2.646025
     40          1           0       -4.738765   -2.126732   -1.337972
     41          1           0       -3.088672   -3.263664   -0.129176
     42          1           0       -0.758306   -3.538755    0.636462
     43          1           0        1.730575   -0.792750    0.302496
     44          1           0        3.312584   -2.127554    2.483632
     45          1           0        3.842201   -3.334091    1.324346
     46          1           0        4.370504   -2.566569   -1.094205
     47          1           0        5.504425   -0.827928   -2.421567
     48          1           0        6.342219    1.508900   -2.644763
     49          1           0        6.646132    3.767252   -1.682412
     50          1           0        5.815629    4.274822    0.609848
     51          1           0        4.680558    2.527074    1.939592
     52          1           0        3.854237    0.200347    2.156213
     53          1           0        0.101831    0.469613   -0.653281
     54          1           0       -2.204778    0.741580   -1.410252
 ---------------------------------------------------------------------

 The electronic state is 1-A.
 Alpha  occ. eigenvalues --  -19.11301 -14.37057 -14.31878 -10.29030 -10.22718
 Alpha  occ. eigenvalues --  -10.22690 -10.20995 -10.20660 -10.20551 -10.20142
 Alpha  occ. eigenvalues --  -10.20043 -10.20032 -10.19904 -10.19883 -10.19843
 Alpha  occ. eigenvalues --  -10.19802 -10.19780 -10.19497 -10.18965 -10.18796
 Alpha  occ. eigenvalues --  -10.18538 -10.18523 -10.18491 -10.18463 -10.18426
 Alpha  occ. eigenvalues --  -10.18313 -10.18206 -10.17964 -10.17951 -10.17427
 Alpha  occ. eigenvalues --   -1.03239  -0.93593  -0.91197  -0.88146  -0.84613
 Alpha  occ. eigenvalues --   -0.84302  -0.83432  -0.81282  -0.78555  -0.77072
 Alpha  occ. eigenvalues --   -0.74632  -0.73930  -0.73708  -0.73663  -0.72993
 Alpha  occ. eigenvalues --   -0.70350  -0.64384  -0.62970  -0.62153  -0.61107
 Alpha  occ. eigenvalues --   -0.61011  -0.60393  -0.59894  -0.58419  -0.56038
 Alpha  occ. eigenvalues --   -0.55070  -0.53265  -0.52147  -0.51710  -0.51543
 Alpha  occ. eigenvalues --   -0.49924  -0.49016  -0.48448  -0.46768  -0.45778
 Alpha  occ. eigenvalues --   -0.45615  -0.44715  -0.44576  -0.44108  -0.43928
 Alpha  occ. eigenvalues --   -0.43481  -0.42768  -0.42394  -0.41888  -0.41673
 Alpha  occ. eigenvalues --   -0.41247  -0.40922  -0.39983  -0.39646  -0.39206
 Alpha  occ. eigenvalues --   -0.38877  -0.38828  -0.37376  -0.36278  -0.35548
 Alpha  occ. eigenvalues --   -0.34979  -0.34638  -0.34489  -0.33773  -0.33644
 Alpha  occ. eigenvalues --   -0.33438  -0.33043  -0.32023  -0.31486  -0.29265
 Alpha  occ. eigenvalues --   -0.28023  -0.25777  -0.24566  -0.24411  -0.24014
 Alpha  occ. eigenvalues --   -0.23998  -0.22267  -0.22183  -0.20039
 Alpha virt. eigenvalues --   -0.04689  -0.01929  -0.00796   0.00002   0.00558
 Alpha virt. eigenvalues --    0.01070   0.02459   0.04961   0.08217   0.08294
 Alpha virt. eigenvalues --    0.09157   0.09460   0.10182   0.10667   0.10784

 Mulliken charges:
               1
     1  N   -0.716923
     2  C    0.138176
     3  C    0.132618
     4  C   -0.143297
     5  C   -0.134726
     6  C   -0.127146
     7  C   -0.131654
     8  C   -0.188672
     9  C   -0.349259
    10  C   -0.225677
    11  C    0.234017
    12  C   -0.220149
    13  C   -0.161445
    14  C    0.352441
    15  N   -0.718531
    16  C    0.606378
    17  O   -0.502780
    18  C   -0.451528
    19  C    0.133001
    20  C   -0.171943
    21  C   -0.190444
    22  C    0.133322
    23  C   -0.190782
    24  C   -0.134064
    25  C   -0.135814
    26  C   -0.190023
    27  C    0.145554
    28  C   -0.276192
    29  C   -0.200924
    30  C   -0.201726
    31  H    0.293304
    32  H    0.299927
    33  H    0.145405
    34  H    0.129398
    35  H    0.126116
    36  H    0.125575
    37  H    0.124317
    38  H    0.142741
    39  H    0.153505
    40  H    0.135372
    41  H    0.126145
    42  H    0.182653
    43  H    0.341776
    44  H    0.180944
    45  H    0.184007
    46  H    0.139958
    47  H    0.136612
    48  H    0.133601
    49  H    0.133939
    50  H    0.134137
    51  H    0.133086
    52  H    0.132382
    53  H    0.124587
    54  H    0.128704
 Sum of Mulliken charges =  -0.00000

 Dipole moment (field-independent basis, Debye):
    X=              0.9733    Y=              3.5853    Z=             -1.9602  Tot=              4.2005
 Quadrupole moment (field-independent basis, Debye-Ang):
   XX=           -154.9719   YY=           -175.3364   ZZ=           -164.7040
   XY=              7.4085   XZ=              6.4824   YZ=              5.4501

 Normal termination of Gaussian 16 at Fri Nov  4 22:38:55 2022.
