 Gaussian 16, Revision B.01,
 Gaussian 16:  ES64L-G16RevB.01 20-Dec-2017

 -------------------------------------------------------------------
 #p b3lyp/6-31g(d) 6D 10F nosymm GFInput td=(50-50,nstate=2) SCF=XQC
 -------------------------------------------------------------------

 ------------------------------
 Gaussian input prepared by ASE
 ------------------------------
 Symbolic Z-matrix:
 Charge =  0 Multiplicity = 1

                          Input orientation:
 ---------------------------------------------------------------------
 Center     Atomic      Atomic             Coordinates (Angstroms)
 Number     Number       Type             X           Y           Z
 ---------------------------------------------------------------------
      1          6           0      -11.187502    1.414075    0.753000
      2          6           0      -10.376935    1.125664   -0.516451
      3          6           0       -9.122434    0.262929   -0.293714
      4          6           0       -8.029447    0.938414    0.548639
      5          6           0       -6.779241    0.075759    0.789822
      6          6           0       -5.948675   -0.200270   -0.483509
      7          6           0       -4.699516   -0.998229   -0.224499
      8         16           0       -4.825124   -2.733319    0.001872
      9          6           0       -3.104563   -2.861241    0.270435
     10          6           0       -2.415237   -4.056142    0.535947
     11          6           0       -1.055078   -4.010391    0.724087
     12          6           0       -0.323302   -2.790767    0.654662
     13          6           0        1.119860   -2.763807    0.856219
     14          6           0        1.845826   -3.954167    1.146555
     15          6           0        3.205722   -3.949567    1.340296
     16          6           0        3.900932   -2.732261    1.245721
     17         16           0        5.621050   -2.538998    1.464860
     18          6           0        5.508160   -0.814202    1.168941
     19          6           0        6.751310    0.038323    1.216326
     20          6           0        7.485453    0.226176   -0.132975
     21          6           0        8.165960   -1.038686   -0.677414
     22          6           0        8.937304   -0.832807   -2.001720
     23          6           0        8.152799   -1.146722   -3.288582
     24          6           0        6.918718   -0.274660   -3.546095
     25          6           0        4.216587   -0.414699    0.922006
     26          6           0        3.917757    1.027862    0.668461
     27          6           0        3.677108    1.903785    1.738601
     28          6           0        3.427129    3.257839    1.510098
     29          6           0        3.415412    3.758798    0.207028
     30          6           0        3.657693    2.898610   -0.865686
     31          6           0        3.909643    1.545219   -0.636332
     32          6           0        3.258915   -1.514022    0.960727
     33          6           0        1.830259   -1.526723    0.765691
     34          6           0        1.080290   -0.345819    0.484582
     35          6           0       -0.272878   -0.369858    0.303122
     36          6           0       -1.028086   -1.578063    0.378782
     37          6           0       -2.456178   -1.616528    0.186444
     38          6           0       -3.408482   -0.548386   -0.098164
     39          6           0       -3.108985    0.908186   -0.248940
     40          6           0       -3.123820    1.761896    0.865102
     41          6           0       -2.875767    3.127634    0.720363
     42          6           0       -2.614470    3.663194   -0.542257
     43          6           0       -2.604248    2.825553   -1.659218
     44          6           0       -2.851014    1.459539   -1.513689
     45          1           0      -12.094742    1.982687    0.518600
     46          1           0      -11.496877    0.482179    1.242978
     47          1           0      -10.615272    1.997794    1.482631
     48          1           0      -10.082678    2.075177   -0.986428
     49          1           0      -11.025563    0.617157   -1.242404
     50          1           0       -8.713298   -0.009028   -1.275796
     51          1           0       -9.415284   -0.682881    0.187120
     52          1           0       -7.731419    1.882030    0.066997
     53          1           0       -8.443458    1.214866    1.526875
     54          1           0       -6.130637    0.578782    1.518056
     55          1           0       -7.072737   -0.879130    1.247204
     56          1           0       -6.566496   -0.725480   -1.222402
     57          1           0       -5.662700    0.755432   -0.937109
     58          1           0       -2.949248   -5.000331    0.591561
     59          1           0       -0.542445   -4.942266    0.926057
     60          1           0        1.328294   -4.901695    1.225827
     61          1           0        3.735263   -4.871254    1.563597
     62          1           0        7.453555   -0.381754    1.948777
     63          1           0        6.466403    1.027147    1.592531
     64          1           0        6.779768    0.633679   -0.864817
     65          1           0        8.253055    0.998916    0.015701
     66          1           0        8.864220   -1.401379    0.090399
     67          1           0        7.425679   -1.838893   -0.808532
     68          1           0        9.316884    0.198898   -2.048013
     69          1           0        9.826526   -1.476772   -1.994895
     70          1           0        7.847497   -2.202615   -3.266926
     71          1           0        8.839375   -1.048606   -4.140820
     72          1           0        6.147462   -0.427876   -2.783053
     73          1           0        6.468858   -0.512895   -4.517069
     74          1           0        7.177617    0.791633   -3.551879
     75          1           0        3.680587    1.513912    2.752960
     76          1           0        3.240842    3.920867    2.350966
     77          1           0        3.219543    4.812740    0.028624
     78          1           0        3.651982    3.280661   -1.883181
     79          1           0        4.090823    0.876567   -1.473551
     80          1           0        1.591413    0.603240    0.413345
     81          1           0       -0.780037    0.560785    0.093566
     82          1           0       -3.322017    1.345704    1.849142
     83          1           0       -2.888248    3.773338    1.594586
     84          1           0       -2.421411    4.726666   -0.655251
     85          1           0       -2.404432    3.234985   -2.646044
     86          1           0       -2.839558    0.807894   -2.383205
 ---------------------------------------------------------------------

 SCF Done:  E(RB3LYP) =  -2422.21333062     A.U. after   16 cycles

 Excitation energies and oscillator strengths:

 Excited state symmetry could not be determined.
 Excited State   1:      Triplet-?Sym    2.4772 eV  500.51 nm  f=0.0000  <S**2>=2.000
     161 ->165        -0.14783
     162 ->165        -0.19827
     163 ->164         0.62216
 This state for optimization and/or second-order correction.
 Total Energy, E(TD-HF/TD-DFT) =  -2422.12229674
 Copying the excited state density for this state as the 1-particle RhoCI density.

 Excited state symmetry could not be determined.
 Excited State   2:      Triplet-?Sym    2.9605 eV  418.80 nm  f=0.0000  <S**2>=2.000
     161 ->164        -0.36038
     161 ->171        -0.12047
     162 ->164        -0.25120
     163 ->165         0.45461
     163 ->168        -0.12679
     163 ->170         0.14486

 Excited state symmetry could not be determined.
 Excited State   3:      Singlet-?Sym    3.6278 eV  341.76 nm  f=0.4820  <S**2>=0.000
     162 ->165        -0.12300
     163 ->164         0.68572

 Excited state symmetry could not be determined.
 Excited State   4:      Singlet-?Sym    3.7109 eV  334.11 nm  f=0.0022  <S**2>=0.000
     162 ->164         0.51219
     163 ->165         0.43846
     163 ->168         0.17624

 Alpha  occ. eigenvalues --  -88.89712 -88.89644 -10.21765 -10.21752 -10.21260
 Alpha  occ. eigenvalues --  -10.21247 -10.20166 -10.20156 -10.19761 -10.19743
 Alpha  occ. eigenvalues --  -10.19600 -10.19594 -10.19575 -10.19565 -10.19492
 Alpha  occ. eigenvalues --  -10.19458 -10.19348 -10.19346 -10.19316 -10.19316
 Alpha  occ. eigenvalues --  -10.19275 -10.19269 -10.19267 -10.19191 -10.19135
 Alpha  occ. eigenvalues --  -10.19131 -10.19131 -10.19129 -10.19120 -10.19105
 Alpha  occ. eigenvalues --  -10.18502 -10.18495 -10.18226 -10.18008 -10.17885
 Alpha  occ. eigenvalues --  -10.17828 -10.17721 -10.17639 -10.17585 -10.17520
 Alpha  occ. eigenvalues --  -10.17516 -10.17433 -10.17141 -10.16989  -7.95829
 Alpha  occ. eigenvalues --   -7.95775  -5.92249  -5.92196  -5.91897  -5.91844
 Alpha  occ. eigenvalues --   -5.91490  -5.91431  -0.89242  -0.88749  -0.85969
 Alpha  occ. eigenvalues --   -0.85501  -0.84897  -0.82165  -0.80722  -0.80032
 Alpha  occ. eigenvalues --   -0.79799  -0.77750  -0.77476  -0.76778  -0.76588
 Alpha  occ. eigenvalues --   -0.74749  -0.74577  -0.74572  -0.74171  -0.72386
 Alpha  occ. eigenvalues --   -0.72255  -0.71019  -0.69408  -0.68672  -0.68404
 Alpha  occ. eigenvalues --   -0.65430  -0.64906  -0.62378  -0.61418  -0.60589
 Alpha  occ. eigenvalues --   -0.60557  -0.60451  -0.59964  -0.59382  -0.59193
 Alpha  occ. eigenvalues --   -0.58286  -0.56582  -0.56048  -0.55817  -0.54101
 Alpha  occ. eigenvalues --   -0.53317  -0.52193  -0.51763  -0.50039  -0.49567
 Alpha  occ. eigenvalues --   -0.48432  -0.47974  -0.47336  -0.46727  -0.45963
 Alpha  occ. eigenvalues --   -0.45620  -0.45359  -0.45247  -0.45049  -0.44610
 Alpha  occ. eigenvalues --   -0.44513  -0.44234  -0.43903  -0.43548  -0.43082
 Alpha  occ. eigenvalues --   -0.42426  -0.42214  -0.42119  -0.42115  -0.41346
 Alpha  occ. eigenvalues --   -0.40873  -0.40463  -0.40310  -0.40153  -0.39728
 Alpha  occ. eigenvalues --   -0.39566  -0.39007  -0.38563  -0.38082  -0.37896
 Alpha  occ. eigenvalues --   -0.37505  -0.37432  -0.36787  -0.36588  -0.36055
 Alpha  occ. eigenvalues --   -0.35972  -0.35800  -0.35408  -0.34932  -0.34843
 Alpha  occ. eigenvalues --   -0.34703  -0.34585  -0.34251  -0.34068  -0.33746
 Alpha  occ. eigenvalues --   -0.33497  -0.32844  -0.32695  -0.32238  -0.32132
 Alpha  occ. eigenvalues --   -0.31734  -0.31632  -0.31555  -0.31218  -0.30824
 Alpha  occ. eigenvalues --   -0.30728  -0.30393  -0.29822  -0.27702  -0.25384
 Alpha  occ. eigenvalues --   -0.25282  -0.24761  -0.24726  -0.24543  -0.24326
 Alpha  occ. eigenvalues --   -0.21315  -0.20412  -0.18963
 Alpha virt. eigenvalues --   -0.03980  -0.02482  -0.00937  -0.00865  -0.00820
 Alpha virt. eigenvalues --   -0.00723  -0.00123   0.01373   0.03078   0.03162
 Alpha virt. eigenvalues --    0.04504   0.06999   0.07832   0.08808   0.08892

 Mulliken charges:
               1
     1  C   -0.443746
     2  C   -0.248784
     3  C   -0.253618
     4  C   -0.257089
     5  C   -0.254970
     6  C   -0.332666
     7  C   -0.153647
     8  S    0.206116
     9  C   -0.158151
    10  C   -0.184631
    11  C   -0.175692
    12  C    0.042442
    13  C    0.042663
    14  C   -0.175776
    15  C   -0.183769
    16  C   -0.159293
    17  S    0.209309
    18  C   -0.152872
    19  C   -0.334011
    20  C   -0.255357
    21  C   -0.264997
    22  C   -0.255549
    23  C   -0.249075
    24  C   -0.447911
    25  C    0.018363
    26  C    0.017905
    27  C   -0.146629
    28  C   -0.131622
    29  C   -0.125268
    30  C   -0.133128
    31  C   -0.151034
    32  C    0.053383
    33  C    0.103453
    34  C   -0.211312
    35  C   -0.211277
    36  C    0.104060
    37  C    0.051949
    38  C    0.023970
    39  C    0.014412
    40  C   -0.146548
    41  C   -0.131392
    42  C   -0.125720
    43  C   -0.131483
    44  C   -0.147073
    45  H    0.142394
    46  H    0.141224
    47  H    0.146216
    48  H    0.130025
    49  H    0.131222
    50  H    0.131934
    51  H    0.127591
    52  H    0.129542
    53  H    0.135755
    54  H    0.139918
    55  H    0.141650
    56  H    0.154551
    57  H    0.162280
    58  H    0.137371
    59  H    0.132604
    60  H    0.132711
    61  H    0.137332
    62  H    0.147157
    63  H    0.162685
    64  H    0.151368
    65  H    0.131968
    66  H    0.126201
    67  H    0.152821
    68  H    0.126829
    69  H    0.129858
    70  H    0.133441
    71  H    0.129409
    72  H    0.153653
    73  H    0.141386
    74  H    0.139331
    75  H    0.138659
    76  H    0.132762
    77  H    0.130727
    78  H    0.133243
    79  H    0.143683
    80  H    0.156683
    81  H    0.156626
    82  H    0.138762
    83  H    0.132660
    84  H    0.130678
    85  H    0.132683
    86  H    0.138469
 Sum of Mulliken charges =  -0.00000

 Dipole moment (field-independent basis, Debye):
    X=             -0.1429    Y=              2.5711    Z=             -0.4453  Tot=              2.6133
 Quadrupole moment (field-independent basis, Debye-Ang):
   XX=           -260.8046   YY=           -256.4759   ZZ=           -271.2622
   XY=              0.2939   XZ=             -0.2376   YZ=             -0.9833

 Normal termination of Gaussian 16 at Sat Nov  5 10:38:09 2022.
