 Gaussian 16, Revision B.01,
 Gaussian 16:  ES64L-G16RevB.01 20-Dec-2017

 -----------------------------
 #p b3lyp/6-31g(d) opt SCF=XQC
 -----------------------------

 ------------------------------
 Gaussian input prepared by ASE
 ------------------------------
 Symbolic Z-matrix:
 Charge =  0 Multiplicity = 1

 SCF Done:  E(RB3LYP) =  -2422.20025434     A.U. after   16 cycles
 SCF Done:  E(RB3LYP) =  -2422.21139678     A.U. after   12 cycles
 SCF Done:  E(RB3LYP) =  -2422.21263034     A.U. after   12 cycles
 SCF Done:  E(RB3LYP) =  -2422.21304741     A.U. after   11 cycles
 SCF Done:  E(RB3LYP) =  -2422.21318993     A.U. after   11 cycles
 SCF Done:  E(RB3LYP) =  -2422.21326075     A.U. after   11 cycles
 SCF Done:  E(RB3LYP) =  -2422.21329201     A.U. after   11 cycles
 SCF Done:  E(RB3LYP) =  -2422.21332132     A.U. after   11 cycles
 SCF Done:  E(RB3LYP) =  -2422.21332723     A.U. after   10 cycles
 SCF Done:  E(RB3LYP) =  -2422.21332997     A.U. after    9 cycles
 SCF Done:  E(RB3LYP) =  -2422.21333629     A.U. after   10 cycles
 SCF Done:  E(RB3LYP) =  -2422.21334052     A.U. after   10 cycles
 SCF Done:  E(RB3LYP) =  -2422.21334196     A.U. after    9 cycles
 SCF Done:  E(RB3LYP) =  -2422.21334255     A.U. after    9 cycles
 SCF Done:  E(RB3LYP) =  -2422.21334263     A.U. after    7 cycles
 SCF Done:  E(RB3LYP) =  -2422.21334273     A.U. after    7 cycles
 SCF Done:  E(RB3LYP) =  -2422.21334277     A.U. after    6 cycles
 SCF Done:  E(RB3LYP) =  -2422.21334280     A.U. after    7 cycles
 Optimization completed.
    -- Stationary point found.

                         Standard orientation:
 ---------------------------------------------------------------------
 Center     Atomic      Atomic             Coordinates (Angstroms)
 Number     Number       Type             X           Y           Z
 ---------------------------------------------------------------------
      1          6           0       11.433247    1.001635   -0.518214
      2          6           0       10.573450    0.971635    0.751256
      3          6           0        9.273979    0.157125    0.626172
      4          6           0        8.247471    0.746918   -0.353054
      5          6           0        6.952773   -0.070778   -0.496188
      6          6           0        6.073691   -0.086807    0.774388
      7          6           0        4.784524   -0.843762    0.603242
      8         16           0        4.807877   -2.596807    0.665257
      9          6           0        3.090291   -2.668520    0.359357
     10          6           0        2.335173   -3.849435    0.266119
     11          6           0        0.985867   -3.757517    0.024364
     12          6           0        0.329774   -2.503215   -0.130775
     13          6           0       -1.103165   -2.427261   -0.385700
     14          6           0       -1.893909   -3.605674   -0.505469
     15          6           0       -3.245365   -3.555216   -0.746079
     16          6           0       -3.865775   -2.301168   -0.874729
     17         16           0       -5.564241   -2.048494   -1.183841
     18          6           0       -5.352095   -0.307820   -1.167045
     19          6           0       -6.538172    0.595016   -1.396332
     20          6           0       -7.294191    1.042776   -0.122435
     21          6           0       -8.066006   -0.074981    0.594713
     22          6           0       -8.857369    0.388565    1.839708
     23          6           0       -8.127765    0.245232    3.187722
     24          6           0       -6.848996    1.075785    3.344859
     25          6           0       -4.045070    0.052314   -0.941813
     26          6           0       -3.663848    1.497474   -0.914463
     27          6           0       -3.341347    2.171251   -2.102896
     28          6           0       -3.013715    3.527935   -2.087674
     29          6           0       -3.004897    4.233913   -0.883262
     30          6           0       -3.328116    3.576147    0.305103
     31          6           0       -3.657651    2.220090    0.288865
     32          6           0       -3.156917   -1.091379   -0.767752
     33          6           0       -1.737394   -1.153530   -0.522086
     34          6           0       -0.923049    0.012691   -0.409026
     35          6           0        0.420806   -0.058539   -0.177622
     36          6           0        1.101151   -1.303952   -0.029638
     37          6           0        2.518579   -1.391886    0.217516
     38          6           0        3.527697   -0.347701    0.359535
     39          6           0        3.315506    1.128598    0.261796
     40          6           0        3.412472    1.786204   -0.974441
     41          6           0        3.246120    3.169119   -1.061589
     42          6           0        2.985752    3.918140    0.087534
     43          6           0        2.894312    3.276574    1.324216
     44          6           0        3.059383    1.893332    1.410583
     45          1           0       12.367656    1.548209   -0.346501
     46          1           0       11.696769   -0.014010   -0.839527
     47          1           0       10.917662    1.489770   -1.352740
     48          1           0       10.326629    2.000494    1.050536
     49          1           0       11.170032    0.552610    1.572726
     50          1           0        8.823226    0.073378    1.623993
     51          1           0        9.519911   -0.869783    0.315535
     52          1           0        7.996216    1.772094   -0.041451
     53          1           0        8.703268    0.835443   -1.347634
     54          1           0        6.355933    0.342471   -1.319020
     55          1           0        7.198171   -1.102826   -0.782205
     56          1           0        6.638159   -0.518405    1.610216
     57          1           0        5.835945    0.944995    1.056813
     58          1           0        2.810716   -4.818920    0.383214
     59          1           0        0.421735   -4.679075   -0.042429
     60          1           0       -1.434398   -4.581379   -0.411756
     61          1           0       -3.825177   -4.469266   -0.836164
     62          1           0       -7.245814    0.101512   -2.075885
     63          1           0       -6.182611    1.491034   -1.917105
     64          1           0       -6.583883    1.523602    0.558676
     65          1           0       -8.008120    1.823308   -0.421637
     66          1           0       -8.765182   -0.517986   -0.128856
     67          1           0       -7.380586   -0.883878    0.880063
     68          1           0       -9.173147    1.433899    1.704804
     69          1           0       -9.784428   -0.196002    1.905262
     70          1           0       -7.888243   -0.815652    3.348170
     71          1           0       -8.828929    0.520544    3.987657
     72          1           0       -6.069100    0.755971    2.644840
     73          1           0       -6.440323    0.974391    4.357097
     74          1           0       -7.041160    2.141664    3.168739
     75          1           0       -3.342575    1.621461   -3.040268
     76          1           0       -2.764674    4.032667   -3.017509
     77          1           0       -2.748604    5.289917   -0.870829
     78          1           0       -3.325229    4.118620    1.246913
     79          1           0       -3.901851    1.708929    1.216194
     80          1           0       -1.375861    0.988223   -0.510680
     81          1           0        0.979202    0.863360   -0.103346
     82          1           0        3.610034    1.203942   -1.870417
     83          1           0        3.321544    3.661254   -2.027752
     84          1           0        2.856303    4.995028    0.019962
     85          1           0        2.694642    3.852727    2.223974
     86          1           0        2.984736    1.394517    2.373102
 ---------------------------------------------------------------------

 The electronic state is 1-A.
 Alpha  occ. eigenvalues --  -88.89713 -88.89644 -10.21765 -10.21752 -10.21260
 Alpha  occ. eigenvalues --  -10.21247 -10.20166 -10.20156 -10.19761 -10.19743
 Alpha  occ. eigenvalues --  -10.19600 -10.19594 -10.19575 -10.19565 -10.19492
 Alpha  occ. eigenvalues --  -10.19458 -10.19347 -10.19346 -10.19316 -10.19316
 Alpha  occ. eigenvalues --  -10.19275 -10.19269 -10.19266 -10.19191 -10.19135
 Alpha  occ. eigenvalues --  -10.19131 -10.19131 -10.19129 -10.19120 -10.19105
 Alpha  occ. eigenvalues --  -10.18502 -10.18495 -10.18226 -10.18008 -10.17885
 Alpha  occ. eigenvalues --  -10.17828 -10.17722 -10.17639 -10.17585 -10.17520
 Alpha  occ. eigenvalues --  -10.17516 -10.17433 -10.17141 -10.16990  -7.95830
 Alpha  occ. eigenvalues --   -7.95775  -5.92249  -5.92196  -5.91897  -5.91844
 Alpha  occ. eigenvalues --   -5.91490  -5.91431  -0.89242  -0.88749  -0.85969
 Alpha  occ. eigenvalues --   -0.85501  -0.84897  -0.82165  -0.80722  -0.80032
 Alpha  occ. eigenvalues --   -0.79799  -0.77750  -0.77476  -0.76778  -0.76588
 Alpha  occ. eigenvalues --   -0.74749  -0.74577  -0.74572  -0.74171  -0.72386
 Alpha  occ. eigenvalues --   -0.72255  -0.71019  -0.69408  -0.68672  -0.68404
 Alpha  occ. eigenvalues --   -0.65430  -0.64906  -0.62378  -0.61418  -0.60589
 Alpha  occ. eigenvalues --   -0.60557  -0.60451  -0.59964  -0.59382  -0.59193
 Alpha  occ. eigenvalues --   -0.58286  -0.56582  -0.56048  -0.55817  -0.54101
 Alpha  occ. eigenvalues --   -0.53316  -0.52193  -0.51763  -0.50039  -0.49567
 Alpha  occ. eigenvalues --   -0.48432  -0.47974  -0.47336  -0.46727  -0.45963
 Alpha  occ. eigenvalues --   -0.45620  -0.45359  -0.45247  -0.45049  -0.44610
 Alpha  occ. eigenvalues --   -0.44513  -0.44234  -0.43903  -0.43548  -0.43082
 Alpha  occ. eigenvalues --   -0.42426  -0.42214  -0.42119  -0.42115  -0.41346
 Alpha  occ. eigenvalues --   -0.40873  -0.40463  -0.40310  -0.40153  -0.39728
 Alpha  occ. eigenvalues --   -0.39566  -0.39007  -0.38563  -0.38082  -0.37896
 Alpha  occ. eigenvalues --   -0.37505  -0.37432  -0.36787  -0.36588  -0.36055
 Alpha  occ. eigenvalues --   -0.35972  -0.35800  -0.35408  -0.34932  -0.34843
 Alpha  occ. eigenvalues --   -0.34703  -0.34585  -0.34251  -0.34068  -0.33746
 Alpha  occ. eigenvalues --   -0.33497  -0.32844  -0.32695  -0.32238  -0.32132
 Alpha  occ. eigenvalues --   -0.31734  -0.31632  -0.31555  -0.31218  -0.30824
 Alpha  occ. eigenvalues --   -0.30728  -0.30393  -0.29822  -0.27702  -0.25384
 Alpha  occ. eigenvalues --   -0.25282  -0.24761  -0.24726  -0.24543  -0.24326
 Alpha  occ. eigenvalues --   -0.21315  -0.20412  -0.18963
 Alpha virt. eigenvalues --   -0.03980  -0.02482  -0.00937  -0.00865  -0.00820
 Alpha virt. eigenvalues --   -0.00723  -0.00123   0.01373   0.03078   0.03163
 Alpha virt. eigenvalues --    0.04505   0.06999   0.07832   0.08808   0.08892

 Mulliken charges:
               1
     1  C   -0.443741
     2  C   -0.248790
     3  C   -0.253633
     4  C   -0.257106
     5  C   -0.254977
     6  C   -0.332659
     7  C   -0.153648
     8  S    0.206119
     9  C   -0.158161
    10  C   -0.184628
    11  C   -0.175697
    12  C    0.042443
    13  C    0.042665
    14  C   -0.175774
    15  C   -0.183770
    16  C   -0.159274
    17  S    0.209284
    18  C   -0.152852
    19  C   -0.334019
    20  C   -0.255351
    21  C   -0.265009
    22  C   -0.255509
    23  C   -0.249093
    24  C   -0.447925
    25  C    0.018349
    26  C    0.017906
    27  C   -0.146640
    28  C   -0.131612
    29  C   -0.125281
    30  C   -0.133110
    31  C   -0.151035
    32  C    0.053390
    33  C    0.103446
    34  C   -0.211315
    35  C   -0.211282
    36  C    0.104057
    37  C    0.051973
    38  C    0.023954
    39  C    0.014432
    40  C   -0.146559
    41  C   -0.131383
    42  C   -0.125723
    43  C   -0.131477
    44  C   -0.147085
    45  H    0.142395
    46  H    0.141225
    47  H    0.146217
    48  H    0.130027
    49  H    0.131224
    50  H    0.131940
    51  H    0.127597
    52  H    0.129550
    53  H    0.135761
    54  H    0.139919
    55  H    0.141652
    56  H    0.154551
    57  H    0.162279
    58  H    0.137371
    59  H    0.132604
    60  H    0.132711
    61  H    0.137331
    62  H    0.147158
    63  H    0.162687
    64  H    0.151367
    65  H    0.131967
    66  H    0.126200
    67  H    0.152824
    68  H    0.126822
    69  H    0.129852
    70  H    0.133444
    71  H    0.129411
    72  H    0.153656
    73  H    0.141391
    74  H    0.139333
    75  H    0.138659
    76  H    0.132762
    77  H    0.130726
    78  H    0.133241
    79  H    0.143685
    80  H    0.156684
    81  H    0.156628
    82  H    0.138761
    83  H    0.132660
    84  H    0.130678
    85  H    0.132683
    86  H    0.138470
 Sum of Mulliken charges =  -0.00000

 Dipole moment (field-independent basis, Debye):
    X=              0.2909    Y=              2.5969    Z=              0.0284  Tot=              2.6133
 Quadrupole moment (field-independent basis, Debye-Ang):
   XX=           -260.7282   YY=           -254.6052   ZZ=           -271.1854
   XY=              0.5003   XZ=              0.1235   YZ=             -1.3052

 1\1\GINC-NODE72\FOpt\RB3LYP\6-31G(d)\C42H42S2\WYKGROUP\04-Nov-2022\0\\
 #p b3lyp/6-31g(d) opt SCF=XQC\\Gaussian input prepared by ASE\\0,1\C,-
 11.1875018666,1.4140746937,0.7529996326\C,-10.3769346622,1.1256637774,
 -0.5164508165\C,-9.1224335277,0.2629287343,-0.2937137028\C,-8.02944682
 23,0.9384138865,0.548638765\C,-6.7792414928,0.0757587748,0.7898224051\
 C,-5.9486753569,-0.2002700188,-0.4835090161\C,-4.6995156241,-0.9982287
 403,-0.2244986035\S,-4.8251239295,-2.7333187455,0.0018715645\C,-3.1045
 62654,-2.8612406019,0.2704353065\C,-2.4152373152,-4.0561422228,0.53594

 Normal termination of Gaussian 16 at Fri Nov  4 23:20:44 2022.
