 Gaussian 16, Revision B.01,
 Gaussian 16:  ES64L-G16RevB.01 20-Dec-2017

 -------------------------------------------------------------------
 #p b3lyp/6-31g(d) 6D 10F nosymm GFInput td=(50-50,nstate=2) SCF=XQC
 -------------------------------------------------------------------

 ------------------------------
 Gaussian input prepared by ASE
 ------------------------------
 Symbolic Z-matrix:
 Charge =  0 Multiplicity = 1

                          Input orientation:
 ---------------------------------------------------------------------
 Center     Atomic      Atomic             Coordinates (Angstroms)
 Number     Number       Type             X           Y           Z
 ---------------------------------------------------------------------
      1          6           0        7.096600   -0.070705    3.068760
      2          6           0        6.096230   -0.274413    1.958647
      3          6           0        5.084789    0.703085    1.722912
      4          6           0        4.181010    0.521393    0.708536
      5          6           0        4.272529   -0.647563   -0.091110
      6          6           0        3.393464   -0.949242   -1.169498
      7          7           0        2.352872   -0.034477   -1.510672
      8          7           0        2.639285    1.178968   -2.057975
      9          6           0        1.456610    1.748142   -2.298592
     10          6           0        1.390033    3.117621   -2.903780
     11          6           0        0.389556    0.892802   -1.932270
     12          6           0        0.995948   -0.241270   -1.430668
     13          7           0        0.414920   -1.389266   -0.865640
     14         16           0       -0.043740   -1.340837    0.801477
     15          8           0       -0.041149   -2.751104    1.198001
     16          8           0        0.740158   -0.330025    1.514912
     17          6           0       -1.737124   -0.761599    0.730454
     18          6           0       -2.759461   -1.648813    0.403382
     19          6           0       -4.072500   -1.181362    0.363801
     20          6           0       -4.411752    0.153459    0.642243
     21          6           0       -5.859460    0.673950    0.601594
     22          6           0       -5.975444    1.805471   -0.449700
     23          6           0       -6.259111    1.208721    1.999203
     24          6           0       -6.855468   -0.436469    0.215423
     25          6           0       -3.334250    0.992137    0.970343
     26          9           0       -3.561244    2.297261    1.262287
     27          6           0       -2.012866    0.571813    1.024106
     28          6           0        3.525278   -2.123544   -1.883638
     29          6           0        4.537559   -3.052092   -1.547820
     30          6           0        5.412991   -2.785426   -0.519934
     31          6           0        5.305431   -1.582710    0.226988
     32          7           0        6.199299   -1.376406    1.238698
     33          1           0        6.593906    0.016095    4.040260
     34          1           0        7.788813   -0.914284    3.103174
     35          1           0        7.669348    0.853267    2.919093
     36          1           0        5.037057    1.585736    2.354524
     37          1           0        3.404509    1.250033    0.507197
     38          1           0        0.849950    3.108443   -3.858091
     39          1           0        0.872604    3.823123   -2.242444
     40          1           0        2.401241    3.491786   -3.083793
     41          1           0       -0.672902    1.065908   -2.022201
     42          1           0        0.944202   -2.251046   -0.992646
     43          1           0       -2.535264   -2.689384    0.196565
     44          1           0       -4.856113   -1.885339    0.111461
     45          1           0       -7.006543    2.176504   -0.483502
     46          1           0       -5.717555    1.437033   -1.449365
     47          1           0       -5.320081    2.646545   -0.214399
     48          1           0       -5.614359    2.029732    2.319295
     49          1           0       -7.291729    1.576319    1.974466
     50          1           0       -6.202486    0.413723    2.751552
     51          1           0       -6.650841   -0.846174   -0.780328
     52          1           0       -7.868377   -0.020219    0.196992
     53          1           0       -6.853133   -1.261632    0.936636
     54          1           0       -1.229009    1.266784    1.300983
     55          1           0        2.865297   -2.313216   -2.725775
     56          1           0        4.626060   -3.971091   -2.119752
     57          1           0        6.204416   -3.476143   -0.247512
 ---------------------------------------------------------------------

 SCF Done:  E(RB3LYP) =  -1797.02994850     A.U. after   15 cycles

 Excitation energies and oscillator strengths:

 Excited state symmetry could not be determined.
 Excited State   1:      Triplet-?Sym    2.8553 eV  434.22 nm  f=0.0000  <S**2>=2.000
     111 ->125         0.10468
     115 ->120         0.16719
     116 ->120         0.16750
     117 ->123         0.17200
     119 ->120         0.61663
 This state for optimization and/or second-order correction.
 Total Energy, E(TD-HF/TD-DFT) =  -1796.92501660
 Copying the excited state density for this state as the 1-particle RhoCI density.

 Excited state symmetry could not be determined.
 Excited State   2:      Triplet-?Sym    3.6185 eV  342.64 nm  f=0.0000  <S**2>=2.000
     112 ->121        -0.12039
     113 ->121        -0.29411
     113 ->122         0.22820
     114 ->121        -0.43891
     114 ->122        -0.29472
     118 ->121        -0.16731

 Excited state symmetry could not be determined.
 Excited State   3:      Singlet-?Sym    4.2961 eV  288.60 nm  f=0.0278  <S**2>=0.000
     115 ->120        -0.13974
     116 ->120         0.47287
     118 ->120         0.42094
     119 ->120        -0.27042

 Excited state symmetry could not be determined.
 Excited State   4:      Singlet-?Sym    4.3797 eV  283.09 nm  f=0.0015  <S**2>=0.000
     115 ->120         0.22424
     116 ->120        -0.38474
     117 ->120         0.12597
     118 ->120         0.52895

 Alpha  occ. eigenvalues --  -89.11941 -24.72246 -19.15370 -19.15184 -14.41453
 Alpha  occ. eigenvalues --  -14.38282 -14.34701 -14.32265 -10.29071 -10.26327
 Alpha  occ. eigenvalues --  -10.24361 -10.23953 -10.23166 -10.22664 -10.22511
 Alpha  occ. eigenvalues --  -10.22224 -10.22092 -10.21831 -10.21560 -10.21419
 Alpha  occ. eigenvalues --  -10.20819 -10.20737 -10.20380 -10.20287 -10.19532
 Alpha  occ. eigenvalues --  -10.19475 -10.18776 -10.18415 -10.18389 -10.18329
 Alpha  occ. eigenvalues --  -10.18243 -10.17979  -8.14520  -6.11021  -6.10926
 Alpha  occ. eigenvalues --   -6.10813  -1.23248  -1.11833  -1.05240  -1.01058
 Alpha  occ. eigenvalues --   -0.94211  -0.93837  -0.89022  -0.87679  -0.83637
 Alpha  occ. eigenvalues --   -0.82797  -0.80307  -0.78008  -0.77221  -0.77195
 Alpha  occ. eigenvalues --   -0.76802  -0.74698  -0.70743  -0.70458  -0.69915
 Alpha  occ. eigenvalues --   -0.69377  -0.68722  -0.63923  -0.63431  -0.63190
 Alpha  occ. eigenvalues --   -0.61829  -0.61013  -0.58736  -0.58402  -0.57577
 Alpha  occ. eigenvalues --   -0.55346  -0.54605  -0.52593  -0.51833  -0.50959
 Alpha  occ. eigenvalues --   -0.50680  -0.50501  -0.49409  -0.48330  -0.47800
 Alpha  occ. eigenvalues --   -0.46922  -0.46217  -0.46071  -0.45131  -0.45032
 Alpha  occ. eigenvalues --   -0.44738  -0.43965  -0.43572  -0.43375  -0.43142
 Alpha  occ. eigenvalues --   -0.42987  -0.41435  -0.40820  -0.40674  -0.40199
 Alpha  occ. eigenvalues --   -0.39781  -0.39369  -0.39189  -0.39003  -0.38647
 Alpha  occ. eigenvalues --   -0.38293  -0.38032  -0.37798  -0.37401  -0.37019
 Alpha  occ. eigenvalues --   -0.35722  -0.35303  -0.34545  -0.34481  -0.33694
 Alpha  occ. eigenvalues --   -0.33434  -0.33088  -0.32217  -0.31670  -0.30843
 Alpha  occ. eigenvalues --   -0.30320  -0.28412  -0.27570  -0.26122  -0.25657
 Alpha  occ. eigenvalues --   -0.25002  -0.24883  -0.23689  -0.23027
 Alpha virt. eigenvalues --   -0.05365  -0.04645  -0.02166  -0.01988  -0.00396
 Alpha virt. eigenvalues --    0.02092   0.04640   0.06430   0.07475   0.07924
 Alpha virt. eigenvalues --    0.08486   0.09086   0.09777   0.10556   0.11394

 Mulliken charges:
               1
     1  C   -0.523860
     2  C    0.323399
     3  C   -0.179314
     4  C   -0.105322
     5  C    0.156418
     6  C    0.207122
     7  N   -0.406181
     8  N   -0.340036
     9  C    0.326636
    10  C   -0.525760
    11  C   -0.281999
    12  C    0.516714
    13  N   -0.805948
    14  S    1.222470
    15  O   -0.540998
    16  O   -0.520853
    17  C   -0.146148
    18  C   -0.129107
    19  C   -0.200348
    20  C    0.114338
    21  C    0.023266
    22  C   -0.452892
    23  C   -0.452671
    24  C   -0.461016
    25  C    0.325574
    26  F   -0.288714
    27  C   -0.205975
    28  C   -0.165989
    29  C   -0.152153
    30  C   -0.124599
    31  C    0.219164
    32  N   -0.558205
    33  H    0.165122
    34  H    0.178039
    35  H    0.162674
    36  H    0.136705
    37  H    0.169625
    38  H    0.161808
    39  H    0.161334
    40  H    0.176246
    41  H    0.140549
    42  H    0.363905
    43  H    0.176322
    44  H    0.150465
    45  H    0.144560
    46  H    0.145235
    47  H    0.163792
    48  H    0.164654
    49  H    0.144019
    50  H    0.147979
    51  H    0.147905
    52  H    0.150236
    53  H    0.149540
    54  H    0.194265
    55  H    0.147786
    56  H    0.141839
    57  H    0.148382
 Sum of Mulliken charges =  -0.00000

 Dipole moment (field-independent basis, Debye):
    X=             -4.1179    Y=              0.8005    Z=             -1.7483  Tot=              4.5447
 Quadrupole moment (field-independent basis, Debye-Ang):
   XX=           -177.8342   YY=           -187.9933   ZZ=           -192.3425
   XY=              3.4154   XZ=              4.0325   YZ=             10.7970

 Normal termination of Gaussian 16 at Sat Nov  5 09:53:31 2022.
