 Gaussian 16, Revision B.01,
 Gaussian 16:  ES64L-G16RevB.01 20-Dec-2017

 -----------------------------
 #p b3lyp/6-31g(d) opt SCF=XQC
 -----------------------------

 ------------------------------
 Gaussian input prepared by ASE
 ------------------------------
 Symbolic Z-matrix:
 Charge =  0 Multiplicity = 1

 SCF Done:  E(RB3LYP) =  -1797.00755576     A.U. after   15 cycles
 SCF Done:  E(RB3LYP) =  -1797.02291227     A.U. after   15 cycles
 SCF Done:  E(RB3LYP) =  -1797.02603525     A.U. after   12 cycles
 SCF Done:  E(RB3LYP) =  -1797.02785850     A.U. after   13 cycles
 SCF Done:  E(RB3LYP) =  -1797.02862745     A.U. after   13 cycles
 SCF Done:  E(RB3LYP) =  -1797.02887524     A.U. after   12 cycles
 SCF Done:  E(RB3LYP) =  -1797.02881229     A.U. after   11 cycles
 SCF Done:  E(RB3LYP) =  -1797.02896252     A.U. after   10 cycles
 SCF Done:  E(RB3LYP) =  -1797.02901097     A.U. after   10 cycles
 SCF Done:  E(RB3LYP) =  -1797.02903560     A.U. after   11 cycles
 SCF Done:  E(RB3LYP) =  -1797.02990453     A.U. after   13 cycles
 SCF Done:  E(RB3LYP) =  -1797.02993065     A.U. after   10 cycles
 SCF Done:  E(RB3LYP) =  -1797.02985773     A.U. after   11 cycles
 SCF Done:  E(RB3LYP) =  -1797.02994088     A.U. after   10 cycles
 SCF Done:  E(RB3LYP) =  -1797.02991545     A.U. after   10 cycles
 SCF Done:  E(RB3LYP) =  -1797.02994236     A.U. after   10 cycles
 SCF Done:  E(RB3LYP) =  -1797.02993995     A.U. after    9 cycles
 SCF Done:  E(RB3LYP) =  -1797.02994315     A.U. after    9 cycles
 SCF Done:  E(RB3LYP) =  -1797.02994322     A.U. after    6 cycles
 SCF Done:  E(RB3LYP) =  -1797.02994323     A.U. after    6 cycles
 Optimization completed.
    -- Stationary point found.

                         Standard orientation:
 ---------------------------------------------------------------------
 Center     Atomic      Atomic             Coordinates (Angstroms)
 Number     Number       Type             X           Y           Z
 ---------------------------------------------------------------------
      1          6           0       -6.536533   -1.557121   -2.905015
      2          6           0       -5.603125   -0.961146   -1.881224
      3          6           0       -4.474400   -0.199003   -2.304550
      4          6           0       -3.631100    0.349370   -1.373464
      5          6           0       -3.902429    0.143059    0.004246
      6          6           0       -3.101672    0.658228    1.062582
      7          7           0       -1.955435    1.452332    0.759981
      8          7           0       -2.088047    2.698524    0.227589
      9          6           0       -0.845586    3.173525    0.121577
     10          6           0       -0.608883    4.541912   -0.442026
     11          6           0        0.104142    2.245040    0.611813
     12          6           0       -0.637769    1.152485    1.013468
     13          7           0       -0.204002   -0.083943    1.521242
     14         16           0        0.301057   -1.299871    0.399444
     15          8           0        0.116616   -2.548722    1.142709
     16          8           0       -0.318398   -1.073392   -0.908307
     17          6           0        2.055145   -0.979526    0.230132
     18          6           0        2.937840   -1.421111    1.212552
     19          6           0        4.300857   -1.171538    1.057490
     20          6           0        4.826311   -0.490901   -0.053816
     21          6           0        6.329899   -0.214441   -0.230497
     22          6           0        6.571226    1.313357   -0.311770
     23          6           0        6.835719   -0.898497   -1.524802
     24          6           0        7.154500   -0.762960    0.949904
     25          6           0        3.882392   -0.079011   -1.008491
     26          9           0        4.292984    0.579906   -2.120852
     27          6           0        2.517915   -0.306215   -0.898029
     28          6           0       -3.411365    0.388962    2.380893
     29          6           0       -4.531588   -0.412726    2.700404
     30          6           0       -5.334864   -0.915198    1.702251
     31          6           0       -5.044443   -0.648675    0.338210
     32          7           0       -5.874641   -1.179087   -0.607599
     33          1           0       -6.001094   -2.243295   -3.573234
     34          1           0       -7.336202   -2.105096   -2.402795
     35          1           0       -6.981640   -0.776496   -3.534831
     36          1           0       -4.289951   -0.061907   -3.366372
     37          1           0       -2.768073    0.934475   -1.668835
     38          1           0       -0.100620    5.190969    0.281077
     39          1           0        0.017324    4.501867   -1.341522
     40          1           0       -1.564008    5.002907   -0.706912
     41          1           0        1.177519    2.349524    0.673596
     42          1           0       -0.849087   -0.538781    2.166163
     43          1           0        2.568368   -1.962164    2.076601
     44          1           0        4.974127   -1.525107    1.828856
     45          1           0        7.642040    1.514016   -0.434521
     46          1           0        6.239045    1.810140    0.607168
     47          1           0        6.043213    1.763154   -1.155072
     48          1           0        6.317726   -0.524935   -2.410443
     49          1           0        7.907809   -0.706896   -1.651107
     50          1           0        6.691150   -1.983759   -1.474167
     51          1           0        6.869539   -0.301079    1.902120
     52          1           0        8.213877   -0.541370    0.781956
     53          1           0        7.058755   -1.850101    1.049934
     54          1           0        1.843826    0.023360   -1.679733
     55          1           0       -2.806014    0.824494    3.171213
     56          1           0       -4.759784   -0.615028    3.742756
     57          1           0       -6.205610   -1.525176    1.919934
 ---------------------------------------------------------------------

 The electronic state is 1-A.
 Alpha  occ. eigenvalues --  -89.11941 -24.72246 -19.15370 -19.15184 -14.41453
 Alpha  occ. eigenvalues --  -14.38282 -14.34701 -14.32265 -10.29071 -10.26327
 Alpha  occ. eigenvalues --  -10.24361 -10.23954 -10.23166 -10.22664 -10.22510
 Alpha  occ. eigenvalues --  -10.22224 -10.22092 -10.21832 -10.21560 -10.21419
 Alpha  occ. eigenvalues --  -10.20818 -10.20737 -10.20380 -10.20287 -10.19532
 Alpha  occ. eigenvalues --  -10.19475 -10.18776 -10.18415 -10.18389 -10.18329
 Alpha  occ. eigenvalues --  -10.18243 -10.17979  -8.14520  -6.11021  -6.10926
 Alpha  occ. eigenvalues --   -6.10813  -1.23248  -1.11833  -1.05240  -1.01058
 Alpha  occ. eigenvalues --   -0.94211  -0.93837  -0.89022  -0.87679  -0.83637
 Alpha  occ. eigenvalues --   -0.82797  -0.80307  -0.78008  -0.77221  -0.77195
 Alpha  occ. eigenvalues --   -0.76802  -0.74698  -0.70743  -0.70458  -0.69915
 Alpha  occ. eigenvalues --   -0.69377  -0.68722  -0.63923  -0.63431  -0.63190
 Alpha  occ. eigenvalues --   -0.61829  -0.61013  -0.58736  -0.58402  -0.57577
 Alpha  occ. eigenvalues --   -0.55346  -0.54605  -0.52592  -0.51833  -0.50959
 Alpha  occ. eigenvalues --   -0.50680  -0.50501  -0.49409  -0.48330  -0.47800
 Alpha  occ. eigenvalues --   -0.46922  -0.46217  -0.46071  -0.45131  -0.45032
 Alpha  occ. eigenvalues --   -0.44738  -0.43965  -0.43572  -0.43375  -0.43142
 Alpha  occ. eigenvalues --   -0.42986  -0.41435  -0.40820  -0.40674  -0.40199
 Alpha  occ. eigenvalues --   -0.39781  -0.39369  -0.39189  -0.39003  -0.38647
 Alpha  occ. eigenvalues --   -0.38293  -0.38032  -0.37798  -0.37401  -0.37019
 Alpha  occ. eigenvalues --   -0.35722  -0.35303  -0.34545  -0.34481  -0.33694
 Alpha  occ. eigenvalues --   -0.33434  -0.33087  -0.32217  -0.31670  -0.30843
 Alpha  occ. eigenvalues --   -0.30320  -0.28412  -0.27570  -0.26122  -0.25657
 Alpha  occ. eigenvalues --   -0.25002  -0.24883  -0.23689  -0.23027
 Alpha virt. eigenvalues --   -0.05365  -0.04645  -0.02166  -0.01988  -0.00396
 Alpha virt. eigenvalues --    0.02092   0.04640   0.06430   0.07475   0.07924
 Alpha virt. eigenvalues --    0.08486   0.09086   0.09778   0.10556   0.11394

 Mulliken charges:
               1
     1  C   -0.523851
     2  C    0.323385
     3  C   -0.179311
     4  C   -0.105345
     5  C    0.156424
     6  C    0.207155
     7  N   -0.406206
     8  N   -0.340043
     9  C    0.326640
    10  C   -0.525763
    11  C   -0.282022
    12  C    0.516758
    13  N   -0.805954
    14  S    1.222432
    15  O   -0.541005
    16  O   -0.520848
    17  C   -0.146126
    18  C   -0.129113
    19  C   -0.200355
    20  C    0.114344
    21  C    0.023244
    22  C   -0.452881
    23  C   -0.452674
    24  C   -0.461006
    25  C    0.325588
    26  F   -0.288719
    27  C   -0.205956
    28  C   -0.166007
    29  C   -0.152123
    30  C   -0.124614
    31  C    0.219166
    32  N   -0.558203
    33  H    0.165120
    34  H    0.178038
    35  H    0.162673
    36  H    0.136706
    37  H    0.169638
    38  H    0.161809
    39  H    0.161334
    40  H    0.176247
    41  H    0.140552
    42  H    0.363903
    43  H    0.176321
    44  H    0.150468
    45  H    0.144558
    46  H    0.145235
    47  H    0.163790
    48  H    0.164656
    49  H    0.144020
    50  H    0.147978
    51  H    0.147902
    52  H    0.150234
    53  H    0.149539
    54  H    0.194267
    55  H    0.147784
    56  H    0.141835
    57  H    0.148383
 Sum of Mulliken charges =  -0.00000

 Dipole moment (field-independent basis, Debye):
    X=              4.1408    Y=              1.5131    Z=              1.1040  Tot=              4.5448
 Quadrupole moment (field-independent basis, Debye-Ang):
   XX=           -175.6170   YY=           -200.4444   ZZ=           -178.0786
   XY=              0.5722   XZ=              5.5174   YZ=             -1.7531

 Normal termination of Gaussian 16 at Fri Nov  4 23:15:02 2022.
