 Gaussian 16, Revision B.01,
 Gaussian 16:  ES64L-G16RevB.01 20-Dec-2017

 -----------------------------
 #p b3lyp/6-31g(d) opt SCF=XQC
 -----------------------------

 ------------------------------
 Gaussian input prepared by ASE
 ------------------------------
 Symbolic Z-matrix:
 Charge =  0 Multiplicity = 1

 SCF Done:  E(RB3LYP) =  -2160.13164249     A.U. after   14 cycles
 SCF Done:  E(RB3LYP) =  -2160.14307431     A.U. after   12 cycles
 SCF Done:  E(RB3LYP) =  -2160.14333868     A.U. after   11 cycles
 SCF Done:  E(RB3LYP) =  -2160.14339756     A.U. after   10 cycles
 SCF Done:  E(RB3LYP) =  -2160.14342921     A.U. after   10 cycles
 SCF Done:  E(RB3LYP) =  -2160.14345676     A.U. after   10 cycles
 SCF Done:  E(RB3LYP) =  -2160.14351964     A.U. after   10 cycles
 SCF Done:  E(RB3LYP) =  -2160.14357472     A.U. after   10 cycles
 SCF Done:  E(RB3LYP) =  -2160.14359151     A.U. after   10 cycles
 SCF Done:  E(RB3LYP) =  -2160.14359428     A.U. after    9 cycles
 SCF Done:  E(RB3LYP) =  -2160.14359509     A.U. after    9 cycles
 SCF Done:  E(RB3LYP) =  -2160.14359547     A.U. after    9 cycles
 SCF Done:  E(RB3LYP) =  -2160.14359576     A.U. after    9 cycles
 SCF Done:  E(RB3LYP) =  -2160.14359578     A.U. after    6 cycles
 Optimization completed.
    -- Stationary point found.

                         Standard orientation:
 ---------------------------------------------------------------------
 Center     Atomic      Atomic             Coordinates (Angstroms)
 Number     Number       Type             X           Y           Z
 ---------------------------------------------------------------------
      1          6           0        6.084787    6.074048   -3.239819
      2          8           0        5.692298    5.838607   -1.898365
      3          6           0        5.013272    4.685882   -1.616039
      4          6           0        4.673418    3.713082   -2.557554
      5          6           0        3.974059    2.562005   -2.166972
      6          6           0        3.621537    1.526164   -3.212686
      7          6           0        3.611431    2.384689   -0.819454
      8          6           0        2.863521    1.157122   -0.393225
      9          6           0        1.463414    1.141060   -0.388308
     10          6           0        0.743311   -0.000033    0.000007
     11          6           0       -0.743490    0.000002    0.000009
     12          6           0       -1.463597   -1.141166   -0.388073
     13          6           0       -2.863706   -1.157227   -0.392988
     14          6           0       -3.611613   -2.384879   -0.818977
     15          6           0       -3.972211   -2.563543   -2.166863
     16          6           0       -3.617580   -1.529034   -3.213182
     17          6           0       -4.671607   -3.714672   -2.557221
     18          6           0       -5.013490   -4.686199   -1.615124
     19          8           0       -5.692684   -5.838885   -1.897203
     20          6           0       -6.083377   -6.075546   -3.238966
     21          6           0       -4.653801   -4.506522   -0.275174
     22          6           0       -3.958584   -3.370800    0.133704
     23          6           0       -3.587178   -3.210892    1.591461
     24          6           0       -3.550900    0.000065    0.000011
     25          6           0       -2.863650    1.157329    0.393008
     26          6           0       -3.611497    2.385019    0.818991
     27          6           0       -3.972562    2.563451    2.166782
     28          6           0       -3.618490    1.528656    3.213008
     29          6           0       -4.671864    3.714638    2.557142
     30          6           0       -5.013186    4.686453    1.615140
     31          8           0       -5.692286    5.839195    1.897218
     32          6           0       -6.083006    6.075864    3.238972
     33          6           0       -4.653042    4.507002    0.275282
     34          6           0       -3.957908    3.371230   -0.133595
     35          6           0       -3.585884    3.211630   -1.591228
     36          6           0       -1.463545    1.141205    0.388090
     37          6           0        1.463365   -1.141158    0.388315
     38          6           0        2.863472   -1.157282    0.393227
     39          6           0        3.611334   -2.384881    0.819448
     40          6           0        3.974407   -2.561975    2.166876
     41          6           0        3.622459   -1.525843    3.212495
     42          6           0        4.673726   -3.713080    2.557449
     43          6           0        5.013107   -4.686122    1.616014
     44          8           0        5.692070   -5.838885    1.898335
     45          6           0        6.084849   -6.074189    3.239728
     46          6           0        4.650974   -4.507998    0.276514
     47          6           0        3.955760   -3.372346   -0.132561
     48          6           0        3.581586   -3.214190   -1.589801
     49          6           0        3.550717   -0.000095    0.000001
     50          6           0        3.956340    3.371908    0.132637
     51          6           0        3.582687    3.213490    1.589982
     52          6           0        4.651579    4.507540   -0.276450
     53          1           0        6.603893    7.034554   -3.236262
     54          1           0        6.767616    5.295210   -3.605239
     55          1           0        5.217805    6.134002   -3.911474
     56          1           0        4.943088    3.831210   -3.601241
     57          1           0        3.960320    1.838751   -4.205282
     58          1           0        2.540139    1.354319   -3.262340
     59          1           0        4.081377    0.555904   -2.989948
     60          1           0        0.927012    2.027279   -0.716523
     61          1           0       -0.927200   -2.027472   -0.716062
     62          1           0       -2.535984   -1.358145   -3.261780
     63          1           0       -4.076842   -0.558167   -2.991896
     64          1           0       -3.955490   -1.842299   -4.205862
     65          1           0       -4.939712   -3.833845   -3.601192
     66          1           0       -6.765157   -5.296660   -3.606237
     67          1           0       -5.215459   -6.136814   -3.909292
     68          1           0       -6.603122   -7.035706   -3.235107
     69          1           0       -4.929891   -5.275793    0.440050
     70          1           0       -4.032400   -2.306698    2.023571
     71          1           0       -2.502923   -3.117963    1.723763
     72          1           0       -3.927935   -4.069170    2.178227
     73          1           0       -4.638201    0.000096    0.000003
     74          1           0       -2.536920    1.357720    3.262082
     75          1           0       -3.956862    1.841683    4.205605
     76          1           0       -4.077672    0.557860    2.991256
     77          1           0       -4.940358    3.833615    3.601036
     78          1           0       -6.602315    7.036260    3.235182
     79          1           0       -5.215126    6.136647    3.909390
     80          1           0       -6.765182    5.297246    3.606079
     81          1           0       -4.928725    5.276483   -0.439873
     82          1           0       -4.029772    2.306807   -2.023368
     83          1           0       -2.501456    3.120116   -1.723189
     84          1           0       -3.927547    4.069417   -2.178184
     85          1           0       -0.927106    2.027482    0.716087
     86          1           0        0.926925   -2.027351    0.716539
     87          1           0        3.960766   -1.838686    4.205173
     88          1           0        4.083152   -0.555957    2.989863
     89          1           0        2.541195   -1.353116    3.261882
     90          1           0        4.943738   -3.831039    3.601066
     91          1           0        6.603733   -7.034815    3.236201
     92          1           0        6.767953   -5.295447    3.604842
     93          1           0        5.218025   -6.133827    3.911614
     94          1           0        4.925195   -5.278404   -0.438207
     95          1           0        2.496903   -3.123611   -1.720340
     96          1           0        3.923054   -4.072202   -2.176542
     97          1           0        4.024173   -2.309372   -2.023268
     98          1           0        4.638017   -0.000121   -0.000009
     99          1           0        3.923935    4.071625    2.176670
    100          1           0        4.025856    2.308861    2.023261
    101          1           0        2.498093    3.122369    1.720854
    102          1           0        4.926159    5.277762    0.438331
 ---------------------------------------------------------------------

 The electronic state is 1-A.
 Alpha  occ. eigenvalues --  -19.17161 -19.17161 -19.17161 -19.17161 -10.23798
 Alpha  occ. eigenvalues --  -10.23798 -10.23798 -10.23798 -10.23693 -10.23693
 Alpha  occ. eigenvalues --  -10.23693 -10.23693 -10.19666 -10.19638 -10.19285
 Alpha  occ. eigenvalues --  -10.19285 -10.19284 -10.19284 -10.19269 -10.19269
 Alpha  occ. eigenvalues --  -10.19269 -10.19268 -10.19132 -10.19132 -10.19132
 Alpha  occ. eigenvalues --  -10.19132 -10.18414 -10.18414 -10.18413 -10.18413
 Alpha  occ. eigenvalues --  -10.18322 -10.18322 -10.17972 -10.17972 -10.17972
 Alpha  occ. eigenvalues --  -10.17972 -10.17616 -10.17616 -10.17616 -10.17616
 Alpha  occ. eigenvalues --  -10.17609 -10.17609 -10.17609 -10.17609 -10.17466
 Alpha  occ. eigenvalues --  -10.17466 -10.17466 -10.17465 -10.17156 -10.17156
 Alpha  occ. eigenvalues --  -10.17156 -10.17156  -1.05708  -1.05708  -1.05708
 Alpha  occ. eigenvalues --   -1.05708  -0.87251  -0.86396  -0.85278  -0.85272
 Alpha  occ. eigenvalues --   -0.84405  -0.83201  -0.78358  -0.77862  -0.77746
 Alpha  occ. eigenvalues --   -0.77415  -0.77398  -0.77382  -0.77364  -0.75743
 Alpha  occ. eigenvalues --   -0.74701  -0.73559  -0.73201  -0.71754  -0.70044
 Alpha  occ. eigenvalues --   -0.70005  -0.70002  -0.69971  -0.68089  -0.68027
 Alpha  occ. eigenvalues --   -0.67979  -0.67602  -0.66977  -0.66927  -0.66912
 Alpha  occ. eigenvalues --   -0.66703  -0.62052  -0.61198  -0.59686  -0.59140
 Alpha  occ. eigenvalues --   -0.57997  -0.56960  -0.56950  -0.56914  -0.56901
 Alpha  occ. eigenvalues --   -0.55700  -0.55102  -0.55069  -0.51771  -0.51184
 Alpha  occ. eigenvalues --   -0.51128  -0.51113  -0.50945  -0.49117  -0.48854
 Alpha  occ. eigenvalues --   -0.48839  -0.48706  -0.48652  -0.47726  -0.46957
 Alpha  occ. eigenvalues --   -0.46425  -0.46335  -0.46319  -0.46307  -0.46280
 Alpha  occ. eigenvalues --   -0.45492  -0.45408  -0.44164  -0.42835  -0.42816
 Alpha  occ. eigenvalues --   -0.42741  -0.42696  -0.42429  -0.41404  -0.41336
 Alpha  occ. eigenvalues --   -0.41076  -0.41043  -0.40974  -0.40920  -0.40886
 Alpha  occ. eigenvalues --   -0.40726  -0.40595  -0.40550  -0.40337  -0.40335
 Alpha  occ. eigenvalues --   -0.39723  -0.39696  -0.39666  -0.39665  -0.39570
 Alpha  occ. eigenvalues --   -0.39564  -0.39545  -0.39264  -0.37969  -0.37671
 Alpha  occ. eigenvalues --   -0.37371  -0.37235  -0.36856  -0.36635  -0.36476
 Alpha  occ. eigenvalues --   -0.36241  -0.36199  -0.35871  -0.35860  -0.35830
 Alpha  occ. eigenvalues --   -0.35820  -0.35259  -0.34878  -0.34557  -0.34312
 Alpha  occ. eigenvalues --   -0.34175  -0.33852  -0.32729  -0.32456  -0.32051
 Alpha  occ. eigenvalues --   -0.31820  -0.31801  -0.31506  -0.31375  -0.29967
 Alpha  occ. eigenvalues --   -0.29740  -0.29657  -0.29645  -0.26592  -0.24096
 Alpha  occ. eigenvalues --   -0.24019  -0.23186  -0.23169  -0.23103  -0.23101
 Alpha  occ. eigenvalues --   -0.22023  -0.20982  -0.20890  -0.20559  -0.20536
 Alpha virt. eigenvalues --   -0.02697  -0.00401   0.00033   0.01024   0.01038
 Alpha virt. eigenvalues --    0.01060   0.01078   0.01359   0.01379   0.01752
 Alpha virt. eigenvalues --    0.01940   0.02859   0.08484   0.09217   0.09716

 Mulliken charges:
               1
     1  C   -0.211646
     2  O   -0.513211
     3  C    0.404183
     4  C   -0.277663
     5  C    0.165474
     6  C   -0.533051
     7  C   -0.075326
     8  C    0.051560
     9  C   -0.218888
    10  C    0.097786
    11  C    0.097799
    12  C   -0.218892
    13  C    0.051562
    14  C   -0.075330
    15  C    0.165473
    16  C   -0.533042
    17  C   -0.277665
    18  C    0.404183
    19  O   -0.513211
    20  C   -0.211646
    21  C   -0.255434
    22  C    0.172157
    23  C   -0.532853
    24  C   -0.204352
    25  C    0.051564
    26  C   -0.075331
    27  C    0.165472
    28  C   -0.533044
    29  C   -0.277665
    30  C    0.404183
    31  O   -0.513211
    32  C   -0.211646
    33  C   -0.255435
    34  C    0.172159
    35  C   -0.532849
    36  C   -0.218889
    37  C   -0.218889
    38  C    0.051558
    39  C   -0.075324
    40  C    0.165472
    41  C   -0.533053
    42  C   -0.277662
    43  C    0.404183
    44  O   -0.513211
    45  C   -0.211646
    46  C   -0.255436
    47  C    0.172156
    48  C   -0.532843
    49  C   -0.204352
    50  C    0.172155
    51  C   -0.532845
    52  C   -0.255436
    53  H    0.167239
    54  H    0.150241
    55  H    0.150286
    56  H    0.121460
    57  H    0.147844
    58  H    0.166386
    59  H    0.165558
    60  H    0.134487
    61  H    0.134480
    62  H    0.166384
    63  H    0.165553
    64  H    0.147842
    65  H    0.121460
    66  H    0.150242
    67  H    0.150284
    68  H    0.167239
    69  H    0.127667
    70  H    0.163703
    71  H    0.163464
    72  H    0.152670
    73  H    0.133969
    74  H    0.166383
    75  H    0.147842
    76  H    0.165555
    77  H    0.121460
    78  H    0.167239
    79  H    0.150286
    80  H    0.150240
    81  H    0.127667
    82  H    0.163702
    83  H    0.163461
    84  H    0.152669
    85  H    0.134479
    86  H    0.134490
    87  H    0.147845
    88  H    0.165556
    89  H    0.166390
    90  H    0.121460
    91  H    0.167239
    92  H    0.150241
    93  H    0.150287
    94  H    0.127667
    95  H    0.163455
    96  H    0.152668
    97  H    0.163699
    98  H    0.133967
    99  H    0.152668
   100  H    0.163699
   101  H    0.163456
   102  H    0.127667
 Sum of Mulliken charges =  -0.00000

 Dipole moment (field-independent basis, Debye):
    X=              0.0037    Y=              0.0002    Z=             -0.0000  Tot=              0.0037
 Quadrupole moment (field-independent basis, Debye-Ang):
   XX=           -292.5598   YY=           -297.3654   ZZ=           -265.4640
   XY=              0.0008   XZ=              0.0007   YZ=              0.0224

 1\1\GINC-NODE04\FOpt\RB3LYP\6-31G(d)\C48H50O4\WYKGROUP\04-Nov-2022\0\\
 #p b3lyp/6-31g(d) opt SCF=XQC\\Gaussian input prepared by ASE\\0,1\C,-
 6.3348404121,-3.4049608784,5.7175340556\O,-6.0023392816,-2.0505474234,
 5.4645821401\C,-5.2548377231,-1.7643109928,4.356038388\C,-4.7892151594
 ,-2.7136987795,3.4449127987\C,-4.027739377,-2.3181926226,2.3356944787\
 C,-3.5388066762,-3.3727474056,1.3663569399\C,-3.729724036,-0.957697480
 4,2.1382475867\C,-2.9161279031,-0.5261164886,0.9551329858\C,-1.5213854
 555,-0.4387906846,1.0425953692\C,-0.7398875336,-0.0440098139,-0.055056

 Normal termination of Gaussian 16 at Fri Nov  4 23:18:21 2022.
