 Gaussian 16, Revision B.01,
 Gaussian 16:  ES64L-G16RevB.01 20-Dec-2017

 -------------------------------------------------------------------
 #p b3lyp/6-31g(d) 6D 10F nosymm GFInput td=(50-50,nstate=2) SCF=XQC
 -------------------------------------------------------------------

 ------------------------------
 Gaussian input prepared by ASE
 ------------------------------
 Symbolic Z-matrix:
 Charge =  0 Multiplicity = 1

                          Input orientation:
 ---------------------------------------------------------------------
 Center     Atomic      Atomic             Coordinates (Angstroms)
 Number     Number       Type             X           Y           Z
 ---------------------------------------------------------------------
      1          6           0       -6.334840   -3.404961    5.717534
      2          8           0       -6.002339   -2.050547    5.464582
      3          6           0       -5.254838   -1.764311    4.356038
      4          6           0       -4.789215   -2.713699    3.444913
      5          6           0       -4.027739   -2.318193    2.335694
      6          6           0       -3.538807   -3.372747    1.366357
      7          6           0       -3.729724   -0.957697    2.138248
      8          6           0       -2.916128   -0.526116    0.955133
      9          6           0       -1.521385   -0.438791    1.042595
     10          6           0       -0.739888   -0.044010   -0.055056
     11          6           0        0.740214    0.044044    0.055040
     12          6           0        1.565768   -0.335838   -1.015276
     13          6           0        2.961070   -0.258322   -0.927465
     14          6           0        3.823017   -0.677056   -2.080579
     15          6           0        4.272029   -2.006103   -2.184361
     16          6           0        3.899782   -3.039073   -1.142650
     17          6           0        5.077850   -2.389792   -3.266058
     18          6           0        5.438535   -1.459618   -4.242264
     19          8           0        6.218221   -1.736514   -5.330830
     20          6           0        6.701249   -3.059464   -5.490403
     21          6           0        4.990802   -0.138404   -4.137124
     22          6           0        4.189260    0.263534   -3.071127
     23          6           0        3.724681    1.700986   -2.990716
     24          6           0        3.534976    0.210309    0.262923
     25          6           0        2.740631    0.597539    1.351540
     26          6           0        3.367699    1.104851    2.615415
     27          6           0        3.637123    2.476534    2.772391
     28          6           0        3.303885    3.467430    1.677936
     29          6           0        4.223696    2.943060    3.957685
     30          6           0        4.543111    2.053450    4.984750
     31          8           0        5.115598    2.410787    6.173921
     32          6           0        5.410463    3.780005    6.391347
     33          6           0        4.274231    0.689705    4.826546
     34          6           0        3.691687    0.205427    3.657577
     35          6           0        3.416154   -1.275919    3.522436
     36          6           0        1.348335    0.509216    1.232000
     37          6           0       -1.392058    0.265475   -1.259349
     38          6           0       -2.784914    0.186960   -1.379236
     39          6           0       -3.460350    0.529951   -2.673108
     40          6           0       -3.884779    1.847385   -2.924052
     41          6           0       -3.672432    2.943574   -1.902272
     42          6           0       -4.515679    2.160049   -4.136836
     43          6           0       -4.726219    1.170508   -5.098486
     44          8           0       -5.330587    1.376316   -6.307593
     45          6           0       -5.779824    2.684168   -6.618537
     46          6           0       -4.303253   -0.139040   -4.846865
     47          6           0       -3.674217   -0.470886   -3.649133
     48          6           0       -3.231069   -1.897815   -3.412365
     49          6           0       -3.534645   -0.210277   -0.262938
     50          6           0       -4.202073    0.002389    3.062995
     51          6           0       -3.900748    1.473703    2.881321
     52          6           0       -4.957225   -0.411815    4.157779
     53          1           0       -6.924762   -3.402431    6.636252
     54          1           0       -6.934710   -3.834105    4.903673
     55          1           0       -5.438213   -4.021915    5.865177
     56          1           0       -5.007433   -3.767367    3.579527
     57          1           0       -3.843494   -4.373515    1.687855
     58          1           0       -2.446410   -3.363566    1.276895
     59          1           0       -3.935519   -3.207765    0.357462
     60          1           0       -1.036088   -0.707081    1.977124
     61          1           0        1.117710   -0.722288   -1.926724
     62          1           0        2.812835   -3.146328   -1.050687
     63          1           0        4.270683   -2.761039   -0.148869
     64          1           0        4.316279   -4.019217   -1.394800
     65          1           0        5.413025   -3.419240   -3.328126
     66          1           0        7.341637   -3.361435   -4.650705
     67          1           0        5.879922   -3.781588   -5.592048
     68          1           0        7.291359   -3.054546   -6.408990
     69          1           0        5.283500    0.567766   -4.908616
     70          1           0        4.074709    2.186477   -2.071865
     71          1           0        2.630745    1.771656   -2.983034
     72          1           0        4.095802    2.280060   -3.841593
     73          1           0        4.617378    0.274693    0.343442
     74          1           0        2.237385    3.447052    1.425779
     75          1           0        3.560647    4.487535    1.979914
     76          1           0        3.847312    3.243326    0.752231
     77          1           0        4.422722    4.004203    4.059284
     78          1           0        5.854706    3.836698    7.387084
     79          1           0        4.503842    4.399409    6.364011
     80          1           0        6.127878    4.162597    5.652890
     81          1           0        4.530802    0.016286    5.639090
     82          1           0        3.951281   -1.708805    2.668777
     83          1           0        2.351047   -1.474639    3.355614
     84          1           0        3.724427   -1.814784    4.423347
     85          1           0        0.728390    0.832138    2.064002
     86          1           0       -0.809348    0.597311   -2.114434
     87          1           0       -4.041770    3.904317   -2.274150
     88          1           0       -4.192083    2.724169   -0.961896
     89          1           0       -2.611958    3.062230   -1.651829
     90          1           0       -4.834721    3.181693   -4.311229
     91          1           0       -6.223211    2.620192   -7.614213
     92          1           0       -6.539712    3.032110   -5.905876
     93          1           0       -4.950492    3.404041   -6.637527
     94          1           0       -4.477179   -0.892244   -5.609742
     95          1           0       -2.150745   -1.961023   -3.237188
     96          1           0       -3.472545   -2.530019   -4.272049
     97          1           0       -3.715793   -2.328525   -2.528055
     98          1           0       -4.617046   -0.274680   -0.343453
     99          1           0       -4.338920    2.065426    3.690591
    100          1           0       -4.297795    1.851775    1.931637
    101          1           0       -2.821543    1.665694    2.866174
    102          1           0       -5.329619    0.308943    4.879845
 ---------------------------------------------------------------------

 SCF Done:  E(RB3LYP) =  -2160.14360066     A.U. after   14 cycles

 Excitation energies and oscillator strengths:

 Excited state symmetry could not be determined.
 Excited State   1:      Triplet-?Sym    3.2514 eV  381.33 nm  f=0.0000  <S**2>=2.000
     174 ->197         0.16490
     175 ->188        -0.21808
     176 ->187         0.23009
     181 ->186         0.59709
 This state for optimization and/or second-order correction.
 Total Energy, E(TD-HF/TD-DFT) =  -2160.02411521
 Copying the excited state density for this state as the 1-particle RhoCI density.

 Excited state symmetry could not be determined.
 Excited State   2:      Triplet-?Sym    3.6339 eV  341.19 nm  f=0.0000  <S**2>=2.000
     177 ->189         0.19351
     178 ->191         0.19252
     179 ->190         0.10111
     179 ->193        -0.16529
     180 ->192        -0.10875
     180 ->194        -0.15901
     182 ->190         0.26452
     182 ->193         0.10765
     183 ->192        -0.25886
     183 ->194         0.12252
     184 ->189         0.10805
     184 ->195        -0.25637
     185 ->191         0.11200
     185 ->196        -0.26096

 Excited state symmetry could not be determined.
 Excited State   3:      Singlet-?Sym    4.3016 eV  288.23 nm  f=0.0000  <S**2>=0.000
     185 ->186         0.70187

 Excited state symmetry could not be determined.
 Excited State   4:      Singlet-?Sym    4.3113 eV  287.58 nm  f=0.0107  <S**2>=0.000
     184 ->186         0.70140

 Alpha  occ. eigenvalues --  -19.17161 -19.17161 -19.17161 -19.17161 -10.23798
 Alpha  occ. eigenvalues --  -10.23798 -10.23798 -10.23798 -10.23693 -10.23693
 Alpha  occ. eigenvalues --  -10.23693 -10.23693 -10.19666 -10.19638 -10.19285
 Alpha  occ. eigenvalues --  -10.19285 -10.19284 -10.19284 -10.19269 -10.19269
 Alpha  occ. eigenvalues --  -10.19268 -10.19268 -10.19132 -10.19132 -10.19132
 Alpha  occ. eigenvalues --  -10.19132 -10.18414 -10.18414 -10.18413 -10.18413
 Alpha  occ. eigenvalues --  -10.18322 -10.18322 -10.17972 -10.17972 -10.17972
 Alpha  occ. eigenvalues --  -10.17972 -10.17616 -10.17616 -10.17616 -10.17616
 Alpha  occ. eigenvalues --  -10.17609 -10.17609 -10.17609 -10.17609 -10.17466
 Alpha  occ. eigenvalues --  -10.17466 -10.17466 -10.17465 -10.17156 -10.17156
 Alpha  occ. eigenvalues --  -10.17156 -10.17156  -1.05708  -1.05708  -1.05708
 Alpha  occ. eigenvalues --   -1.05708  -0.87251  -0.86396  -0.85278  -0.85272
 Alpha  occ. eigenvalues --   -0.84405  -0.83201  -0.78358  -0.77862  -0.77746
 Alpha  occ. eigenvalues --   -0.77415  -0.77398  -0.77382  -0.77364  -0.75743
 Alpha  occ. eigenvalues --   -0.74701  -0.73559  -0.73201  -0.71754  -0.70044
 Alpha  occ. eigenvalues --   -0.70005  -0.70002  -0.69971  -0.68089  -0.68027
 Alpha  occ. eigenvalues --   -0.67979  -0.67602  -0.66977  -0.66927  -0.66912
 Alpha  occ. eigenvalues --   -0.66703  -0.62052  -0.61198  -0.59686  -0.59140
 Alpha  occ. eigenvalues --   -0.57997  -0.56960  -0.56950  -0.56914  -0.56901
 Alpha  occ. eigenvalues --   -0.55700  -0.55102  -0.55069  -0.51771  -0.51184
 Alpha  occ. eigenvalues --   -0.51128  -0.51113  -0.50945  -0.49117  -0.48854
 Alpha  occ. eigenvalues --   -0.48839  -0.48707  -0.48652  -0.47726  -0.46957
 Alpha  occ. eigenvalues --   -0.46425  -0.46335  -0.46319  -0.46307  -0.46280
 Alpha  occ. eigenvalues --   -0.45492  -0.45408  -0.44164  -0.42835  -0.42816
 Alpha  occ. eigenvalues --   -0.42741  -0.42696  -0.42429  -0.41404  -0.41336
 Alpha  occ. eigenvalues --   -0.41076  -0.41043  -0.40974  -0.40920  -0.40886
 Alpha  occ. eigenvalues --   -0.40726  -0.40595  -0.40550  -0.40337  -0.40335
 Alpha  occ. eigenvalues --   -0.39723  -0.39696  -0.39666  -0.39665  -0.39570
 Alpha  occ. eigenvalues --   -0.39564  -0.39545  -0.39264  -0.37969  -0.37671
 Alpha  occ. eigenvalues --   -0.37371  -0.37235  -0.36856  -0.36635  -0.36476
 Alpha  occ. eigenvalues --   -0.36241  -0.36199  -0.35871  -0.35860  -0.35830
 Alpha  occ. eigenvalues --   -0.35820  -0.35259  -0.34878  -0.34557  -0.34312
 Alpha  occ. eigenvalues --   -0.34175  -0.33852  -0.32729  -0.32456  -0.32051
 Alpha  occ. eigenvalues --   -0.31820  -0.31801  -0.31506  -0.31375  -0.29967
 Alpha  occ. eigenvalues --   -0.29740  -0.29657  -0.29645  -0.26592  -0.24096
 Alpha  occ. eigenvalues --   -0.24019  -0.23186  -0.23169  -0.23103  -0.23101
 Alpha  occ. eigenvalues --   -0.22023  -0.20982  -0.20890  -0.20559  -0.20535
 Alpha virt. eigenvalues --   -0.02697  -0.00401   0.00033   0.01024   0.01038
 Alpha virt. eigenvalues --    0.01060   0.01078   0.01359   0.01379   0.01752
 Alpha virt. eigenvalues --    0.01940   0.02859   0.08484   0.09217   0.09716

 Mulliken charges:
               1
     1  C   -0.211648
     2  O   -0.513208
     3  C    0.404175
     4  C   -0.277658
     5  C    0.165465
     6  C   -0.533048
     7  C   -0.075310
     8  C    0.051583
     9  C   -0.218900
    10  C    0.097777
    11  C    0.097800
    12  C   -0.218897
    13  C    0.051550
    14  C   -0.075315
    15  C    0.165469
    16  C   -0.533040
    17  C   -0.277662
    18  C    0.404179
    19  O   -0.513211
    20  C   -0.211643
    21  C   -0.255423
    22  C    0.172136
    23  C   -0.532849
    24  C   -0.204347
    25  C    0.051563
    26  C   -0.075319
    27  C    0.165463
    28  C   -0.533044
    29  C   -0.277665
    30  C    0.404188
    31  O   -0.513213
    32  C   -0.211648
    33  C   -0.255425
    34  C    0.172139
    35  C   -0.532851
    36  C   -0.218884
    37  C   -0.218891
    38  C    0.051574
    39  C   -0.075320
    40  C    0.165464
    41  C   -0.533051
    42  C   -0.277646
    43  C    0.404160
    44  O   -0.513204
    45  C   -0.211651
    46  C   -0.255425
    47  C    0.172135
    48  C   -0.532847
    49  C   -0.204355
    50  C    0.172125
    51  C   -0.532847
    52  C   -0.255423
    53  H    0.167239
    54  H    0.150242
    55  H    0.150287
    56  H    0.121461
    57  H    0.147844
    58  H    0.166388
    59  H    0.165556
    60  H    0.134488
    61  H    0.134480
    62  H    0.166384
    63  H    0.165553
    64  H    0.147842
    65  H    0.121461
    66  H    0.150241
    67  H    0.150284
    68  H    0.167239
    69  H    0.127667
    70  H    0.163702
    71  H    0.163463
    72  H    0.152670
    73  H    0.133973
    74  H    0.166384
    75  H    0.147841
    76  H    0.165556
    77  H    0.121460
    78  H    0.167239
    79  H    0.150287
    80  H    0.150240
    81  H    0.127667
    82  H    0.163703
    83  H    0.163462
    84  H    0.152669
    85  H    0.134480
    86  H    0.134491
    87  H    0.147845
    88  H    0.165555
    89  H    0.166392
    90  H    0.121461
    91  H    0.167239
    92  H    0.150242
    93  H    0.150289
    94  H    0.127667
    95  H    0.163456
    96  H    0.152669
    97  H    0.163700
    98  H    0.133971
    99  H    0.152669
   100  H    0.163700
   101  H    0.163457
   102  H    0.127667
 Sum of Mulliken charges =  -0.00000

 Dipole moment (field-independent basis, Debye):
    X=             -0.0037    Y=             -0.0002    Z=             -0.0000  Tot=              0.0037
 Quadrupole moment (field-independent basis, Debye-Ang):
   XX=           -292.5001   YY=           -265.5882   ZZ=           -297.3006
   XY=             -1.5248   XZ=              0.4163   YZ=             -1.0804

 Normal termination of Gaussian 16 at Sat Nov  5 10:01:18 2022.
