 Gaussian 16, Revision B.01,
 Gaussian 16:  ES64L-G16RevB.01 20-Dec-2017

 -------------------------------------------------------------------
 #p b3lyp/6-31g(d) 6D 10F nosymm GFInput td=(50-50,nstate=2) SCF=XQC
 -------------------------------------------------------------------

 ------------------------------
 Gaussian input prepared by ASE
 ------------------------------
 Symbolic Z-matrix:
 Charge =  0 Multiplicity = 1

                          Input orientation:
 ---------------------------------------------------------------------
 Center     Atomic      Atomic             Coordinates (Angstroms)
 Number     Number       Type             X           Y           Z
 ---------------------------------------------------------------------
      1          6           0       -5.445210    0.480367    2.244602
      2          6           0       -4.105337    0.695815    1.562702
      3          6           0       -3.026705    0.916833    2.400846
      4          6           0       -1.720891    1.096377    1.911651
      5          6           0       -1.485458    1.032136    0.562067
      6          6           0       -2.539939    0.806914   -0.365702
      7          6           0       -2.255434    0.722163   -1.772175
      8          6           0       -0.862453    0.867069   -2.360299
      9          6           0       -0.089730   -0.460461   -2.611560
     10          6           0        0.345615   -1.224830   -1.377958
     11          6           0        1.584051   -0.943602   -0.801567
     12          6           0        2.041536   -1.620986    0.334384
     13          7           0        3.344121   -1.342711    0.847927
     14          8           0        3.381902    0.074728    1.251452
     15          6           0        4.678909    0.568232    1.289882
     16          6           0        5.055024    1.231485    2.455319
     17          6           0        6.293119    1.870659    2.546441
     18          6           0        7.165226    1.813099    1.459653
     19          6           0        6.801218    1.129963    0.299683
     20          6           0        5.551703    0.501697    0.179554
     21          7           0        5.148657   -0.115465   -1.006726
     22          6           0        1.242304   -2.618852    0.893900
     23          6           0        0.016848   -2.935664    0.314611
     24          6           0       -0.459590   -2.243930   -0.809371
     25          7           0       -1.680290   -2.606828   -1.394501
     26          6           0       -3.307921    0.496322   -2.637678
     27          6           0       -4.627641    0.371681   -2.180810
     28          6           0       -4.946313    0.462494   -0.834609
     29          7           0       -6.295392    0.298464   -0.470799
     30          6           0       -3.893573    0.655838    0.135510
     31          1           0       -5.290098    0.351823    3.319807
     32          1           0       -6.119180    1.342980    2.135181
     33          1           0       -5.970280   -0.402101    1.870952
     34          1           0       -3.196381    0.940788    3.474510
     35          1           0       -0.899774    1.264787    2.602852
     36          1           0       -0.470091    1.129829    0.200323
     37          1           0       -0.962074    1.362622   -3.334460
     38          1           0       -0.238363    1.530167   -1.753559
     39          1           0        0.805901   -0.204184   -3.191068
     40          1           0       -0.697484   -1.107716   -3.256187
     41          1           0        2.216690   -0.176116   -1.239760
     42          1           0        3.473987   -1.846324    1.727816
     43          1           0        4.346775    1.250823    3.278687
     44          1           0        6.571079    2.395459    3.455593
     45          1           0        8.138054    2.294892    1.511308
     46          1           0        7.487012    1.088591   -0.544531
     47          1           0        4.568196   -0.931517   -0.831915
     48          1           0        5.918120   -0.325492   -1.632560
     49          1           0        1.572695   -3.152488    1.782959
     50          1           0       -0.597797   -3.717446    0.755775
     51          1           0       -2.259954   -3.177011   -0.789326
     52          1           0       -2.218879   -1.827972   -1.757769
     53          1           0       -3.118294    0.441943   -3.707950
     54          1           0       -5.429441    0.227449   -2.902356
     55          1           0       -6.627080    0.923897    0.249943
     56          1           0       -6.911692    0.343311   -1.275116
 ---------------------------------------------------------------------

 SCF Done:  E(RB3LYP) =  -1262.49895686     A.U. after   15 cycles

 Excitation energies and oscillator strengths:

 Excited state symmetry could not be determined.
 Excited State   1:      Triplet-?Sym    2.4915 eV  497.63 nm  f=0.0000  <S**2>=2.000
     100 ->113         0.11040
     101 ->108        -0.12301
     105 ->107         0.42556
     106 ->107         0.52144
 This state for optimization and/or second-order correction.
 Total Energy, E(TD-HF/TD-DFT) =  -1262.40739701
 Copying the excited state density for this state as the 1-particle RhoCI density.

 Excited state symmetry could not be determined.
 Excited State   2:      Triplet-?Sym    3.2943 eV  376.36 nm  f=0.0000  <S**2>=2.000
     102 ->109        -0.18859
     102 ->110        -0.13091
     105 ->109         0.24499
     105 ->110        -0.22945
     105 ->111        -0.15784
     105 ->112        -0.13313
     106 ->108         0.11386
     106 ->109        -0.24447
     106 ->110         0.32707
     106 ->111         0.18893
     106 ->112         0.15754

 Excited state symmetry could not be determined.
 Excited State   3:      Singlet-?Sym    3.6784 eV  337.06 nm  f=0.0670  <S**2>=0.000
     105 ->107        -0.20659
     106 ->107         0.67014

 Excited state symmetry could not be determined.
 Excited State   4:      Singlet-?Sym    3.9819 eV  311.37 nm  f=0.1031  <S**2>=0.000
     104 ->107         0.14804
     105 ->107         0.64124
     106 ->107         0.19549

 Alpha  occ. eigenvalues --  -19.18059 -14.38499 -14.34177 -14.32729 -14.32279
 Alpha  occ. eigenvalues --  -10.23037 -10.22316 -10.21747 -10.21621 -10.20789
 Alpha  occ. eigenvalues --  -10.19983 -10.19866 -10.19541 -10.18543 -10.18527
 Alpha  occ. eigenvalues --  -10.18499 -10.18486 -10.18415 -10.18357 -10.18327
 Alpha  occ. eigenvalues --  -10.18029 -10.18027 -10.17947 -10.17837 -10.17686
 Alpha  occ. eigenvalues --  -10.17642 -10.17573 -10.17538 -10.17363 -10.17017
 Alpha  occ. eigenvalues --   -1.06412  -0.92113  -0.90851  -0.90310  -0.87822
 Alpha  occ. eigenvalues --   -0.85765  -0.82437  -0.82033  -0.80862  -0.78048
 Alpha  occ. eigenvalues --   -0.76751  -0.74101  -0.73451  -0.72395  -0.71115
 Alpha  occ. eigenvalues --   -0.70455  -0.68930  -0.67434  -0.63745  -0.61604
 Alpha  occ. eigenvalues --   -0.60943  -0.60121  -0.59733  -0.58272  -0.57772
 Alpha  occ. eigenvalues --   -0.55416  -0.52881  -0.52372  -0.51207  -0.50713
 Alpha  occ. eigenvalues --   -0.50466  -0.49794  -0.49464  -0.48521  -0.48044
 Alpha  occ. eigenvalues --   -0.47820  -0.45192  -0.45029  -0.44150  -0.43184
 Alpha  occ. eigenvalues --   -0.42939  -0.42656  -0.42525  -0.41897  -0.41511
 Alpha  occ. eigenvalues --   -0.41446  -0.40946  -0.40577  -0.40329  -0.39277
 Alpha  occ. eigenvalues --   -0.38733  -0.38296  -0.38089  -0.36979  -0.36767
 Alpha  occ. eigenvalues --   -0.36346  -0.36133  -0.35157  -0.34344  -0.34086
 Alpha  occ. eigenvalues --   -0.33684  -0.32825  -0.32127  -0.31819  -0.31587
 Alpha  occ. eigenvalues --   -0.30427  -0.29561  -0.29390  -0.25294  -0.24765
 Alpha  occ. eigenvalues --   -0.23897  -0.23690  -0.22420  -0.18957  -0.18915
 Alpha  occ. eigenvalues --   -0.18018
 Alpha virt. eigenvalues --   -0.02656  -0.00702   0.00332   0.00850   0.01810
 Alpha virt. eigenvalues --    0.02747   0.03823   0.07759   0.08584   0.09136
 Alpha virt. eigenvalues --    0.09507   0.10144   0.10339   0.10508   0.11069

 Mulliken charges:
               1
     1  C   -0.562176
     2  C    0.128916
     3  C   -0.196818
     4  C   -0.126784
     5  C   -0.199678
     6  C    0.059384
     7  C    0.089131
     8  C   -0.340309
     9  C   -0.365117
    10  C    0.147797
    11  C   -0.237131
    12  C    0.306488
    13  N   -0.465677
    14  O   -0.465945
    15  C    0.334185
    16  C   -0.179675
    17  C   -0.147477
    18  C   -0.131660
    19  C   -0.190723
    20  C    0.280167
    21  N   -0.800327
    22  C   -0.191798
    23  C   -0.179790
    24  C    0.257851
    25  N   -0.806317
    26  C   -0.218911
    27  C   -0.180820
    28  C    0.221724
    29  N   -0.795380
    30  C    0.063272
    31  H    0.157953
    32  H    0.147666
    33  H    0.190195
    34  H    0.117874
    35  H    0.134091
    36  H    0.149326
    37  H    0.143735
    38  H    0.154687
    39  H    0.148736
    40  H    0.151467
    41  H    0.151468
    42  H    0.322933
    43  H    0.128220
    44  H    0.120381
    45  H    0.121389
    46  H    0.114102
    47  H    0.357104
    48  H    0.310616
    49  H    0.118968
    50  H    0.116704
    51  H    0.316097
    52  H    0.341641
    53  H    0.123517
    54  H    0.112710
    55  H    0.324129
    56  H    0.317887
 Sum of Mulliken charges =  -0.00000

 Dipole moment (field-independent basis, Debye):
    X=             -3.3229    Y=             -0.8068    Z=              0.1426  Tot=              3.4225
 Quadrupole moment (field-independent basis, Debye-Ang):
   XX=           -144.1696   YY=           -176.8372   ZZ=           -162.7520
   XY=             -8.1248   XZ=             -1.0663   YZ=             -4.3091

 Normal termination of Gaussian 16 at Sat Nov  5 09:58:34 2022.
