 Gaussian 16, Revision B.01,
 Gaussian 16:  ES64L-G16RevB.01 20-Dec-2017

 -----------------------------
 #p b3lyp/6-31g(d) opt SCF=XQC
 -----------------------------

 ------------------------------
 Gaussian input prepared by ASE
 ------------------------------
 Symbolic Z-matrix:
 Charge =  0 Multiplicity = 1

 SCF Done:  E(RB3LYP) =  -1262.48077418     A.U. after   15 cycles
 SCF Done:  E(RB3LYP) =  -1262.49023028     A.U. after   15 cycles
 SCF Done:  E(RB3LYP) =  -1262.49311323     A.U. after   13 cycles
 SCF Done:  E(RB3LYP) =  -1262.49643804     A.U. after   12 cycles
 SCF Done:  E(RB3LYP) =  -1262.49769781     A.U. after   12 cycles
 SCF Done:  E(RB3LYP) =  -1262.49842232     A.U. after   12 cycles
 SCF Done:  E(RB3LYP) =  -1262.49863809     A.U. after   12 cycles
 SCF Done:  E(RB3LYP) =  -1262.49883892     A.U. after   11 cycles
 SCF Done:  E(RB3LYP) =  -1262.49889188     A.U. after   11 cycles
 SCF Done:  E(RB3LYP) =  -1262.49892332     A.U. after   10 cycles
 SCF Done:  E(RB3LYP) =  -1262.49893971     A.U. after   11 cycles
 SCF Done:  E(RB3LYP) =  -1262.49895118     A.U. after   10 cycles
 SCF Done:  E(RB3LYP) =  -1262.49895784     A.U. after   10 cycles
 SCF Done:  E(RB3LYP) =  -1262.49895970     A.U. after    8 cycles
 SCF Done:  E(RB3LYP) =  -1262.49896039     A.U. after    8 cycles
 SCF Done:  E(RB3LYP) =  -1262.49896065     A.U. after    7 cycles
 SCF Done:  E(RB3LYP) =  -1262.49896080     A.U. after    7 cycles
 SCF Done:  E(RB3LYP) =  -1262.49896081     A.U. after    6 cycles
 Optimization completed.
    -- Stationary point found.

                         Standard orientation:
 ---------------------------------------------------------------------
 Center     Atomic      Atomic             Coordinates (Angstroms)
 Number     Number       Type             X           Y           Z
 ---------------------------------------------------------------------
      1          6           0       -5.274716    2.853731    0.787241
      2          6           0       -4.027456    2.190868    0.229009
      3          6           0       -2.844016    2.888714    0.394112
      4          6           0       -1.606891    2.381143   -0.040159
      5          6           0       -1.548572    1.144509   -0.630300
      6          6           0       -2.719697    0.363484   -0.834939
      7          6           0       -2.620656   -0.938691   -1.435626
      8          6           0       -1.310867   -1.559980   -1.889205
      9          6           0       -0.617441   -2.505871   -0.865965
     10          6           0       -0.050879   -1.848023    0.375729
     11          6           0        1.259226   -1.370146    0.358492
     12          6           0        1.837850   -0.759040    1.476648
     13          7           0        3.203392   -0.345503    1.430074
     14          8           0        3.335660    0.672498    0.371975
     15          6           0        4.641270    0.774557   -0.088697
     16          6           0        5.183738    2.056466   -0.133947
     17          6           0        6.442133    2.280919   -0.695898
     18          6           0        7.165481    1.195450   -1.189374
     19          6           0        6.635111   -0.092649   -1.124449
     20          6           0        5.362006   -0.335765   -0.585435
     21          7           0        4.791567   -1.610589   -0.589699
     22          6           0        1.087049   -0.642110    2.647200
     23          6           0       -0.211643   -1.141013    2.693944
     24          6           0       -0.807083   -1.732480    1.569470
     25          7           0       -2.103208   -2.258899    1.653857
     26          6           0       -3.781837   -1.665994   -1.610324
     27          6           0       -5.035225   -1.158833   -1.239205
     28          6           0       -5.175683    0.098030   -0.671205
     29          7           0       -6.471307    0.509172   -0.308441
     30          6           0       -4.001820    0.901094   -0.418404
     31          1           0       -4.986947    3.710237    1.403873
     32          1           0       -5.930638    3.252569   -0.000796
     33          1           0       -5.869938    2.177085    1.405242
     34          1           0       -2.873766    3.857423    0.886897
     35          1           0       -0.699164    2.958789    0.110540
     36          1           0       -0.585499    0.746235   -0.922259
     37          1           0       -1.519521   -2.161717   -2.782997
     38          1           0       -0.594255   -0.796650   -2.207191
     39          1           0        0.203827   -3.003613   -1.396468
     40          1           0       -1.322237   -3.296800   -0.580414
     41          1           0        1.853451   -1.469207   -0.546141
     42          1           0        3.429690    0.166404    2.285315
     43          1           0        4.587870    2.873392    0.262911
     44          1           0        6.850226    3.286398   -0.737182
     45          1           0        8.151081    1.344755   -1.622373
     46          1           0        7.205377   -0.935318   -1.511007
     47          1           0        4.213806   -1.770718    0.231267
     48          1           0        5.467660   -2.353429   -0.727319
     49          1           0        1.512386   -0.161950    3.526340
     50          1           0       -0.788083   -1.048421    3.611953
     51          1           0       -2.617510   -1.927629    2.462009
     52          1           0       -2.660035   -2.138193    0.814791
     53          1           0       -3.732799   -2.648690   -2.075406
     54          1           0       -5.926962   -1.753937   -1.426209
     55          1           0       -6.688653    1.475688   -0.506583
     56          1           0       -7.184036   -0.092162   -0.707411
 ---------------------------------------------------------------------

 The electronic state is 1-A.
 Alpha  occ. eigenvalues --  -19.18059 -14.38499 -14.34176 -14.32729 -14.32278
 Alpha  occ. eigenvalues --  -10.23037 -10.22316 -10.21747 -10.21621 -10.20789
 Alpha  occ. eigenvalues --  -10.19983 -10.19866 -10.19541 -10.18543 -10.18527
 Alpha  occ. eigenvalues --  -10.18499 -10.18487 -10.18415 -10.18357 -10.18327
 Alpha  occ. eigenvalues --  -10.18030 -10.18027 -10.17947 -10.17837 -10.17686
 Alpha  occ. eigenvalues --  -10.17642 -10.17573 -10.17538 -10.17363 -10.17017
 Alpha  occ. eigenvalues --   -1.06412  -0.92113  -0.90851  -0.90310  -0.87822
 Alpha  occ. eigenvalues --   -0.85765  -0.82437  -0.82033  -0.80862  -0.78048
 Alpha  occ. eigenvalues --   -0.76751  -0.74101  -0.73451  -0.72395  -0.71115
 Alpha  occ. eigenvalues --   -0.70455  -0.68930  -0.67434  -0.63745  -0.61604
 Alpha  occ. eigenvalues --   -0.60942  -0.60121  -0.59733  -0.58272  -0.57772
 Alpha  occ. eigenvalues --   -0.55416  -0.52881  -0.52372  -0.51207  -0.50713
 Alpha  occ. eigenvalues --   -0.50466  -0.49794  -0.49464  -0.48521  -0.48044
 Alpha  occ. eigenvalues --   -0.47820  -0.45192  -0.45029  -0.44150  -0.43184
 Alpha  occ. eigenvalues --   -0.42939  -0.42656  -0.42525  -0.41897  -0.41511
 Alpha  occ. eigenvalues --   -0.41446  -0.40947  -0.40577  -0.40329  -0.39277
 Alpha  occ. eigenvalues --   -0.38733  -0.38296  -0.38089  -0.36979  -0.36767
 Alpha  occ. eigenvalues --   -0.36346  -0.36133  -0.35157  -0.34344  -0.34086
 Alpha  occ. eigenvalues --   -0.33684  -0.32825  -0.32127  -0.31819  -0.31587
 Alpha  occ. eigenvalues --   -0.30427  -0.29561  -0.29390  -0.25294  -0.24765
 Alpha  occ. eigenvalues --   -0.23897  -0.23690  -0.22420  -0.18957  -0.18916
 Alpha  occ. eigenvalues --   -0.18018
 Alpha virt. eigenvalues --   -0.02656  -0.00702   0.00332   0.00850   0.01810
 Alpha virt. eigenvalues --    0.02747   0.03823   0.07759   0.08584   0.09136
 Alpha virt. eigenvalues --    0.09507   0.10144   0.10339   0.10508   0.11068

 Mulliken charges:
               1
     1  C   -0.562166
     2  C    0.128905
     3  C   -0.196825
     4  C   -0.126781
     5  C   -0.199694
     6  C    0.059402
     7  C    0.089121
     8  C   -0.340320
     9  C   -0.365109
    10  C    0.147787
    11  C   -0.237126
    12  C    0.306490
    13  N   -0.465682
    14  O   -0.465944
    15  C    0.334194
    16  C   -0.179673
    17  C   -0.147482
    18  C   -0.131662
    19  C   -0.190717
    20  C    0.280157
    21  N   -0.800327
    22  C   -0.191798
    23  C   -0.179782
    24  C    0.257854
    25  N   -0.806325
    26  C   -0.218910
    27  C   -0.180827
    28  C    0.221734
    29  N   -0.795382
    30  C    0.063278
    31  H    0.157952
    32  H    0.147665
    33  H    0.190192
    34  H    0.117876
    35  H    0.134090
    36  H    0.149327
    37  H    0.143737
    38  H    0.154691
    39  H    0.148735
    40  H    0.151469
    41  H    0.151469
    42  H    0.322933
    43  H    0.128220
    44  H    0.120380
    45  H    0.121390
    46  H    0.114102
    47  H    0.357104
    48  H    0.310616
    49  H    0.118969
    50  H    0.116704
    51  H    0.316097
    52  H    0.341646
    53  H    0.123520
    54  H    0.112713
    55  H    0.324128
    56  H    0.317887
 Sum of Mulliken charges =  -0.00000

 Dipole moment (field-independent basis, Debye):
    X=             -3.3002    Y=              0.1653    Z=              0.8916  Tot=              3.4225
 Quadrupole moment (field-independent basis, Debye-Ang):
   XX=           -144.1149   YY=           -167.9564   ZZ=           -170.5792
   XY=             -7.5620   XZ=              6.7403   YZ=              7.5827

 Normal termination of Gaussian 16 at Fri Nov  4 22:52:08 2022.
