 Gaussian 16, Revision B.01,
 Gaussian 16:  ES64L-G16RevB.01 20-Dec-2017

 -------------------------------------------------------------------
 #p b3lyp/6-31g(d) 6D 10F nosymm GFInput td=(50-50,nstate=2) SCF=XQC
 -------------------------------------------------------------------

 ------------------------------
 Gaussian input prepared by ASE
 ------------------------------
 Symbolic Z-matrix:
 Charge =  0 Multiplicity = 1

                          Input orientation:
 ---------------------------------------------------------------------
 Center     Atomic      Atomic             Coordinates (Angstroms)
 Number     Number       Type             X           Y           Z
 ---------------------------------------------------------------------
      1          6           0       -1.188442   -5.148546   -1.060134
      2          6           0       -2.529383   -4.827950   -0.392691
      3          6           0       -3.040687   -3.383763   -0.587461
      4          6           0       -3.307419   -3.014378   -2.049901
      5          7           0       -2.134068   -2.388499    0.004294
      6          6           0       -2.127026   -2.143134    1.338176
      7          8           0       -2.870929   -2.726365    2.127757
      8          6           0       -1.071855   -1.133735    1.858404
      9          6           0       -1.416207   -0.577239    3.264824
     10          6           0       -2.581786    0.381994    3.453023
     11          6           0       -3.918387   -0.030158    3.306273
     12          6           0       -4.967057    0.862550    3.529509
     13          6           0       -4.708681    2.179769    3.916061
     14          6           0       -3.388798    2.596054    4.084205
     15          6           0       -2.340117    1.702817    3.856065
     16          7           0       -0.676239   -0.137138    0.843941
     17          6           0       -1.701389    0.771225    0.299434
     18          6           0       -1.347452    2.250149    0.300290
     19          6           0       -0.431646    2.817391    1.191306
     20          6           0       -0.174394    4.189638    1.174030
     21          6           0       -0.824829    5.040709    0.273889
     22          6           0       -0.526358    6.521313    0.237521
     23          6           0       -1.745761    4.467949   -0.614297
     24          6           0       -1.996612    3.098049   -0.606704
     25          6           0        0.579255   -0.254896    0.301741
     26          8           0        1.426347   -1.027022    0.758563
     27          6           0        0.922756    0.598602   -0.934216
     28          7           0        1.864584   -0.062239   -1.840587
     29          6           0        3.241746    0.336614   -1.889710
     30          6           0        3.804198    0.732260   -3.107129
     31          6           0        5.149267    1.133137   -3.187582
     32          6           0        5.873908    1.146242   -2.012498
     33          6           0        5.307230    0.765177   -0.796475
     34          6           0        3.999679    0.339601   -0.694872
     35          8           0        6.237831    0.895498    0.206626
     36          6           0        7.471078    1.210546   -0.449620
     37          8           0        7.177132    1.531746   -1.814544
     38         16           0        1.354226   -1.486152   -2.591239
     39          8           0        1.749013   -1.461094   -4.001764
     40          8           0       -0.076692   -1.591097   -2.231062
     41          6           0        2.208105   -2.884690   -1.788391
     42          6           0        3.642108   -3.111726   -2.257447
     43          1           0       -0.885901   -6.178476   -0.839856
     44          1           0       -1.234478   -5.043116   -2.150102
     45          1           0       -0.398255   -4.484860   -0.691377
     46          1           0       -3.303486   -5.509172   -0.772420
     47          1           0       -2.458277   -5.007810    0.685855
     48          1           0       -3.974666   -3.302406   -0.021749
     49          1           0       -2.382921   -2.970407   -2.634962
     50          1           0       -3.969833   -3.755032   -2.511222
     51          1           0       -3.792784   -2.034670   -2.118491
     52          1           0       -1.418975   -1.986820   -0.594130
     53          1           0       -0.165555   -1.729493    2.004804
     54          1           0       -0.504192   -0.099905    3.640892
     55          1           0       -1.588076   -1.465669    3.881602
     56          1           0       -4.124780   -1.057396    3.026068
     57          1           0       -5.992874    0.522177    3.411260
     58          1           0       -5.528729    2.870929    4.092742
     59          1           0       -3.170880    3.614882    4.393966
     60          1           0       -1.315931    2.036271    4.003061
     61          1           0       -1.976369    0.460991   -0.716952
     62          1           0       -2.592959    0.623075    0.913697
     63          1           0        0.089833    2.184652    1.903005
     64          1           0        0.544870    4.604515    1.876867
     65          1           0       -1.434192    7.109098    0.061720
     66          1           0        0.178087    6.766942   -0.568366
     67          1           0       -0.079526    6.862818    1.176873
     68          1           0       -2.267840    5.102110   -1.327527
     69          1           0       -2.711105    2.681627   -1.314085
     70          1           0        1.403989    1.522628   -0.604177
     71          1           0        0.031514    0.885330   -1.490523
     72          1           0        3.189090    0.712143   -3.998465
     73          1           0        5.593908    1.436786   -4.128840
     74          1           0        3.560965    0.005895    0.238684
     75          1           0        7.931353    2.075555    0.035947
     76          1           0        8.138665    0.338169   -0.414167
     77          1           0        1.564550   -3.733087   -2.044756
     78          1           0        2.124677   -2.689200   -0.716220
     79          1           0        3.688270   -3.199573   -3.345940
     80          1           0        4.305972   -2.303544   -1.942768
     81          1           0        4.010592   -4.045164   -1.817554
 ---------------------------------------------------------------------

 SCF Done:  E(RB3LYP) =  -2256.63924700     A.U. after   15 cycles

 Excitation energies and oscillator strengths:

 Excited state symmetry could not be determined.
 Excited State   1:      Triplet-?Sym    3.4554 eV  358.81 nm  f=0.0000  <S**2>=2.000
     152 ->159         0.11247
     152 ->160         0.10017
     158 ->159         0.22513
     158 ->160         0.32290
     158 ->162         0.46345
     158 ->164        -0.11548
 This state for optimization and/or second-order correction.
 Total Energy, E(TD-HF/TD-DFT) =  -2256.51226336
 Copying the excited state density for this state as the 1-particle RhoCI density.

 Excited state symmetry could not be determined.
 Excited State   2:      Triplet-?Sym    3.6678 eV  338.03 nm  f=0.0000  <S**2>=2.000
     151 ->159        -0.14255
     151 ->160         0.27360
     151 ->161         0.23431
     152 ->159        -0.10354
     152 ->161        -0.10771
     153 ->159         0.12443
     154 ->159        -0.19287
     154 ->161        -0.18956
     154 ->164        -0.11056
     156 ->159        -0.14454
     156 ->161        -0.28944
     157 ->159         0.13222
     157 ->161         0.14914

 Excited state symmetry could not be determined.
 Excited State   3:      Singlet-?Sym    4.7293 eV  262.16 nm  f=0.1010  <S**2>=0.000
     152 ->162        -0.14946
     153 ->162        -0.12771
     158 ->159         0.55363
     158 ->160         0.27942
     158 ->161        -0.14639
     158 ->162        -0.15767

 Excited state symmetry could not be determined.
 Excited State   4:      Singlet-?Sym    4.9187 eV  252.07 nm  f=0.0171  <S**2>=0.000
     158 ->159        -0.35954
     158 ->160         0.55490
     158 ->161        -0.15967
     158 ->164         0.13302

 Alpha  occ. eigenvalues --  -89.11358 -19.20069 -19.20004 -19.14993 -19.14475
 Alpha  occ. eigenvalues --  -19.13040 -19.10771 -14.38059 -14.37713 -14.34903
 Alpha  occ. eigenvalues --  -10.31358 -10.30135 -10.28148 -10.25807 -10.25733
 Alpha  occ. eigenvalues --  -10.24277 -10.23870 -10.23566 -10.23370 -10.22504
 Alpha  occ. eigenvalues --  -10.21716 -10.20443 -10.20406 -10.20274 -10.20093
 Alpha  occ. eigenvalues --  -10.19731 -10.19557 -10.19488 -10.19366 -10.19337
 Alpha  occ. eigenvalues --  -10.19231 -10.19048 -10.19026 -10.18933 -10.18289
 Alpha  occ. eigenvalues --  -10.18204 -10.18164 -10.18115 -10.17418 -10.17416
 Alpha  occ. eigenvalues --  -10.17199 -10.17028  -8.13912  -6.10433  -6.10340
 Alpha  occ. eigenvalues --   -6.10161  -1.13370  -1.11224  -1.04934  -1.04253
 Alpha  occ. eigenvalues --   -1.02615  -1.00301  -0.94914  -0.94662  -0.91155
 Alpha  occ. eigenvalues --   -0.86307  -0.86230  -0.84649  -0.80096  -0.79766
 Alpha  occ. eigenvalues --   -0.78407  -0.77783  -0.77071  -0.76225  -0.74969
 Alpha  occ. eigenvalues --   -0.74369  -0.73424  -0.73400  -0.72102  -0.71264
 Alpha  occ. eigenvalues --   -0.69142  -0.67315  -0.66610  -0.65651  -0.63941
 Alpha  occ. eigenvalues --   -0.63864  -0.63038  -0.61541  -0.60279  -0.59573
 Alpha  occ. eigenvalues --   -0.58968  -0.58415  -0.57266  -0.56483  -0.55048
 Alpha  occ. eigenvalues --   -0.54483  -0.53160  -0.52829  -0.52701  -0.51506
 Alpha  occ. eigenvalues --   -0.50712  -0.50636  -0.50214  -0.49636  -0.48810
 Alpha  occ. eigenvalues --   -0.47454  -0.47347  -0.46510  -0.46419  -0.46053
 Alpha  occ. eigenvalues --   -0.45735  -0.45647  -0.45299  -0.44966  -0.44700
 Alpha  occ. eigenvalues --   -0.44290  -0.44117  -0.43445  -0.43239  -0.42626
 Alpha  occ. eigenvalues --   -0.42385  -0.42246  -0.41824  -0.41534  -0.41304
 Alpha  occ. eigenvalues --   -0.41022  -0.40592  -0.40522  -0.40278  -0.39654
 Alpha  occ. eigenvalues --   -0.39211  -0.38967  -0.38918  -0.38890  -0.38436
 Alpha  occ. eigenvalues --   -0.38157  -0.38027  -0.37760  -0.37146  -0.36894
 Alpha  occ. eigenvalues --   -0.36490  -0.36232  -0.36079  -0.35341  -0.34985
 Alpha  occ. eigenvalues --   -0.34550  -0.34371  -0.34147  -0.33766  -0.33181
 Alpha  occ. eigenvalues --   -0.32831  -0.32736  -0.32272  -0.32251  -0.31815
 Alpha  occ. eigenvalues --   -0.30639  -0.30080  -0.27946  -0.27138  -0.26326
 Alpha  occ. eigenvalues --   -0.25684  -0.24858  -0.24806  -0.24415  -0.24003
 Alpha  occ. eigenvalues --   -0.23751  -0.22790  -0.21126
 Alpha virt. eigenvalues --   -0.01541  -0.01230  -0.00901  -0.00294   0.00283
 Alpha virt. eigenvalues --    0.00560   0.00886   0.02908   0.04922   0.06440
 Alpha virt. eigenvalues --    0.08154   0.08476   0.08991   0.09473   0.09881

 Mulliken charges:
               1
     1  C   -0.458211
     2  C   -0.255658
     3  C    0.057925
     4  C   -0.480741
     5  N   -0.640650
     6  C    0.631798
     7  O   -0.545832
     8  C   -0.106740
     9  C   -0.342901
    10  C    0.137288
    11  C   -0.198443
    12  C   -0.131047
    13  C   -0.130855
    14  C   -0.124223
    15  C   -0.182064
    16  N   -0.453151
    17  C   -0.236114
    18  C    0.141533
    19  C   -0.179058
    20  C   -0.185712
    21  C    0.179650
    22  C   -0.530661
    23  C   -0.176447
    24  C   -0.178614
    25  C    0.602692
    26  O   -0.530195
    27  C   -0.220574
    28  N   -0.638125
    29  C    0.218034
    30  C   -0.147998
    31  C   -0.197098
    32  C    0.341897
    33  C    0.332440
    34  C   -0.229636
    35  O   -0.530063
    36  C    0.190054
    37  O   -0.529048
    38  S    1.253754
    39  O   -0.526383
    40  O   -0.595649
    41  C   -0.486797
    42  C   -0.465170
    43  H    0.143909
    44  H    0.147824
    45  H    0.145693
    46  H    0.129835
    47  H    0.161475
    48  H    0.157586
    49  H    0.177064
    50  H    0.146693
    51  H    0.148003
    52  H    0.386801
    53  H    0.213305
    54  H    0.143393
    55  H    0.182707
    56  H    0.177034
    57  H    0.128354
    58  H    0.125517
    59  H    0.125752
    60  H    0.118210
    61  H    0.172700
    62  H    0.208118
    63  H    0.137023
    64  H    0.125427
    65  H    0.160917
    66  H    0.167515
    67  H    0.157404
    68  H    0.127189
    69  H    0.129463
    70  H    0.204266
    71  H    0.198071
    72  H    0.169641
    73  H    0.152669
    74  H    0.184771
    75  H    0.168018
    76  H    0.157056
    77  H    0.205981
    78  H    0.235622
    79  H    0.186605
    80  H    0.178572
    81  H    0.160613
 Sum of Mulliken charges =  -0.00000

 Dipole moment (field-independent basis, Debye):
    X=              2.8203    Y=              3.0402    Z=             -0.2946  Tot=              4.1574
 Quadrupole moment (field-independent basis, Debye-Ang):
   XX=           -232.0711   YY=           -236.1390   ZZ=           -271.8019
   XY=             -6.2178   XZ=             10.7052   YZ=              6.3690

 Normal termination of Gaussian 16 at Sat Nov  5 10:17:37 2022.
