 Gaussian 16, Revision B.01,
 Gaussian 16:  ES64L-G16RevB.01 20-Dec-2017

 -----------------------------
 #p b3lyp/6-31g(d) opt SCF=XQC
 -----------------------------

 ------------------------------
 Gaussian input prepared by ASE
 ------------------------------
 Symbolic Z-matrix:
 Charge =  0 Multiplicity = 1

 SCF Done:  E(RB3LYP) =  -2256.60569533     A.U. after   15 cycles
 SCF Done:  E(RB3LYP) =  -2256.62168933     A.U. after   14 cycles
 SCF Done:  E(RB3LYP) =  -2256.62189424     A.U. after   13 cycles
 SCF Done:  E(RB3LYP) =  -2256.62652445     A.U. after   13 cycles
 SCF Done:  E(RB3LYP) =  -2256.63080839     A.U. after   12 cycles
 SCF Done:  E(RB3LYP) =  -2256.63427222     A.U. after   13 cycles
 SCF Done:  E(RB3LYP) =  -2256.63461070     A.U. after   12 cycles
 SCF Done:  E(RB3LYP) =  -2256.63404384     A.U. after   13 cycles
 SCF Done:  E(RB3LYP) =  -2256.63428544     A.U. after   13 cycles
 SCF Done:  E(RB3LYP) =  -2256.63613345     A.U. after    9 cycles
 SCF Done:  E(RB3LYP) =  -2256.63924354     A.U. after    9 cycles
 SCF Done:  E(RB3LYP) =  -2256.63924577     A.U. after    9 cycles
 SCF Done:  E(RB3LYP) =  -2256.63924484     A.U. after    9 cycles
 SCF Done:  E(RB3LYP) =  -2256.63924082     A.U. after   10 cycles
 SCF Done:  E(RB3LYP) =  -2256.63924581     A.U. after    9 cycles
 SCF Done:  E(RB3LYP) =  -2256.63924632     A.U. after    9 cycles
 SCF Done:  E(RB3LYP) =  -2256.63924697     A.U. after   10 cycles
 SCF Done:  E(RB3LYP) =  -2256.63924781     A.U. after    9 cycles
 SCF Done:  E(RB3LYP) =  -2256.63924784     A.U. after    6 cycles
 SCF Done:  E(RB3LYP) =  -2256.63924785     A.U. after    6 cycles
 Optimization completed.
    -- Stationary point found.

                         Standard orientation:
 ---------------------------------------------------------------------
 Center     Atomic      Atomic             Coordinates (Angstroms)
 Number     Number       Type             X           Y           Z
 ---------------------------------------------------------------------
      1          6           0        0.831417    5.423924    0.154094
      2          6           0        2.333217    5.138239    0.057325
      3          6           0        2.721418    3.893925   -0.770942
      4          6           0        2.309701    3.978710   -2.243906
      5          7           0        2.188439    2.651877   -0.191345
      6          6           0        2.782548    2.056066    0.872392
      7          8           0        3.793816    2.507725    1.411215
      8          6           0        2.084906    0.797795    1.449422
      9          6           0        3.029600   -0.061124    2.330383
     10          6           0        4.168104   -0.850431    1.701953
     11          6           0        5.292160   -0.219333    1.139705
     12          6           0        6.340989   -0.972312    0.611072
     13          6           0        6.299759   -2.368220    0.642499
     14          6           0        5.200283   -3.006550    1.214636
     15          6           0        4.149242   -2.251741    1.739259
     16          7           0        1.289558    0.065932    0.444110
     17          6           0        1.973770   -0.497413   -0.733617
     18          6           0        1.676442   -1.956844   -1.040450
     19          6           0        1.263835   -2.874318   -0.069692
     20          6           0        1.043478   -4.212966   -0.399846
     21          6           0        1.232701   -4.681368   -1.704622
     22          6           0        0.968315   -6.124035   -2.067121
     23          6           0        1.651087   -3.758648   -2.673428
     24          6           0        1.861416   -2.420563   -2.349545
     25          6           0       -0.077198    0.137537    0.548818
     26          8           0       -0.639756    0.621649    1.534512
     27          6           0       -0.926946   -0.390454   -0.623016
     28          7           0       -2.183217    0.343069   -0.793267
     29          6           0       -3.431415   -0.228358   -0.376679
     30          6           0       -4.474413   -0.358636   -1.298731
     31          6           0       -5.707921   -0.918711   -0.923021
     32          6           0       -5.829430   -1.357676    0.380299
     33          6           0       -4.783095   -1.240256    1.294871
     34          6           0       -3.573971   -0.668020    0.960663
     35          8           0       -5.164270   -1.774813    2.502417
     36          6           0       -6.556724   -2.080570    2.366790
     37          8           0       -6.901054   -1.972327    0.980315
     38         16           0       -2.081096    1.976686   -1.208405
     39          8           0       -3.065355    2.276159   -2.251291
     40          8           0       -0.641829    2.192354   -1.473485
     41          6           0       -2.502706    2.961719    0.268598
     42          6           0       -3.997689    3.090793    0.544806
     43          1           0        0.646528    6.298527    0.787888
     44          1           0        0.385834    5.625869   -0.826691
     45          1           0        0.298479    4.574986    0.596971
     46          1           0        2.846640    6.004426   -0.382687
     47          1           0        2.750330    5.006428    1.061970
     48          1           0        3.810791    3.802603   -0.708558
     49          1           0        1.221727    3.957507   -2.365515
     50          1           0        2.685979    4.906860   -2.687897
     51          1           0        2.725332    3.138037   -2.810151
     52          1           0        1.286229    2.325368   -0.523344
     53          1           0        1.332642    1.189468    2.141110
     54          1           0        2.388657   -0.753003    2.888542
     55          1           0        3.448197    0.642255    3.057911
     56          1           0        5.338206    0.864244    1.131235
     57          1           0        7.200860   -0.463559    0.182202
     58          1           0        7.120790   -2.951025    0.233054
     59          1           0        5.157060   -4.091857    1.255759
     60          1           0        3.303614   -2.761460    2.194075
     61          1           0        1.760561    0.114028   -1.619947
     62          1           0        3.044063   -0.389965   -0.541019
     63          1           0        1.108288   -2.543244    0.952564
     64          1           0        0.720396   -4.905239    0.374634
     65          1           0        1.708684   -6.499929   -2.782046
     66          1           0       -0.019251   -6.244343   -2.532168
     67          1           0        0.993781   -6.769978   -1.183506
     68          1           0        1.806504   -4.090569   -3.697683
     69          1           0        2.178178   -1.726302   -3.125406
     70          1           0       -1.197705   -1.430383   -0.424092
     71          1           0       -0.375610   -0.379429   -1.562117
     72          1           0       -4.323861   -0.006228   -2.311838
     73          1           0       -6.523093   -1.018757   -1.631089
     74          1           0       -2.767928   -0.538189    1.673962
     75          1           0       -6.739848   -3.103392    2.707625
     76          1           0       -7.148750   -1.360170    2.948598
     77          1           0       -2.052875    3.933981    0.040514
     78          1           0       -1.945535    2.497746    1.086533
     79          1           0       -4.527487    3.462384   -0.336044
     80          1           0       -4.440073    2.137944    0.843587
     81          1           0       -4.141970    3.804293    1.363767
 ---------------------------------------------------------------------

 The electronic state is 1-A.
 Alpha  occ. eigenvalues --  -89.11358 -19.20069 -19.20004 -19.14992 -19.14475
 Alpha  occ. eigenvalues --  -19.13040 -19.10771 -14.38059 -14.37713 -14.34903
 Alpha  occ. eigenvalues --  -10.31358 -10.30135 -10.28148 -10.25807 -10.25733
 Alpha  occ. eigenvalues --  -10.24277 -10.23870 -10.23566 -10.23370 -10.22504
 Alpha  occ. eigenvalues --  -10.21716 -10.20443 -10.20406 -10.20274 -10.20093
 Alpha  occ. eigenvalues --  -10.19731 -10.19557 -10.19488 -10.19366 -10.19337
 Alpha  occ. eigenvalues --  -10.19231 -10.19048 -10.19025 -10.18933 -10.18289
 Alpha  occ. eigenvalues --  -10.18204 -10.18164 -10.18115 -10.17418 -10.17416
 Alpha  occ. eigenvalues --  -10.17199 -10.17028  -8.13912  -6.10433  -6.10339
 Alpha  occ. eigenvalues --   -6.10161  -1.13370  -1.11224  -1.04934  -1.04253
 Alpha  occ. eigenvalues --   -1.02615  -1.00301  -0.94914  -0.94662  -0.91155
 Alpha  occ. eigenvalues --   -0.86307  -0.86230  -0.84649  -0.80096  -0.79766
 Alpha  occ. eigenvalues --   -0.78406  -0.77783  -0.77071  -0.76225  -0.74969
 Alpha  occ. eigenvalues --   -0.74369  -0.73424  -0.73399  -0.72102  -0.71264
 Alpha  occ. eigenvalues --   -0.69142  -0.67315  -0.66610  -0.65651  -0.63941
 Alpha  occ. eigenvalues --   -0.63864  -0.63038  -0.61541  -0.60279  -0.59572
 Alpha  occ. eigenvalues --   -0.58968  -0.58415  -0.57266  -0.56483  -0.55047
 Alpha  occ. eigenvalues --   -0.54483  -0.53160  -0.52829  -0.52701  -0.51506
 Alpha  occ. eigenvalues --   -0.50712  -0.50636  -0.50214  -0.49636  -0.48810
 Alpha  occ. eigenvalues --   -0.47454  -0.47346  -0.46510  -0.46419  -0.46053
 Alpha  occ. eigenvalues --   -0.45735  -0.45647  -0.45299  -0.44966  -0.44700
 Alpha  occ. eigenvalues --   -0.44290  -0.44117  -0.43445  -0.43239  -0.42626
 Alpha  occ. eigenvalues --   -0.42385  -0.42246  -0.41824  -0.41534  -0.41304
 Alpha  occ. eigenvalues --   -0.41022  -0.40592  -0.40522  -0.40278  -0.39654
 Alpha  occ. eigenvalues --   -0.39211  -0.38967  -0.38918  -0.38890  -0.38436
 Alpha  occ. eigenvalues --   -0.38157  -0.38027  -0.37760  -0.37146  -0.36894
 Alpha  occ. eigenvalues --   -0.36490  -0.36232  -0.36079  -0.35341  -0.34985
 Alpha  occ. eigenvalues --   -0.34550  -0.34371  -0.34147  -0.33766  -0.33181
 Alpha  occ. eigenvalues --   -0.32831  -0.32736  -0.32272  -0.32251  -0.31815
 Alpha  occ. eigenvalues --   -0.30639  -0.30080  -0.27946  -0.27138  -0.26326
 Alpha  occ. eigenvalues --   -0.25684  -0.24858  -0.24806  -0.24415  -0.24003
 Alpha  occ. eigenvalues --   -0.23751  -0.22790  -0.21126
 Alpha virt. eigenvalues --   -0.01541  -0.01230  -0.00901  -0.00294   0.00283
 Alpha virt. eigenvalues --    0.00560   0.00886   0.02908   0.04921   0.06440
 Alpha virt. eigenvalues --    0.08154   0.08476   0.08990   0.09473   0.09881

 Mulliken charges:
               1
     1  C   -0.458225
     2  C   -0.255651
     3  C    0.057932
     4  C   -0.480740
     5  N   -0.640688
     6  C    0.631876
     7  O   -0.545846
     8  C   -0.106799
     9  C   -0.342901
    10  C    0.137295
    11  C   -0.198450
    12  C   -0.131046
    13  C   -0.130854
    14  C   -0.124227
    15  C   -0.182048
    16  N   -0.453143
    17  C   -0.236104
    18  C    0.141526
    19  C   -0.179070
    20  C   -0.185701
    21  C    0.179652
    22  C   -0.530660
    23  C   -0.176449
    24  C   -0.178616
    25  C    0.602683
    26  O   -0.530214
    27  C   -0.220571
    28  N   -0.638126
    29  C    0.218005
    30  C   -0.147973
    31  C   -0.197095
    32  C    0.341919
    33  C    0.332420
    34  C   -0.229633
    35  O   -0.530058
    36  C    0.190043
    37  O   -0.529059
    38  S    1.253823
    39  O   -0.526373
    40  O   -0.595680
    41  C   -0.486834
    42  C   -0.465168
    43  H    0.143913
    44  H    0.147827
    45  H    0.145688
    46  H    0.129835
    47  H    0.161475
    48  H    0.157582
    49  H    0.177070
    50  H    0.146691
    51  H    0.147998
    52  H    0.386801
    53  H    0.213317
    54  H    0.143395
    55  H    0.182710
    56  H    0.177030
    57  H    0.128353
    58  H    0.125516
    59  H    0.125751
    60  H    0.118210
    61  H    0.172702
    62  H    0.208121
    63  H    0.137029
    64  H    0.125425
    65  H    0.160917
    66  H    0.167515
    67  H    0.157404
    68  H    0.127189
    69  H    0.129462
    70  H    0.204268
    71  H    0.198070
    72  H    0.169636
    73  H    0.152670
    74  H    0.184768
    75  H    0.168020
    76  H    0.157060
    77  H    0.205983
    78  H    0.235634
    79  H    0.186605
    80  H    0.178574
    81  H    0.160613
 Sum of Mulliken charges =  -0.00000

 Dipole moment (field-independent basis, Debye):
    X=             -2.6150    Y=             -3.2321    Z=              0.0007  Tot=              4.1575
 Quadrupole moment (field-independent basis, Debye-Ang):
   XX=           -250.0123   YY=           -236.6922   ZZ=           -255.3316
   XY=             -2.4241   XZ=            -23.7554   YZ=              3.0779

 Normal termination of Gaussian 16 at Sat Nov  5 02:02:49 2022.
