 Gaussian 16, Revision B.01,
 Gaussian 16:  ES64L-G16RevB.01 20-Dec-2017

 -------------------------------------------------------------------
 #p b3lyp/6-31g(d) 6D 10F nosymm GFInput td=(50-50,nstate=2) SCF=XQC
 -------------------------------------------------------------------

 ------------------------------
 Gaussian input prepared by ASE
 ------------------------------
 Symbolic Z-matrix:
 Charge =  0 Multiplicity = 1

                          Input orientation:
 ---------------------------------------------------------------------
 Center     Atomic      Atomic             Coordinates (Angstroms)
 Number     Number       Type             X           Y           Z
 ---------------------------------------------------------------------
      1          6           0       -4.231236    2.061163    1.867848
      2          6           0       -5.342568    1.210722    1.239518
      3          6           0       -6.560410    1.104303    2.168495
      4          6           0       -4.850110   -0.207530    0.882382
      5          7           0       -3.756938   -0.247126   -0.075188
      6          6           0       -2.438316   -0.515626    0.293614
      7          8           0       -2.098069   -0.713441    1.457051
      8          6           0       -1.633178   -0.503558   -0.971618
      9          6           0       -0.298273   -0.694694   -1.176205
     10          6           0        0.849495   -0.975106   -0.332368
     11          6           0        2.098671   -1.091271   -0.979103
     12          6           0        3.276576   -1.356387   -0.289645
     13          6           0        3.227066   -1.518980    1.101752
     14          8           0        4.298026   -1.801864    1.897770
     15          6           0        5.599929   -1.930495    1.315120
     16          6           0        6.239899   -0.595601    0.998392
     17          6           0        6.362072    0.396472    1.980780
     18          6           0        6.966048    1.620359    1.699602
     19          6           0        7.467119    1.873609    0.419431
     20          6           0        7.356029    0.906615   -0.578595
     21          6           0        6.745379   -0.302087   -0.266830
     22          9           0        6.623273   -1.231334   -1.251286
     23          6           0        1.996327   -1.406170    1.769867
     24          6           0        0.829945   -1.140971    1.073924
     25          6           0       -2.594555   -0.229608   -2.047241
     26          6           0       -2.462614   -0.111508   -3.428933
     27          6           0       -3.595799    0.145940   -4.208586
     28          6           0       -4.850877    0.282588   -3.609674
     29          6           0       -5.005460    0.170281   -2.221966
     30          6           0       -3.870057   -0.083249   -1.459916
     31          1           0       -3.377844    2.170804    1.191153
     32          1           0       -4.601393    3.065157    2.106323
     33          1           0       -3.862935    1.604522    2.794252
     34          1           0       -5.664041    1.701417    0.309374
     35          1           0       -7.370581    0.523483    1.710545
     36          1           0       -6.291318    0.615267    3.113621
     37          1           0       -6.956017    2.097080    2.410239
     38          1           0       -5.680997   -0.801334    0.479375
     39          1           0       -4.482653   -0.709954    1.782468
     40          1           0       -0.014446   -0.619469   -2.227094
     41          1           0        2.147874   -0.965982   -2.058386
     42          1           0        4.208612   -1.425672   -0.836835
     43          1           0        6.177066   -2.448387    2.086742
     44          1           0        5.567932   -2.573661    0.431385
     45          1           0        5.963223    0.198307    2.971965
     46          1           0        7.048150    2.375011    2.476103
     47          1           0        7.941705    2.824469    0.194801
     48          1           0        7.726419    1.071052   -1.585071
     49          1           0        1.982555   -1.536489    2.847632
     50          1           0       -0.112974   -1.058558    1.600274
     51          1           0       -1.491456   -0.221100   -3.905259
     52          1           0       -3.497658    0.238649   -5.286332
     53          1           0       -5.723783    0.480757   -4.225669
     54          1           0       -5.982834    0.279181   -1.762683
 ---------------------------------------------------------------------

 SCF Done:  E(RB3LYP) =  -1310.28059439     A.U. after   15 cycles

 Excitation energies and oscillator strengths:

 Excited state symmetry could not be determined.
 Excited State   1:      Triplet-?Sym    1.9359 eV  640.45 nm  f=0.0000  <S**2>=2.000
      98 ->107        -0.10086
     105 ->107         0.13761
     106 ->107         0.67627
 This state for optimization and/or second-order correction.
 Total Energy, E(TD-HF/TD-DFT) =  -1310.20945175
 Copying the excited state density for this state as the 1-particle RhoCI density.

 Excited state symmetry could not be determined.
 Excited State   2:      Triplet-?Sym    2.8772 eV  430.92 nm  f=0.0000  <S**2>=2.000
     105 ->107         0.67213
     106 ->107        -0.13662
     106 ->112         0.10537

 Excited state symmetry could not be determined.
 Excited State   3:      Singlet-?Sym    3.0296 eV  409.24 nm  f=0.1628  <S**2>=0.000
     105 ->107        -0.32085
     106 ->107         0.62723

 Excited state symmetry could not be determined.
 Excited State   4:      Singlet-?Sym    3.5874 eV  345.61 nm  f=0.8410  <S**2>=0.000
     105 ->107         0.62394
     106 ->107         0.32437

 Alpha  occ. eigenvalues --  -24.71899 -19.18602 -19.11500 -14.36660 -10.28251
 Alpha  occ. eigenvalues --  -10.28221 -10.25653 -10.25390 -10.22320 -10.21638
 Alpha  occ. eigenvalues --  -10.21251 -10.20964 -10.20869 -10.20650 -10.20604
 Alpha  occ. eigenvalues --  -10.20181 -10.19840 -10.19631 -10.19523 -10.19046
 Alpha  occ. eigenvalues --  -10.18956 -10.18894 -10.18871 -10.18811 -10.18757
 Alpha  occ. eigenvalues --  -10.18256 -10.18169 -10.18106 -10.17515 -10.16611
 Alpha  occ. eigenvalues --   -1.22738  -1.07025  -1.03270  -0.95558  -0.87325
 Alpha  occ. eigenvalues --   -0.85678  -0.84679  -0.81247  -0.79821  -0.78779
 Alpha  occ. eigenvalues --   -0.75997  -0.75729  -0.74657  -0.73929  -0.72016
 Alpha  occ. eigenvalues --   -0.70161  -0.69089  -0.67929  -0.64433  -0.62794
 Alpha  occ. eigenvalues --   -0.61814  -0.60934  -0.60375  -0.58899  -0.57970
 Alpha  occ. eigenvalues --   -0.55849  -0.54930  -0.54572  -0.53679  -0.51081
 Alpha  occ. eigenvalues --   -0.50350  -0.49978  -0.49052  -0.48355  -0.47354
 Alpha  occ. eigenvalues --   -0.46885  -0.46313  -0.45873  -0.45226  -0.44808
 Alpha  occ. eigenvalues --   -0.44597  -0.44274  -0.43410  -0.43223  -0.42435
 Alpha  occ. eigenvalues --   -0.41967  -0.41297  -0.40946  -0.40509  -0.39909
 Alpha  occ. eigenvalues --   -0.39497  -0.38824  -0.38105  -0.37500  -0.37276
 Alpha  occ. eigenvalues --   -0.36981  -0.36544  -0.36304  -0.36094  -0.35962
 Alpha  occ. eigenvalues --   -0.34812  -0.34678  -0.33991  -0.33425  -0.33091
 Alpha  occ. eigenvalues --   -0.32411  -0.32388  -0.29325  -0.28899  -0.26491
 Alpha  occ. eigenvalues --   -0.25538  -0.25029  -0.24905  -0.24713  -0.21254
 Alpha  occ. eigenvalues --   -0.19273
 Alpha virt. eigenvalues --   -0.06591  -0.02487  -0.00678   0.00230   0.00476
 Alpha virt. eigenvalues --    0.02414   0.03745   0.07801   0.08256   0.09327
 Alpha virt. eigenvalues --    0.10468   0.10934   0.11715   0.12066   0.12752

 Mulliken charges:
               1
     1  C   -0.442224
     2  C   -0.080945
     3  C   -0.446017
     4  C   -0.146451
     5  N   -0.586775
     6  C    0.582328
     7  O   -0.538930
     8  C    0.063386
     9  C   -0.296140
    10  C    0.178364
    11  C   -0.202697
    12  C   -0.196688
    13  C    0.382059
    14  O   -0.517285
    15  C   -0.129531
    16  C    0.071227
    17  C   -0.169712
    18  C   -0.125516
    19  C   -0.130209
    20  C   -0.187521
    21  C    0.329203
    22  F   -0.300628
    23  C   -0.187234
    24  C   -0.190289
    25  C    0.057268
    26  C   -0.211660
    27  C   -0.137364
    28  C   -0.143454
    29  C   -0.177540
    30  C    0.330461
    31  H    0.155160
    32  H    0.137956
    33  H    0.153640
    34  H    0.131817
    35  H    0.138859
    36  H    0.146214
    37  H    0.146959
    38  H    0.144673
    39  H    0.178356
    40  H    0.138705
    41  H    0.133183
    42  H    0.148627
    43  H    0.173425
    44  H    0.170222
    45  H    0.151568
    46  H    0.139759
    47  H    0.143326
    48  H    0.150582
    49  H    0.142473
    50  H    0.210634
    51  H    0.129802
    52  H    0.124215
    53  H    0.127663
    54  H    0.132695
 Sum of Mulliken charges =  -0.00000

 Dipole moment (field-independent basis, Debye):
    X=              2.1274    Y=              1.4358    Z=             -0.9186  Tot=              2.7260
 Quadrupole moment (field-independent basis, Debye-Ang):
   XX=           -136.4355   YY=           -172.9790   ZZ=           -166.0507
   XY=              2.8959   XZ=              3.6617   YZ=              0.8432

 Normal termination of Gaussian 16 at Sat Nov  5 09:45:10 2022.
