 Gaussian 16, Revision B.01,
 Gaussian 16:  ES64L-G16RevB.01 20-Dec-2017

 -----------------------------
 #p b3lyp/6-31g(d) opt SCF=XQC
 -----------------------------

 ------------------------------
 Gaussian input prepared by ASE
 ------------------------------
 Symbolic Z-matrix:
 Charge =  0 Multiplicity = 1

 SCF Done:  E(RB3LYP) =  -1310.27340780     A.U. after   15 cycles
 SCF Done:  E(RB3LYP) =  -1310.27861311     A.U. after   13 cycles
 SCF Done:  E(RB3LYP) =  -1310.27869134     A.U. after   12 cycles
 SCF Done:  E(RB3LYP) =  -1310.27940298     A.U. after   12 cycles
 SCF Done:  E(RB3LYP) =  -1310.27975445     A.U. after   11 cycles
 SCF Done:  E(RB3LYP) =  -1310.27981736     A.U. after   11 cycles
 SCF Done:  E(RB3LYP) =  -1310.27984469     A.U. after   10 cycles
 SCF Done:  E(RB3LYP) =  -1310.27985421     A.U. after    9 cycles
 SCF Done:  E(RB3LYP) =  -1310.27985737     A.U. after    9 cycles
 SCF Done:  E(RB3LYP) =  -1310.27985860     A.U. after    9 cycles
 SCF Done:  E(RB3LYP) =  -1310.27822411     A.U. after   15 cycles
 SCF Done:  E(RB3LYP) =  -1310.28020359     A.U. after   12 cycles
 SCF Done:  E(RB3LYP) =  -1310.28051661     A.U. after   12 cycles
 SCF Done:  E(RB3LYP) =  -1310.28055889     A.U. after   12 cycles
 SCF Done:  E(RB3LYP) =  -1310.28059260     A.U. after   11 cycles
 SCF Done:  E(RB3LYP) =  -1310.28059497     A.U. after    9 cycles
 SCF Done:  E(RB3LYP) =  -1310.28059551     A.U. after    7 cycles
 SCF Done:  E(RB3LYP) =  -1310.28059574     A.U. after    7 cycles
 SCF Done:  E(RB3LYP) =  -1310.28059579     A.U. after    7 cycles
 SCF Done:  E(RB3LYP) =  -1310.28059581     A.U. after    7 cycles
 Optimization completed.
    -- Stationary point found.

                         Standard orientation:
 ---------------------------------------------------------------------
 Center     Atomic      Atomic             Coordinates (Angstroms)
 Number     Number       Type             X           Y           Z
 ---------------------------------------------------------------------
      1          6           0       -4.618693   -2.583324    1.719606
      2          6           0       -5.737232   -1.970397    0.867374
      3          6           0       -6.846106   -2.992331    0.578392
      4          6           0       -5.202639   -1.409280   -0.467114
      5          7           0       -4.212063   -0.354264   -0.328438
      6          6           0       -2.849487   -0.563643   -0.543890
      7          8           0       -2.381843   -1.659566   -0.841791
      8          6           0       -2.179239    0.762507   -0.340671
      9          6           0       -0.863267    1.112947   -0.416643
     10          6           0        0.378623    0.418943   -0.706694
     11          6           0        1.560162    1.190022   -0.666665
     12          6           0        2.815400    0.649811   -0.922884
     13          6           0        2.917112   -0.712465   -1.237101
     14          8           0        4.078000   -1.366167   -1.529736
     15          6           0        5.319142   -0.652057   -1.505341
     16          6           0        5.845490   -0.430047   -0.103382
     17          6           0        6.009489   -1.502880    0.783384
     18          6           0        6.510109   -1.306813    2.068951
     19          6           0        6.862942   -0.022101    2.492120
     20          6           0        6.706913    1.064395    1.632670
     21          6           0        6.201898    0.835717    0.358418
     22          9           0        6.034130    1.903458   -0.465807
     23          6           0        1.756251   -1.502562   -1.281490
     24          6           0        0.511793   -0.954856   -1.023701
     25          6           0       -3.259215    1.704125   -0.019324
     26          6           0       -3.275507    3.069666    0.255379
     27          6           0       -4.495062    3.704185    0.516755
     28          6           0       -5.688508    2.977514    0.501778
     29          6           0       -5.694426    1.603220    0.230621
     30          6           0       -4.474684    0.985875   -0.024826
     31          1           0       -3.846299   -1.845762    1.959654
     32          1           0       -5.019989   -2.968396    2.664366
     33          1           0       -4.132358   -3.412733    1.192395
     34          1           0       -6.179405   -1.136730    1.431976
     35          1           0       -7.663779   -2.550063   -0.004064
     36          1           0       -6.454526   -3.845963    0.010231
     37          1           0       -7.271697   -3.381770    1.509930
     38          1           0       -6.034549   -1.021834   -1.069777
     39          1           0       -4.717177   -2.207534   -1.036963
     40          1           0       -0.692600    2.170581   -0.209598
     41          1           0        1.492039    2.247833   -0.423016
     42          1           0        3.689394    1.287087   -0.868824
     43          1           0        6.000673   -1.301652   -2.062334
     44          1           0        5.234601    0.292066   -2.050463
     45          1           0        5.725610   -2.498375    0.452926
     46          1           0        6.627074   -2.152817    2.739614
     47          1           0        7.256565    0.136844    3.491932
     48          1           0        6.962919    2.076154    1.929366
     49          1           0        1.859699   -2.554946   -1.527534
     50          1           0       -0.375885   -1.574045   -1.063248
     51          1           0       -2.353128    3.645146    0.264530
     52          1           0       -4.512547    4.768814    0.731284
     53          1           0       -6.629505    3.481557    0.704632
     54          1           0       -6.624671    1.044086    0.222189
 ---------------------------------------------------------------------

 The electronic state is 1-A.
 Alpha  occ. eigenvalues --  -24.71899 -19.18602 -19.11500 -14.36660 -10.28251
 Alpha  occ. eigenvalues --  -10.28221 -10.25653 -10.25390 -10.22320 -10.21638
 Alpha  occ. eigenvalues --  -10.21251 -10.20964 -10.20869 -10.20650 -10.20604
 Alpha  occ. eigenvalues --  -10.20181 -10.19840 -10.19631 -10.19523 -10.19046
 Alpha  occ. eigenvalues --  -10.18956 -10.18894 -10.18871 -10.18811 -10.18757
 Alpha  occ. eigenvalues --  -10.18256 -10.18169 -10.18106 -10.17515 -10.16612
 Alpha  occ. eigenvalues --   -1.22738  -1.07025  -1.03270  -0.95558  -0.87325
 Alpha  occ. eigenvalues --   -0.85678  -0.84679  -0.81247  -0.79821  -0.78779
 Alpha  occ. eigenvalues --   -0.75997  -0.75729  -0.74657  -0.73929  -0.72016
 Alpha  occ. eigenvalues --   -0.70161  -0.69089  -0.67929  -0.64433  -0.62794
 Alpha  occ. eigenvalues --   -0.61814  -0.60934  -0.60375  -0.58899  -0.57971
 Alpha  occ. eigenvalues --   -0.55849  -0.54930  -0.54572  -0.53679  -0.51081
 Alpha  occ. eigenvalues --   -0.50350  -0.49978  -0.49052  -0.48355  -0.47354
 Alpha  occ. eigenvalues --   -0.46885  -0.46313  -0.45873  -0.45226  -0.44808
 Alpha  occ. eigenvalues --   -0.44597  -0.44274  -0.43410  -0.43223  -0.42435
 Alpha  occ. eigenvalues --   -0.41967  -0.41297  -0.40946  -0.40509  -0.39909
 Alpha  occ. eigenvalues --   -0.39497  -0.38824  -0.38105  -0.37500  -0.37276
 Alpha  occ. eigenvalues --   -0.36981  -0.36544  -0.36304  -0.36094  -0.35962
 Alpha  occ. eigenvalues --   -0.34812  -0.34678  -0.33991  -0.33425  -0.33091
 Alpha  occ. eigenvalues --   -0.32411  -0.32388  -0.29325  -0.28899  -0.26491
 Alpha  occ. eigenvalues --   -0.25538  -0.25029  -0.24905  -0.24713  -0.21254
 Alpha  occ. eigenvalues --   -0.19273
 Alpha virt. eigenvalues --   -0.06591  -0.02487  -0.00678   0.00230   0.00476
 Alpha virt. eigenvalues --    0.02414   0.03745   0.07801   0.08256   0.09327
 Alpha virt. eigenvalues --    0.10468   0.10934   0.11715   0.12066   0.12752

 Mulliken charges:
               1
     1  C   -0.442232
     2  C   -0.080947
     3  C   -0.446014
     4  C   -0.146440
     5  N   -0.586780
     6  C    0.582322
     7  O   -0.538925
     8  C    0.063376
     9  C   -0.296130
    10  C    0.178368
    11  C   -0.202696
    12  C   -0.196685
    13  C    0.382051
    14  O   -0.517283
    15  C   -0.129532
    16  C    0.071219
    17  C   -0.169704
    18  C   -0.125517
    19  C   -0.130206
    20  C   -0.187526
    21  C    0.329209
    22  F   -0.300629
    23  C   -0.187232
    24  C   -0.190297
    25  C    0.057249
    26  C   -0.211652
    27  C   -0.137361
    28  C   -0.143460
    29  C   -0.177544
    30  C    0.330484
    31  H    0.155164
    32  H    0.137957
    33  H    0.153642
    34  H    0.131817
    35  H    0.138859
    36  H    0.146213
    37  H    0.146958
    38  H    0.144670
    39  H    0.178354
    40  H    0.138705
    41  H    0.133183
    42  H    0.148627
    43  H    0.173426
    44  H    0.170223
    45  H    0.151565
    46  H    0.139759
    47  H    0.143326
    48  H    0.150582
    49  H    0.142473
    50  H    0.210636
    51  H    0.129802
    52  H    0.124215
    53  H    0.127664
    54  H    0.132695
 Sum of Mulliken charges =  -0.00000

 Dipole moment (field-independent basis, Debye):
    X=              1.9365    Y=              0.9466    Z=              1.6688  Tot=              2.7260
 Quadrupole moment (field-independent basis, Debye-Ang):
   XX=           -138.3540   YY=           -166.6245   ZZ=           -172.0110
   XY=             -1.7842   XZ=              4.4897   YZ=              0.1094

 Normal termination of Gaussian 16 at Fri Nov  4 22:54:44 2022.
