 Gaussian 16, Revision B.01,
 Gaussian 16:  ES64L-G16RevB.01 20-Dec-2017

 -------------------------------------------------------------------
 #p b3lyp/6-31g(d) 6D 10F nosymm GFInput td=(50-50,nstate=2) SCF=XQC
 -------------------------------------------------------------------

 ------------------------------
 Gaussian input prepared by ASE
 ------------------------------
 Symbolic Z-matrix:
 Charge =  0 Multiplicity = 1

                          Input orientation:
 ---------------------------------------------------------------------
 Center     Atomic      Atomic             Coordinates (Angstroms)
 Number     Number       Type             X           Y           Z
 ---------------------------------------------------------------------
      1          6           0       -1.492712    3.134624   -0.240133
      2          6           0       -1.793038    1.693026   -0.584782
      3          6           0       -2.496539    1.361975   -1.746619
      4          6           0       -2.808635    0.033090   -2.062756
      5          6           0       -3.585187   -0.297117   -3.317205
      6          6           0       -2.394019   -0.973989   -1.188577
      7          6           0       -1.677311   -0.677657   -0.017141
      8          6           0       -1.276092   -1.775626    0.903737
      9          6           0       -2.228748   -2.734370    1.279216
     10          6           0       -1.917176   -3.783061    2.142359
     11          6           0       -0.624203   -3.897561    2.656862
     12          6           0        0.342781   -2.966355    2.297164
     13          6           0        0.042481   -1.902271    1.421462
     14          6           0        1.093218   -1.011059    1.055307
     15          6           0        2.024184   -0.285173    0.761459
     16          6           0        3.074501    0.600256    0.384877
     17          6           0        2.860182    1.569467   -0.616927
     18          6           0        3.883239    2.438993   -0.984369
     19          6           0        5.133281    2.360125   -0.364698
     20          6           0        5.356005    1.402670    0.628203
     21          6           0        4.339148    0.528528    1.002560
     22          6           0       -1.386209    0.661833    0.270592
     23          1           0       -2.152524    3.499459    0.558083
     24          1           0       -1.632203    3.790462   -1.105724
     25          1           0       -0.462779    3.255869    0.114709
     26          1           0       -2.808125    2.156317   -2.423141
     27          1           0       -3.221632    0.277035   -4.177215
     28          1           0       -3.510200   -1.360495   -3.566247
     29          1           0       -4.651277   -0.060902   -3.200369
     30          1           0       -2.605966   -2.012474   -1.431412
     31          1           0       -3.241280   -2.634660    0.898491
     32          1           0       -2.683649   -4.502145    2.418361
     33          1           0       -0.370072   -4.708825    3.333397
     34          1           0        1.355479   -3.050689    2.679350
     35          1           0        1.888016    1.622973   -1.097485
     36          1           0        3.705513    3.180775   -1.758503
     37          1           0        5.929576    3.040236   -0.654596
     38          1           0        6.326515    1.336698    1.112756
     39          1           0        4.509132   -0.216288    1.774052
     40          1           0       -0.843680    0.906305    1.178940
 ---------------------------------------------------------------------

 SCF Done:  E(RB3LYP) =  -849.152397816     A.U. after   15 cycles

 Excitation energies and oscillator strengths:

 Excited state symmetry could not be determined.
 Excited State   1:      Triplet-?Sym    2.6178 eV  473.61 nm  f=0.0000  <S**2>=2.000
      72 -> 78        -0.11099
      74 -> 76        -0.10383
      74 -> 77         0.12190
      75 -> 76         0.65758
 This state for optimization and/or second-order correction.
 Total Energy, E(TD-HF/TD-DFT) =  -849.056193982
 Copying the excited state density for this state as the 1-particle RhoCI density.

 Excited state symmetry could not be determined.
 Excited State   2:      Triplet-?Sym    3.3945 eV  365.25 nm  f=0.0000  <S**2>=2.000
      69 -> 76         0.11674
      70 -> 81         0.12326
      72 -> 78         0.12414
      73 -> 76        -0.11433
      73 -> 79         0.24974
      74 -> 76         0.31454
      74 -> 77         0.30986
      74 -> 81         0.10958
      75 -> 77         0.32360
      75 -> 80        -0.15342

 Excited state symmetry could not be determined.
 Excited State   3:      Singlet-?Sym    3.8954 eV  318.28 nm  f=0.5442  <S**2>=0.000
      74 -> 76         0.12250
      75 -> 76         0.68611

 Excited state symmetry could not be determined.
 Excited State   4:      Singlet-?Sym    4.2550 eV  291.38 nm  f=0.0476  <S**2>=0.000
      74 -> 76         0.55928
      75 -> 77        -0.39637

 Alpha  occ. eigenvalues --  -10.21335 -10.21251 -10.20297 -10.19381 -10.19354
 Alpha  occ. eigenvalues --  -10.19321 -10.19295 -10.19277 -10.19235 -10.19230
 Alpha  occ. eigenvalues --  -10.19203 -10.19160 -10.19143 -10.19115 -10.18987
 Alpha  occ. eigenvalues --  -10.18395 -10.18162 -10.18095 -10.17992 -10.17940
 Alpha  occ. eigenvalues --  -10.17869 -10.17783  -0.86870  -0.85801  -0.84707
 Alpha  occ. eigenvalues --   -0.78626  -0.77850  -0.77478  -0.76152  -0.74650
 Alpha  occ. eigenvalues --   -0.72772  -0.70817  -0.68537  -0.67530  -0.63372
 Alpha  occ. eigenvalues --   -0.61730  -0.60570  -0.60436  -0.57143  -0.56509
 Alpha  occ. eigenvalues --   -0.53793  -0.52129  -0.49295  -0.48144  -0.47180
 Alpha  occ. eigenvalues --   -0.47040  -0.45286  -0.44855  -0.43811  -0.43080
 Alpha  occ. eigenvalues --   -0.42333  -0.42231  -0.41832  -0.40938  -0.40796
 Alpha  occ. eigenvalues --   -0.39710  -0.39232  -0.38195  -0.37417  -0.36884
 Alpha  occ. eigenvalues --   -0.36432  -0.35761  -0.35318  -0.34776  -0.33668
 Alpha  occ. eigenvalues --   -0.33019  -0.32923  -0.31103  -0.26957  -0.26145
 Alpha  occ. eigenvalues --   -0.26003  -0.25267  -0.23045  -0.22726  -0.20420
 Alpha virt. eigenvalues --   -0.04663  -0.01652  -0.00117   0.00644   0.00905
 Alpha virt. eigenvalues --    0.02597   0.05885   0.09062   0.10041   0.10325
 Alpha virt. eigenvalues --    0.10879   0.11939   0.13165   0.13645   0.14131

 Mulliken charges:
               1
     1  C   -0.532596
     2  C    0.175048
     3  C   -0.234634
     4  C    0.183679
     5  C   -0.531154
     6  C   -0.229545
     7  C    0.087034
     8  C    0.091834
     9  C   -0.197832
    10  C   -0.119333
    11  C   -0.139208
    12  C   -0.133401
    13  C   -0.030616
    14  C    0.011508
    15  C   -0.093290
    16  C    0.016833
    17  C   -0.138538
    18  C   -0.134185
    19  C   -0.125317
    20  C   -0.129741
    21  C   -0.141168
    22  C   -0.213731
    23  H    0.164803
    24  H    0.152156
    25  H    0.163132
    26  H    0.112231
    27  H    0.158253
    28  H    0.155742
    29  H    0.163056
    30  H    0.123219
    31  H    0.137895
    32  H    0.132232
    33  H    0.132875
    34  H    0.141162
    35  H    0.151187
    36  H    0.133040
    37  H    0.131968
    38  H    0.132767
    39  H    0.138264
    40  H    0.134367
 Sum of Mulliken charges =  -0.00000

 Dipole moment (field-independent basis, Debye):
    X=             -0.1895    Y=              0.4049    Z=             -0.2464  Tot=              0.5104
 Quadrupole moment (field-independent basis, Debye-Ang):
   XX=           -115.1394   YY=           -116.5721   ZZ=           -122.4930
   XY=              5.4701   XZ=              4.7478   YZ=             -7.6304

 Normal termination of Gaussian 16 at Sat Nov  5 09:39:20 2022.
