 Gaussian 16, Revision B.01,
 Gaussian 16:  ES64L-G16RevB.01 20-Dec-2017

 -----------------------------
 #p b3lyp/6-31g(d) opt SCF=XQC
 -----------------------------

 ------------------------------
 Gaussian input prepared by ASE
 ------------------------------
 Symbolic Z-matrix:
 Charge =  0 Multiplicity = 1

 SCF Done:  E(RB3LYP) =  -849.146771355     A.U. after   15 cycles
 SCF Done:  E(RB3LYP) =  -849.150895517     A.U. after   15 cycles
 SCF Done:  E(RB3LYP) =  -849.150876877     A.U. after   15 cycles
 SCF Done:  E(RB3LYP) =  -849.151993031     A.U. after   13 cycles
 SCF Done:  E(RB3LYP) =  -849.152362856     A.U. after   12 cycles
 SCF Done:  E(RB3LYP) =  -849.152374819     A.U. after   11 cycles
 SCF Done:  E(RB3LYP) =  -849.152374008     A.U. after   11 cycles
 SCF Done:  E(RB3LYP) =  -849.152381267     A.U. after   10 cycles
 SCF Done:  E(RB3LYP) =  -849.152383121     A.U. after    9 cycles
 SCF Done:  E(RB3LYP) =  -849.152384941     A.U. after    9 cycles
 SCF Done:  E(RB3LYP) =  -849.152390415     A.U. after   10 cycles
 SCF Done:  E(RB3LYP) =  -849.152394862     A.U. after   10 cycles
 SCF Done:  E(RB3LYP) =  -849.152396442     A.U. after   10 cycles
 SCF Done:  E(RB3LYP) =  -849.152396723     A.U. after    8 cycles
 SCF Done:  E(RB3LYP) =  -849.152396791     A.U. after    8 cycles
 Optimization completed.
    -- Stationary point found.

                         Standard orientation:
 ---------------------------------------------------------------------
 Center     Atomic      Atomic             Coordinates (Angstroms)
 Number     Number       Type             X           Y           Z
 ---------------------------------------------------------------------
      1          6           0       -0.181590    3.071901    2.035272
      2          6           0       -1.056344    2.332939    1.047383
      3          6           0       -1.885679    3.026223    0.160853
      4          6           0       -2.724147    2.354282   -0.738452
      5          6           0       -3.624035    3.127441   -1.675545
      6          6           0       -2.714549    0.957785   -0.740918
      7          6           0       -1.886810    0.229552    0.129868
      8          6           0       -1.924196   -1.258050    0.116741
      9          6           0       -3.165774   -1.910232    0.146288
     10          6           0       -3.267625   -3.299998    0.141574
     11          6           0       -2.110402   -4.080501    0.106195
     12          6           0       -0.866202   -3.462280    0.069405
     13          6           0       -0.748386   -2.056781    0.069721
     14          6           0        0.555748   -1.487723   -0.018517
     15          6           0        1.686753   -1.048778   -0.108568
     16          6           0        2.987682   -0.477241   -0.208028
     17          6           0        3.139759    0.913797   -0.383529
     18          6           0        4.409767    1.476014   -0.476944
     19          6           0        5.547039    0.667781   -0.398277
     20          6           0        5.407000   -0.711613   -0.225540
     21          6           0        4.141094   -1.283303   -0.131111
     22          6           0       -1.064493    0.933060    1.019046
     23          1           0       -0.599580    3.026566    3.049587
     24          1           0       -0.082167    4.129267    1.768960
     25          1           0        0.823913    2.638255    2.083131
     26          1           0       -1.878559    4.115092    0.168465
     27          1           0       -3.098295    3.976310   -2.127715
     28          1           0       -3.998373    2.493079   -2.485405
     29          1           0       -4.496059    3.534241   -1.146317
     30          1           0       -3.340433    0.420772   -1.449597
     31          1           0       -4.066915   -1.305664    0.196862
     32          1           0       -4.246525   -3.770556    0.174293
     33          1           0       -2.176836   -5.164945    0.105636
     34          1           0        0.041396   -4.056695    0.028518
     35          1           0        2.252179    1.535849   -0.448026
     36          1           0        4.513316    2.549258   -0.613089
     37          1           0        6.536716    1.110225   -0.472165
     38          1           0        6.288191   -1.344702   -0.164432
     39          1           0        4.029125   -2.354838    0.003507
     40          1           0       -0.428755    0.382832    1.706279
 ---------------------------------------------------------------------

 The electronic state is 1-A.
 Alpha  occ. eigenvalues --  -10.21335 -10.21251 -10.20297 -10.19381 -10.19354
 Alpha  occ. eigenvalues --  -10.19321 -10.19295 -10.19277 -10.19235 -10.19230
 Alpha  occ. eigenvalues --  -10.19203 -10.19160 -10.19143 -10.19115 -10.18987
 Alpha  occ. eigenvalues --  -10.18395 -10.18162 -10.18095 -10.17992 -10.17940
 Alpha  occ. eigenvalues --  -10.17869 -10.17783  -0.86870  -0.85801  -0.84707
 Alpha  occ. eigenvalues --   -0.78626  -0.77850  -0.77478  -0.76152  -0.74650
 Alpha  occ. eigenvalues --   -0.72772  -0.70817  -0.68537  -0.67530  -0.63372
 Alpha  occ. eigenvalues --   -0.61730  -0.60570  -0.60436  -0.57143  -0.56509
 Alpha  occ. eigenvalues --   -0.53793  -0.52129  -0.49295  -0.48144  -0.47180
 Alpha  occ. eigenvalues --   -0.47040  -0.45286  -0.44855  -0.43811  -0.43080
 Alpha  occ. eigenvalues --   -0.42333  -0.42230  -0.41832  -0.40938  -0.40796
 Alpha  occ. eigenvalues --   -0.39710  -0.39232  -0.38195  -0.37417  -0.36884
 Alpha  occ. eigenvalues --   -0.36432  -0.35761  -0.35318  -0.34776  -0.33668
 Alpha  occ. eigenvalues --   -0.33019  -0.32923  -0.31103  -0.26957  -0.26145
 Alpha  occ. eigenvalues --   -0.26003  -0.25267  -0.23045  -0.22726  -0.20420
 Alpha virt. eigenvalues --   -0.04663  -0.01652  -0.00117   0.00644   0.00905
 Alpha virt. eigenvalues --    0.02597   0.05885   0.09062   0.10041   0.10325
 Alpha virt. eigenvalues --    0.10879   0.11939   0.13165   0.13645   0.14131

 Mulliken charges:
               1
     1  C   -0.532594
     2  C    0.175038
     3  C   -0.234636
     4  C    0.183682
     5  C   -0.531149
     6  C   -0.229529
     7  C    0.087000
     8  C    0.091835
     9  C   -0.197836
    10  C   -0.119329
    11  C   -0.139207
    12  C   -0.133408
    13  C   -0.030625
    14  C    0.011517
    15  C   -0.093283
    16  C    0.016830
    17  C   -0.138535
    18  C   -0.134186
    19  C   -0.125315
    20  C   -0.129744
    21  C   -0.141166
    22  C   -0.213710
    23  H    0.164803
    24  H    0.152156
    25  H    0.163133
    26  H    0.112231
    27  H    0.158251
    28  H    0.155741
    29  H    0.163055
    30  H    0.123220
    31  H    0.137896
    32  H    0.132232
    33  H    0.132875
    34  H    0.141162
    35  H    0.151187
    36  H    0.133040
    37  H    0.131968
    38  H    0.132768
    39  H    0.138264
    40  H    0.134366
 Sum of Mulliken charges =  -0.00000

 Dipole moment (field-independent basis, Debye):
    X=             -0.0199    Y=              0.5022    Z=              0.0892  Tot=              0.5104
 Quadrupole moment (field-independent basis, Debye-Ang):
   XX=           -111.2226   YY=           -112.2056   ZZ=           -130.5429
   XY=              1.6212   XZ=              2.2685   YZ=             -0.8071

 Normal termination of Gaussian 16 at Fri Nov  4 22:12:30 2022.
