 Gaussian 16, Revision B.01,
 Gaussian 16:  ES64L-G16RevB.01 20-Dec-2017

 -------------------------------------------------------------------
 #p b3lyp/6-31g(d) 6D 10F nosymm GFInput td=(50-50,nstate=2) SCF=XQC
 -------------------------------------------------------------------

 ------------------------------
 Gaussian input prepared by ASE
 ------------------------------
 Symbolic Z-matrix:
 Charge =  0 Multiplicity = 1

                          Input orientation:
 ---------------------------------------------------------------------
 Center     Atomic      Atomic             Coordinates (Angstroms)
 Number     Number       Type             X           Y           Z
 ---------------------------------------------------------------------
      1          6           0        4.646810   -1.699489    1.731579
      2          6           0        3.161584   -1.381102    1.534842
      3          7           0        2.875495   -0.713069    0.253065
      4          6           0        2.685750   -1.569975   -0.928675
      5          6           0        1.240404   -1.948446   -1.312218
      6          6           0        0.345524   -2.547169   -0.212894
      7          6           0       -0.368538   -1.544174    0.720129
      8          7           0       -1.359972   -0.665737    0.068374
      9          6           0       -2.518994   -1.123947   -0.526628
     10          8           0       -3.305098   -0.369502   -1.101126
     11          6           0       -2.872240   -2.590236   -0.460390
     12          6           0       -3.135634   -3.263536   -1.661401
     13          6           0       -3.565521   -4.589036   -1.647220
     14          6           0       -3.772167   -5.246607   -0.431677
     15          6           0       -3.549548   -4.570032    0.768142
     16          6           0       -3.097499   -3.249176    0.754928
     17          6           0       -1.285440    0.805607    0.221804
     18          6           0       -1.887142    1.245192    1.585467
     19          6           0       -2.235464    2.718267    1.650021
     20          6           0       -3.301845    3.216234    0.885399
     21          6           0       -3.636108    4.569204    0.925407
     22          6           0       -2.909914    5.448863    1.732439
     23          6           0       -1.848693    4.965106    2.497802
     24          6           0       -1.515531    3.609292    2.455273
     25          6           0        0.100312    1.407800    0.022196
     26          8           0        0.546923    1.081808   -1.298118
     27          6           0        1.740642    1.612972   -1.735738
     28          6           0        1.689348    2.370855   -2.910165
     29          6           0        2.853246    2.903397   -3.458643
     30          6           0        4.079325    2.702604   -2.820735
     31          6           0        4.127234    1.957870   -1.645225
     32          6           0        2.972742    1.375155   -1.100981
     33          6           0        3.140164    0.633514    0.205428
     34          8           0        3.526835    1.249761    1.199910
     35          1           0        5.230265   -0.775347    1.745166
     36          1           0        5.029045   -2.346439    0.933242
     37          1           0        4.798768   -2.217767    2.685462
     38          1           0        2.819012   -0.722891    2.336198
     39          1           0        2.567683   -2.298316    1.570753
     40          1           0        3.154060   -1.081593   -1.788086
     41          1           0        3.260836   -2.485988   -0.741786
     42          1           0        1.338886   -2.688543   -2.118481
     43          1           0        0.736394   -1.082548   -1.744786
     44          1           0       -0.415873   -3.170624   -0.689412
     45          1           0        0.921322   -3.231465    0.426259
     46          1           0        0.369268   -0.890595    1.185921
     47          1           0       -0.836169   -2.105507    1.535967
     48          1           0       -3.006824   -2.735152   -2.601249
     49          1           0       -3.752709   -5.105589   -2.584805
     50          1           0       -4.116375   -6.277247   -0.420615
     51          1           0       -3.732262   -5.067242    1.717055
     52          1           0       -2.948161   -2.724323    1.694489
     53          1           0       -1.923289    1.194789   -0.571900
     54          1           0       -2.796819    0.652331    1.735324
     55          1           0       -1.198102    0.983443    2.399535
     56          1           0       -3.871244    2.532648    0.258888
     57          1           0       -4.466857    4.937068    0.328753
     58          1           0       -3.171536    6.503163    1.765045
     59          1           0       -1.278680    5.640716    3.130269
     60          1           0       -0.688425    3.238826    3.057330
     61          1           0        0.815140    1.067671    0.778416
     62          1           0        0.014594    2.496469    0.122232
     63          1           0        0.720195    2.529669   -3.372674
     64          1           0        2.799426    3.486772   -4.373776
     65          1           0        4.990038    3.129283   -3.230818
     66          1           0        5.071405    1.812063   -1.128290
 ---------------------------------------------------------------------

 SCF Done:  E(RB3LYP) =  -1459.54049620     A.U. after   15 cycles

 Excitation energies and oscillator strengths:

 Excited state symmetry could not be determined.
 Excited State   1:      Triplet-?Sym    3.6141 eV  343.06 nm  f=0.0000  <S**2>=2.000
     113 ->124        -0.25808
     116 ->126         0.11611
     118 ->124        -0.21948
     118 ->126         0.23868
     119 ->126        -0.16226
     121 ->124         0.24019
     122 ->124         0.34229
     122 ->126         0.22088
 This state for optimization and/or second-order correction.
 Total Energy, E(TD-HF/TD-DFT) =  -1459.40768015
 Copying the excited state density for this state as the 1-particle RhoCI density.

 Excited state symmetry could not be determined.
 Excited State   2:      Triplet-?Sym    3.6163 eV  342.85 nm  f=0.0000  <S**2>=2.000
     114 ->123        -0.26846
     114 ->130        -0.11468
     115 ->123        -0.13008
     115 ->125        -0.36662
     119 ->123         0.14166
     120 ->123         0.41293
     121 ->123        -0.14344

 Excited state symmetry could not be determined.
 Excited State   3:      Singlet-?Sym    4.6976 eV  263.93 nm  f=0.0523  <S**2>=0.000
     114 ->123         0.20680
     120 ->123         0.48446
     120 ->130        -0.15140
     121 ->123        -0.32917
     122 ->123         0.24264

 Excited state symmetry could not be determined.
 Excited State   4:      Singlet-?Sym    4.8641 eV  254.89 nm  f=0.0266  <S**2>=0.000
     113 ->124         0.21029
     118 ->124        -0.21263
     118 ->129         0.14525
     121 ->124         0.33226
     121 ->129        -0.10151
     122 ->124         0.47418
     122 ->129        -0.13078

 Alpha  occ. eigenvalues --  -19.17024 -19.11015 -19.11002 -14.36411 -14.36304
 Alpha  occ. eigenvalues --  -10.28595 -10.28468 -10.25104 -10.24004 -10.22632
 Alpha  occ. eigenvalues --  -10.22563 -10.22419 -10.22122 -10.20426 -10.20204
 Alpha  occ. eigenvalues --  -10.20020 -10.19805 -10.19732 -10.19661 -10.19648
 Alpha  occ. eigenvalues --  -10.19589 -10.19581 -10.19362 -10.19270 -10.19100
 Alpha  occ. eigenvalues --  -10.19029 -10.18941 -10.18614 -10.18559 -10.18510
 Alpha  occ. eigenvalues --  -10.18474 -10.18240 -10.18147 -10.17954  -1.05748
 Alpha  occ. eigenvalues --   -1.03009  -1.02880  -0.93071  -0.92818  -0.86017
 Alpha  occ. eigenvalues --   -0.85590  -0.85129  -0.80448  -0.78713  -0.77059
 Alpha  occ. eigenvalues --   -0.76150  -0.75678  -0.75120  -0.75062  -0.73862
 Alpha  occ. eigenvalues --   -0.72875  -0.72358  -0.68208  -0.66601  -0.65207
 Alpha  occ. eigenvalues --   -0.64352  -0.61527  -0.61205  -0.60576  -0.60331
 Alpha  occ. eigenvalues --   -0.59939  -0.59463  -0.57492  -0.55137  -0.54126
 Alpha  occ. eigenvalues --   -0.52854  -0.51693  -0.51030  -0.50647  -0.49949
 Alpha  occ. eigenvalues --   -0.49359  -0.48576  -0.47699  -0.46769  -0.46277
 Alpha  occ. eigenvalues --   -0.46099  -0.45508  -0.45259  -0.44722  -0.44535
 Alpha  occ. eigenvalues --   -0.43919  -0.43815  -0.43004  -0.42635  -0.42273
 Alpha  occ. eigenvalues --   -0.41598  -0.41558  -0.41018  -0.40709  -0.40234
 Alpha  occ. eigenvalues --   -0.40152  -0.39683  -0.39368  -0.38409  -0.37931
 Alpha  occ. eigenvalues --   -0.37640  -0.36864  -0.36606  -0.36419  -0.36337
 Alpha  occ. eigenvalues --   -0.35670  -0.35558  -0.35195  -0.34836  -0.34709
 Alpha  occ. eigenvalues --   -0.34359  -0.33888  -0.33645  -0.33533  -0.33083
 Alpha  occ. eigenvalues --   -0.32233  -0.28930  -0.26629  -0.26437  -0.25700
 Alpha  occ. eigenvalues --   -0.24832  -0.24472  -0.24258  -0.23782  -0.23655
 Alpha  occ. eigenvalues --   -0.23081  -0.22889
 Alpha virt. eigenvalues --   -0.02274  -0.01742  -0.00775  -0.00104   0.00096
 Alpha virt. eigenvalues --    0.00421   0.03262   0.03712   0.07462   0.08244
 Alpha virt. eigenvalues --    0.08539   0.09371   0.09662   0.10545   0.11164

 Mulliken charges:
               1
     1  C   -0.451943
     2  C   -0.147183
     3  N   -0.400291
     4  C   -0.160306
     5  C   -0.277523
     6  C   -0.281134
     7  C   -0.152481
     8  N   -0.434047
     9  C    0.509107
    10  O   -0.512636
    11  C    0.061634
    12  C   -0.148305
    13  C   -0.134645
    14  C   -0.123614
    15  C   -0.134013
    16  C   -0.161509
    17  C   -0.009883
    18  C   -0.361660
    19  C    0.162823
    20  C   -0.188187
    21  C   -0.129494
    22  C   -0.130077
    23  C   -0.127466
    24  C   -0.189536
    25  C   -0.058136
    26  O   -0.545259
    27  C    0.328429
    28  C   -0.167357
    29  C   -0.133946
    30  C   -0.130291
    31  C   -0.171395
    32  C    0.041687
    33  C    0.495424
    34  O   -0.526573
    35  H    0.180521
    36  H    0.143588
    37  H    0.146488
    38  H    0.173887
    39  H    0.144105
    40  H    0.165619
    41  H    0.146369
    42  H    0.131319
    43  H    0.195624
    44  H    0.162527
    45  H    0.130530
    46  H    0.166420
    47  H    0.146869
    48  H    0.150100
    49  H    0.136106
    50  H    0.134095
    51  H    0.134089
    52  H    0.138154
    53  H    0.202071
    54  H    0.164362
    55  H    0.139389
    56  H    0.153587
    57  H    0.131628
    58  H    0.128508
    59  H    0.130458
    60  H    0.127332
    61  H    0.157657
    62  H    0.166027
    63  H    0.145604
    64  H    0.136337
    65  H    0.133189
    66  H    0.147230
 Sum of Mulliken charges =  -0.00000

 Dipole moment (field-independent basis, Debye):
    X=              1.4508    Y=             -3.2036    Z=              0.0376  Tot=              3.5170
 Quadrupole moment (field-independent basis, Debye-Ang):
   XX=           -206.7855   YY=           -180.2868   ZZ=           -191.9837
   XY=             -2.0870   XZ=            -10.0293   YZ=             -5.8715

 Normal termination of Gaussian 16 at Sat Nov  5 09:57:44 2022.
