 Gaussian 16, Revision B.01,
 Gaussian 16:  ES64L-G16RevB.01 20-Dec-2017

 -----------------------------
 #p b3lyp/6-31g(d) opt SCF=XQC
 -----------------------------

 ------------------------------
 Gaussian input prepared by ASE
 ------------------------------
 Symbolic Z-matrix:
 Charge =  0 Multiplicity = 1

 SCF Done:  E(RB3LYP) =  -1459.52803495     A.U. after   15 cycles
 SCF Done:  E(RB3LYP) =  -1459.53564402     A.U. after   13 cycles
 SCF Done:  E(RB3LYP) =  -1459.53764393     A.U. after   12 cycles
 SCF Done:  E(RB3LYP) =  -1459.53870001     A.U. after   12 cycles
 SCF Done:  E(RB3LYP) =  -1459.53941173     A.U. after   12 cycles
 SCF Done:  E(RB3LYP) =  -1459.53996646     A.U. after   12 cycles
 SCF Done:  E(RB3LYP) =  -1459.54032933     A.U. after   12 cycles
 SCF Done:  E(RB3LYP) =  -1459.54045144     A.U. after   11 cycles
 SCF Done:  E(RB3LYP) =  -1459.54048138     A.U. after   10 cycles
 SCF Done:  E(RB3LYP) =  -1459.54049049     A.U. after   10 cycles
 SCF Done:  E(RB3LYP) =  -1459.54049523     A.U. after    8 cycles
 SCF Done:  E(RB3LYP) =  -1459.54049712     A.U. after    8 cycles
 SCF Done:  E(RB3LYP) =  -1459.54049794     A.U. after    8 cycles
 SCF Done:  E(RB3LYP) =  -1459.54049834     A.U. after    7 cycles
 SCF Done:  E(RB3LYP) =  -1459.54049862     A.U. after    7 cycles
 SCF Done:  E(RB3LYP) =  -1459.54049885     A.U. after    8 cycles
 SCF Done:  E(RB3LYP) =  -1459.54049895     A.U. after    8 cycles
 SCF Done:  E(RB3LYP) =  -1459.54049897     A.U. after    7 cycles
 SCF Done:  E(RB3LYP) =  -1459.54049897     A.U. after    7 cycles
 Optimization completed.
    -- Stationary point found.

                         Standard orientation:
 ---------------------------------------------------------------------
 Center     Atomic      Atomic             Coordinates (Angstroms)
 Number     Number       Type             X           Y           Z
 ---------------------------------------------------------------------
      1          6           0       -2.216650   -3.962121   -2.974355
      2          6           0       -1.334688   -2.827375   -2.444767
      3          7           0       -1.633856   -2.462143   -1.048998
      4          6           0       -0.982947   -3.249768    0.010609
      5          6           0        0.324179   -2.694721    0.612867
      6          6           0        1.445839   -2.298329   -0.363117
      7          6           0        1.356699   -0.885833   -0.982247
      8          7           0        1.474506    0.234347   -0.027945
      9          6           0        2.610887    0.497658    0.711393
     10          8           0        2.662677    1.414429    1.532396
     11          6           0        3.854430   -0.333141    0.505120
     12          6           0        4.436713   -0.944042    1.624443
     13          6           0        5.640693   -1.635347    1.504086
     14          6           0        6.295846   -1.693942    0.271208
     15          6           0        5.741638   -1.054880   -0.838446
     16          6           0        4.524325   -0.380899   -0.724068
     17          6           0        0.446259    1.299364    0.021007
     18          6           0        0.671510    2.330888   -1.119203
     19          6           0       -0.048073    3.646103   -0.900445
     20          6           0        0.373222    4.508976    0.123151
     21          6           0       -0.278028    5.721514    0.345599
     22          6           0       -1.362478    6.093570   -0.453150
     23          6           0       -1.789370    5.244562   -1.474396
     24          6           0       -1.135536    4.030046   -1.694592
     25          6           0       -0.995983    0.806747    0.028268
     26          8           0       -1.179377   -0.032269    1.173424
     27          6           0       -2.443841   -0.510979    1.439090
     28          6           0       -2.971920   -0.204414    2.697440
     29          6           0       -4.220888   -0.689536    3.076682
     30          6           0       -4.965613   -1.467373    2.187374
     31          6           0       -4.443726   -1.761900    0.930539
     32          6           0       -3.168528   -1.320490    0.546305
     33          6           0       -2.730771   -1.657855   -0.860578
     34          8           0       -3.377422   -1.216754   -1.812179
     35          1           0       -3.265836   -3.655812   -2.969151
     36          1           0       -2.111104   -4.870080   -2.368995
     37          1           0       -1.934604   -4.210441   -4.004105
     38          1           0       -1.477078   -1.935800   -3.059250
     39          1           0       -0.279781   -3.110124   -2.494909
     40          1           0       -1.701390   -3.397032    0.822132
     41          1           0       -0.790261   -4.242436   -0.416256
     42          1           0        0.702405   -3.491404    1.268414
     43          1           0        0.099282   -1.842778    1.256712
     44          1           0        2.402853   -2.381607    0.159070
     45          1           0        1.507032   -3.013999   -1.195218
     46          1           0        0.396590   -0.768015   -1.485033
     47          1           0        2.121002   -0.802756   -1.762186
     48          1           0        3.939879   -0.864359    2.586681
     49          1           0        6.075507   -2.117401    2.375575
     50          1           0        7.239398   -2.225100    0.179552
     51          1           0        6.258246   -1.075162   -1.794346
     52          1           0        4.112225    0.131879   -1.588810
     53          1           0        0.619900    1.801955    0.972601
     54          1           0        1.750936    2.514293   -1.170744
     55          1           0        0.375914    1.893647   -2.082239
     56          1           0        1.219756    4.223242    0.744245
     57          1           0        0.063503    6.378810    1.141076
     58          1           0       -1.869037    7.039514   -0.280967
     59          1           0       -2.630734    5.525494   -2.102537
     60          1           0       -1.472343    3.374464   -2.494965
     61          1           0       -1.261513    0.281898   -0.895075
     62          1           0       -1.652751    1.681544    0.105343
     63          1           0       -2.381150    0.420461    3.359948
     64          1           0       -4.617290   -0.447057    4.058904
     65          1           0       -5.948553   -1.835109    2.467054
     66          1           0       -5.021763   -2.348306    0.222060
 ---------------------------------------------------------------------

 The electronic state is 1-A.
 Alpha  occ. eigenvalues --  -19.17024 -19.11015 -19.11002 -14.36411 -14.36303
 Alpha  occ. eigenvalues --  -10.28595 -10.28468 -10.25104 -10.24004 -10.22632
 Alpha  occ. eigenvalues --  -10.22563 -10.22419 -10.22122 -10.20426 -10.20204
 Alpha  occ. eigenvalues --  -10.20020 -10.19805 -10.19732 -10.19661 -10.19649
 Alpha  occ. eigenvalues --  -10.19589 -10.19582 -10.19362 -10.19270 -10.19100
 Alpha  occ. eigenvalues --  -10.19029 -10.18941 -10.18614 -10.18559 -10.18510
 Alpha  occ. eigenvalues --  -10.18474 -10.18240 -10.18147 -10.17954  -1.05748
 Alpha  occ. eigenvalues --   -1.03009  -1.02880  -0.93071  -0.92818  -0.86017
 Alpha  occ. eigenvalues --   -0.85590  -0.85129  -0.80448  -0.78713  -0.77059
 Alpha  occ. eigenvalues --   -0.76150  -0.75678  -0.75120  -0.75062  -0.73862
 Alpha  occ. eigenvalues --   -0.72875  -0.72358  -0.68208  -0.66601  -0.65207
 Alpha  occ. eigenvalues --   -0.64352  -0.61527  -0.61205  -0.60576  -0.60331
 Alpha  occ. eigenvalues --   -0.59939  -0.59463  -0.57492  -0.55137  -0.54126
 Alpha  occ. eigenvalues --   -0.52854  -0.51693  -0.51030  -0.50647  -0.49949
 Alpha  occ. eigenvalues --   -0.49359  -0.48577  -0.47699  -0.46769  -0.46277
 Alpha  occ. eigenvalues --   -0.46099  -0.45508  -0.45259  -0.44722  -0.44535
 Alpha  occ. eigenvalues --   -0.43919  -0.43815  -0.43004  -0.42635  -0.42273
 Alpha  occ. eigenvalues --   -0.41598  -0.41558  -0.41018  -0.40709  -0.40234
 Alpha  occ. eigenvalues --   -0.40152  -0.39682  -0.39368  -0.38409  -0.37931
 Alpha  occ. eigenvalues --   -0.37640  -0.36864  -0.36606  -0.36419  -0.36337
 Alpha  occ. eigenvalues --   -0.35670  -0.35558  -0.35195  -0.34836  -0.34709
 Alpha  occ. eigenvalues --   -0.34359  -0.33888  -0.33645  -0.33533  -0.33083
 Alpha  occ. eigenvalues --   -0.32233  -0.28930  -0.26629  -0.26437  -0.25700
 Alpha  occ. eigenvalues --   -0.24832  -0.24472  -0.24258  -0.23782  -0.23655
 Alpha  occ. eigenvalues --   -0.23081  -0.22889
 Alpha virt. eigenvalues --   -0.02274  -0.01742  -0.00775  -0.00104   0.00096
 Alpha virt. eigenvalues --    0.00421   0.03262   0.03712   0.07462   0.08243
 Alpha virt. eigenvalues --    0.08539   0.09371   0.09662   0.10545   0.11164

 Mulliken charges:
               1
     1  C   -0.451940
     2  C   -0.147184
     3  N   -0.400285
     4  C   -0.160344
     5  C   -0.277506
     6  C   -0.281165
     7  C   -0.152458
     8  N   -0.434071
     9  C    0.509154
    10  O   -0.512642
    11  C    0.061608
    12  C   -0.148312
    13  C   -0.134646
    14  C   -0.123603
    15  C   -0.134027
    16  C   -0.161491
    17  C   -0.009867
    18  C   -0.361670
    19  C    0.162849
    20  C   -0.188205
    21  C   -0.129492
    22  C   -0.130067
    23  C   -0.127470
    24  C   -0.189548
    25  C   -0.058153
    26  O   -0.545256
    27  C    0.328415
    28  C   -0.167353
    29  C   -0.133951
    30  C   -0.130297
    31  C   -0.171379
    32  C    0.041719
    33  C    0.495410
    34  O   -0.526577
    35  H    0.180520
    36  H    0.143590
    37  H    0.146488
    38  H    0.173887
    39  H    0.144106
    40  H    0.165625
    41  H    0.146371
    42  H    0.131319
    43  H    0.195631
    44  H    0.162534
    45  H    0.130536
    46  H    0.166419
    47  H    0.146863
    48  H    0.150098
    49  H    0.136106
    50  H    0.134095
    51  H    0.134090
    52  H    0.138154
    53  H    0.202068
    54  H    0.164363
    55  H    0.139389
    56  H    0.153588
    57  H    0.131627
    58  H    0.128506
    59  H    0.130457
    60  H    0.127333
    61  H    0.157660
    62  H    0.166028
    63  H    0.145600
    64  H    0.136336
    65  H    0.133189
    66  H    0.147228
 Sum of Mulliken charges =  -0.00000

 Dipole moment (field-independent basis, Debye):
    X=              1.0587    Y=             -3.2608    Z=             -0.7850  Tot=              3.5171
 Quadrupole moment (field-independent basis, Debye-Ang):
   XX=           -195.8246   YY=           -187.7407   ZZ=           -194.1777
   XY=             -9.8882   XZ=            -14.4682   YZ=             -1.3513

 Normal termination of Gaussian 16 at Fri Nov  4 22:49:17 2022.
