 Gaussian 16, Revision B.01,
 Gaussian 16:  ES64L-G16RevB.01 20-Dec-2017

 -------------------------------------------------------------------
 #p b3lyp/6-31g(d) 6D 10F nosymm GFInput td=(50-50,nstate=2) SCF=XQC
 -------------------------------------------------------------------

 ------------------------------
 Gaussian input prepared by ASE
 ------------------------------
 Symbolic Z-matrix:
 Charge =  0 Multiplicity = 1

                          Input orientation:
 ---------------------------------------------------------------------
 Center     Atomic      Atomic             Coordinates (Angstroms)
 Number     Number       Type             X           Y           Z
 ---------------------------------------------------------------------
      1          6           0        4.435018    1.963262   -2.753585
      2          6           0        5.080960    0.814033   -2.038971
      3          7           0        6.111492    0.171750   -2.595588
      4          7           0        6.444741   -0.794951   -1.710918
      5          6           0        7.599507   -1.630503   -1.966421
      6          6           0        5.657021   -0.765377   -0.603353
      7          6           0        4.746923    0.263655   -0.769162
      8          6           0        3.646324    0.680712    0.165822
      9          6           0        2.277470    0.094850   -0.226650
     10          6           0        1.166736    0.546095    0.730463
     11          8           0        1.432026    1.267560    1.692559
     12          7           0       -0.131437    0.160222    0.458065
     13          6           0       -0.422365   -0.957917   -0.442107
     14          6           0       -0.482914   -2.338705    0.215420
     15          6           0        0.398925   -2.668224    1.251672
     16          6           0        0.471149   -3.958023    1.777840
     17          6           0       -0.358388   -4.953043    1.263887
     18          6           0       -1.275326   -4.633984    0.265396
     19          6           0       -1.364442   -3.335689   -0.262281
     20          7           0       -2.313255   -3.065733   -1.290218
     21          6           0       -3.515611   -2.252138   -0.958044
     22          6           0       -3.537996   -0.876600   -1.604443
     23          6           0       -3.600082   -0.813577   -3.005295
     24          6           0       -3.689538    0.393109   -3.690847
     25          6           0       -3.728871    1.585824   -2.965359
     26          6           0       -3.650628    1.552178   -1.577287
     27          6           0       -3.534228    0.335423   -0.887676
     28          8           0       -3.550336    0.427886    0.490576
     29          6           0       -2.517652   -0.060815    1.371768
     30          6           0       -1.164896    0.679817    1.397064
     31          6           0       -1.343519    2.215550    1.257872
     32          6           0       -1.954972    2.839042    2.496671
     33          6           0       -1.135700    3.134969    3.597246
     34          6           0       -1.671149    3.701265    4.754034
     35          6           0       -3.037461    3.981934    4.830759
     36          6           0       -3.862670    3.687472    3.744548
     37          6           0       -3.324959    3.118452    2.587896
     38          1           0        3.407248    1.731082   -3.061840
     39          1           0        4.387104    2.856361   -2.118297
     40          1           0        5.008618    2.209606   -3.651160
     41          1           0        7.559217   -2.505425   -1.313055
     42          1           0        7.582100   -1.955862   -3.009148
     43          1           0        8.531932   -1.084966   -1.781047
     44          1           0        5.800793   -1.463259    0.210972
     45          1           0        3.565398    1.772938    0.198013
     46          1           0        3.880284    0.374643    1.190658
     47          1           0        2.344269   -0.999617   -0.249633
     48          1           0        2.019541    0.401654   -1.248982
     49          1           0       -1.341766   -0.746524   -0.977556
     50          1           0        0.348463   -0.979548   -1.216439
     51          1           0        1.049013   -1.898035    1.656495
     52          1           0        1.172212   -4.180567    2.577145
     53          1           0       -0.313346   -5.966585    1.653185
     54          1           0       -1.954141   -5.398260   -0.108826
     55          1           0       -2.613438   -3.946030   -1.693528
     56          1           0       -4.383720   -2.804155   -1.337462
     57          1           0       -3.657740   -2.181605    0.123355
     58          1           0       -3.581468   -1.748318   -3.561077
     59          1           0       -3.741895    0.403549   -4.775754
     60          1           0       -3.818036    2.540241   -3.477041
     61          1           0       -3.689190    2.468601   -0.997858
     62          1           0       -2.969122    0.097787    2.353135
     63          1           0       -2.366885   -1.134607    1.253510
     64          1           0       -0.769197    0.497162    2.404040
     65          1           0       -0.356232    2.649431    1.095755
     66          1           0       -1.950177    2.429312    0.375643
     67          1           0       -0.072211    2.916566    3.533837
     68          1           0       -1.020323    3.928557    5.594761
     69          1           0       -3.454957    4.427476    5.730084
     70          1           0       -4.927519    3.901154    3.795277
     71          1           0       -3.974728    2.877467    1.750650
 ---------------------------------------------------------------------

 SCF Done:  E(RB3LYP) =  -1571.19596864     A.U. after   15 cycles

 Excitation energies and oscillator strengths:

 Excited state symmetry could not be determined.
 Excited State   1:      Triplet-?Sym    3.5454 eV  349.70 nm  f=0.0000  <S**2>=2.000
     121 ->135         0.13068
     123 ->133         0.13092
     123 ->134        -0.32512
     126 ->134        -0.12140
     130 ->135        -0.13855
     132 ->133         0.19993
     132 ->135         0.48460
 This state for optimization and/or second-order correction.
 Total Energy, E(TD-HF/TD-DFT) =  -1571.06567613
 Copying the excited state density for this state as the 1-particle RhoCI density.

 Excited state symmetry could not be determined.
 Excited State   2:      Triplet-?Sym    3.6392 eV  340.70 nm  f=0.0000  <S**2>=2.000
     123 ->133        -0.10970
     124 ->133        -0.36677
     124 ->134        -0.15630
     124 ->135         0.10101
     125 ->133         0.12179
     126 ->133         0.13432
     128 ->136        -0.18413
     129 ->133        -0.11415
     129 ->136         0.39915
     132 ->136        -0.11060

 Excited state symmetry could not be determined.
 Excited State   3:      Singlet-?Sym    4.7592 eV  260.52 nm  f=0.0195  <S**2>=0.000
     123 ->135        -0.17540
     132 ->133         0.50969
     132 ->134        -0.41774

 Excited state symmetry could not be determined.
 Excited State   4:      Singlet-?Sym    4.8343 eV  256.47 nm  f=0.0312  <S**2>=0.000
     123 ->135         0.10237
     132 ->133         0.45983
     132 ->134         0.50268

 Alpha  occ. eigenvalues --  -19.16818 -19.10957 -14.39848 -14.36030 -14.34338
 Alpha  occ. eigenvalues --  -14.32828 -10.28007 -10.24958 -10.24278 -10.23070
 Alpha  occ. eigenvalues --  -10.23019 -10.22634 -10.22591 -10.22414 -10.20742
 Alpha  occ. eigenvalues --  -10.20094 -10.19886 -10.19516 -10.19450 -10.19389
 Alpha  occ. eigenvalues --  -10.19386 -10.19332 -10.19327 -10.19167 -10.19098
 Alpha  occ. eigenvalues --  -10.18997 -10.18888 -10.18326 -10.18242 -10.17832
 Alpha  occ. eigenvalues --  -10.17773 -10.17723 -10.17505 -10.17496 -10.17403
 Alpha  occ. eigenvalues --  -10.17274 -10.17082  -1.04810  -1.03198  -1.02812
 Alpha  occ. eigenvalues --   -0.93360  -0.92525  -0.85718  -0.84649  -0.84172
 Alpha  occ. eigenvalues --   -0.83595  -0.79990  -0.79046  -0.77386  -0.76683
 Alpha  occ. eigenvalues --   -0.75443  -0.75336  -0.73609  -0.73008  -0.72958
 Alpha  occ. eigenvalues --   -0.72300  -0.70113  -0.68053  -0.67026  -0.66766
 Alpha  occ. eigenvalues --   -0.64063  -0.61753  -0.61301  -0.60679  -0.59123
 Alpha  occ. eigenvalues --   -0.58619  -0.57867  -0.56806  -0.56273  -0.54388
 Alpha  occ. eigenvalues --   -0.53585  -0.52760  -0.51915  -0.50626  -0.50366
 Alpha  occ. eigenvalues --   -0.49905  -0.49372  -0.48784  -0.48500  -0.47761
 Alpha  occ. eigenvalues --   -0.46797  -0.46601  -0.45793  -0.45562  -0.44602
 Alpha  occ. eigenvalues --   -0.44479  -0.44293  -0.43919  -0.43486  -0.43139
 Alpha  occ. eigenvalues --   -0.42515  -0.42240  -0.42027  -0.41736  -0.41358
 Alpha  occ. eigenvalues --   -0.41022  -0.40462  -0.40122  -0.39298  -0.39207
 Alpha  occ. eigenvalues --   -0.38502  -0.38259  -0.38085  -0.37511  -0.37409
 Alpha  occ. eigenvalues --   -0.36787  -0.36448  -0.36103  -0.36020  -0.35797
 Alpha  occ. eigenvalues --   -0.35665  -0.35163  -0.34933  -0.34354  -0.34018
 Alpha  occ. eigenvalues --   -0.33309  -0.32997  -0.32448  -0.31838  -0.29035
 Alpha  occ. eigenvalues --   -0.28124  -0.27173  -0.25289  -0.24987  -0.24679
 Alpha  occ. eigenvalues --   -0.24131  -0.23618  -0.23175  -0.23168  -0.22735
 Alpha  occ. eigenvalues --   -0.21868  -0.21567
 Alpha virt. eigenvalues --   -0.01362  -0.00982  -0.00390   0.00100   0.00971
 Alpha virt. eigenvalues --    0.01195   0.02431   0.03164   0.07055   0.07223
 Alpha virt. eigenvalues --    0.08618   0.08835   0.09341   0.09919   0.10291

 Mulliken charges:
               1
     1  C   -0.528863
     2  C    0.296228
     3  N   -0.364977
     4  N   -0.230612
     5  C   -0.303405
     6  C    0.030250
     7  C    0.009559
     8  C   -0.345498
     9  C   -0.383948
    10  C    0.608020
    11  O   -0.531016
    12  N   -0.446001
    13  C   -0.263999
    14  C    0.131610
    15  C   -0.208468
    16  C   -0.127840
    17  C   -0.135187
    18  C   -0.176020
    19  C    0.227374
    20  N   -0.629323
    21  C   -0.261669
    22  C    0.151351
    23  C   -0.174994
    24  C   -0.126654
    25  C   -0.138240
    26  C   -0.167659
    27  C    0.289787
    28  O   -0.547717
    29  C   -0.079462
    30  C    0.032055
    31  C   -0.355466
    32  C    0.138693
    33  C   -0.187431
    34  C   -0.130619
    35  C   -0.130473
    36  C   -0.131583
    37  C   -0.189944
    38  H    0.153837
    39  H    0.158536
    40  H    0.171396
    41  H    0.160617
    42  H    0.183549
    43  H    0.174294
    44  H    0.145817
    45  H    0.160290
    46  H    0.155202
    47  H    0.167068
    48  H    0.170151
    49  H    0.190487
    50  H    0.184682
    51  H    0.145092
    52  H    0.130661
    53  H    0.131698
    54  H    0.118989
    55  H    0.310808
    56  H    0.159596
    57  H    0.173401
    58  H    0.125735
    59  H    0.130526
    60  H    0.135218
    61  H    0.148734
    62  H    0.176446
    63  H    0.154493
    64  H    0.167567
    65  H    0.178954
    66  H    0.149507
    67  H    0.156404
    68  H    0.126056
    69  H    0.123372
    70  H    0.124327
    71  H    0.138626
 Sum of Mulliken charges =  -0.00000

 Dipole moment (field-independent basis, Debye):
    X=             -0.9854    Y=             -4.8309    Z=             -0.9619  Tot=              5.0233
 Quadrupole moment (field-independent basis, Debye-Ang):
   XX=           -205.1836   YY=           -201.9936   ZZ=           -216.1396
   XY=             -6.8139   XZ=             11.2215   YZ=             -2.0269

 Normal termination of Gaussian 16 at Sat Nov  5 10:02:52 2022.
