 Gaussian 16, Revision B.01,
 Gaussian 16:  ES64L-G16RevB.01 20-Dec-2017

 -----------------------------
 #p b3lyp/6-31g(d) opt SCF=XQC
 -----------------------------

 ------------------------------
 Gaussian input prepared by ASE
 ------------------------------
 Symbolic Z-matrix:
 Charge =  0 Multiplicity = 1

 SCF Done:  E(RB3LYP) =  -1571.18563427     A.U. after   15 cycles
 SCF Done:  E(RB3LYP) =  -1571.19443390     A.U. after   12 cycles
 SCF Done:  E(RB3LYP) =  -1571.19525652     A.U. after   12 cycles
 SCF Done:  E(RB3LYP) =  -1571.19572426     A.U. after   11 cycles
 SCF Done:  E(RB3LYP) =  -1571.19569762     A.U. after   12 cycles
 SCF Done:  E(RB3LYP) =  -1571.19585795     A.U. after   12 cycles
 SCF Done:  E(RB3LYP) =  -1571.19589307     A.U. after   10 cycles
 SCF Done:  E(RB3LYP) =  -1571.19590910     A.U. after   10 cycles
 SCF Done:  E(RB3LYP) =  -1571.19592458     A.U. after    9 cycles
 SCF Done:  E(RB3LYP) =  -1571.19593268     A.U. after    9 cycles
 SCF Done:  E(RB3LYP) =  -1571.19596135     A.U. after   10 cycles
 SCF Done:  E(RB3LYP) =  -1571.19594971     A.U. after   10 cycles
 SCF Done:  E(RB3LYP) =  -1571.19596874     A.U. after   10 cycles
 SCF Done:  E(RB3LYP) =  -1571.19596659     A.U. after    9 cycles
 SCF Done:  E(RB3LYP) =  -1571.19596935     A.U. after    9 cycles
 SCF Done:  E(RB3LYP) =  -1571.19596952     A.U. after    7 cycles
 SCF Done:  E(RB3LYP) =  -1571.19596962     A.U. after    7 cycles
 SCF Done:  E(RB3LYP) =  -1571.19596969     A.U. after    7 cycles
 SCF Done:  E(RB3LYP) =  -1571.19596971     A.U. after    6 cycles
 SCF Done:  E(RB3LYP) =  -1571.19596973     A.U. after    6 cycles
 Optimization completed.
    -- Stationary point found.

                         Standard orientation:
 ---------------------------------------------------------------------
 Center     Atomic      Atomic             Coordinates (Angstroms)
 Number     Number       Type             X           Y           Z
 ---------------------------------------------------------------------
      1          6           0        4.647696   -1.579658    2.895417
      2          6           0        5.285608   -1.241233    1.581197
      3          7           0        6.540595   -0.785341    1.542261
      4          7           0        6.799914   -0.576005    0.231864
      5          6           0        8.125445   -0.160430   -0.177011
      6          6           0        5.741652   -0.904620   -0.555646
      7          6           0        4.725196   -1.340023    0.276171
      8          6           0        3.343380   -1.786314   -0.112234
      9          6           0        2.292727   -0.670828    0.038928
     10          6           0        0.888126   -1.152256   -0.346740
     11          8           0        0.715602   -2.303145   -0.749493
     12          7           0       -0.171414   -0.280222   -0.187732
     13          6           0        0.040871    1.163166   -0.058304
     14          6           0        0.080710    1.946918   -1.372354
     15          6           0        0.680192    1.391965   -2.509319
     16          6           0        0.863021    2.126586   -3.680880
     17          6           0        0.435930    3.452313   -3.729716
     18          6           0       -0.205000    4.007895   -2.625137
     19          6           0       -0.404966    3.272830   -1.445457
     20          7           0       -1.057327    3.892937   -0.341070
     21          6           0       -2.444692    3.471432   -0.001235
     22          6           0       -2.564297    2.713430    1.310849
     23          6           0       -2.237790    3.396774    2.492647
     24          6           0       -2.374480    2.815072    3.748439
     25          6           0       -2.861833    1.509742    3.843568
     26          6           0       -3.175602    0.804224    2.686939
     27          6           0       -3.012762    1.383022    1.418838
     28          8           0       -3.437985    0.613155    0.353531
     29          6           0       -2.620554    0.214239   -0.766486
     30          6           0       -1.512509   -0.832189   -0.529102
     31          6           0       -1.955268   -1.924521    0.481112
     32          6           0       -3.007469   -2.850363   -0.095889
     33          6           0       -2.613116   -3.915125   -0.921001
     34          6           0       -3.559121   -4.778676   -1.473191
     35          6           0       -4.918268   -4.592293   -1.209658
     36          6           0       -5.322559   -3.534058   -0.394661
     37          6           0       -4.373916   -2.669153    0.155591
     38          1           0        3.820097   -0.900461    3.138342
     39          1           0        4.239351   -2.597875    2.894094
     40          1           0        5.389208   -1.507138    3.695569
     41          1           0        8.081698    0.216312   -1.201779
     42          1           0        8.471809    0.634942    0.486959
     43          1           0        8.834347   -0.995072   -0.129882
     44          1           0        5.788325   -0.811121   -1.632640
     45          1           0        3.034447   -2.645114    0.494037
     46          1           0        3.334432   -2.141328   -1.147893
     47          1           0        2.586275    0.189707   -0.574389
     48          1           0        2.278364   -0.309802    1.075881
     49          1           0       -0.711707    1.569508    0.608932
     50          1           0        0.987103    1.321378    0.465000
     51          1           0        1.016277    0.359606   -2.478176
     52          1           0        1.338483    1.666511   -4.542373
     53          1           0        0.575489    4.045740   -4.629282
     54          1           0       -0.577891    5.029406   -2.674289
     55          1           0       -1.043507    4.897208   -0.478690
     56          1           0       -3.036948    4.388883    0.097813
     57          1           0       -2.899208    2.911514   -0.822520
     58          1           0       -1.870917    4.417273    2.409183
     59          1           0       -2.117748    3.376228    4.642344
     60          1           0       -2.995861    1.040146    4.814237
     61          1           0       -3.564116   -0.207187    2.743167
     62          1           0       -3.354497   -0.263228   -1.418723
     63          1           0       -2.225554    1.079246   -1.300790
     64          1           0       -1.390200   -1.329421   -1.499535
     65          1           0       -1.073455   -2.511458    0.740303
     66          1           0       -2.316965   -1.446252    1.393520
     67          1           0       -1.554170   -4.058368   -1.123095
     68          1           0       -3.234724   -5.601234   -2.105824
     69          1           0       -5.655949   -5.267449   -1.635787
     70          1           0       -6.378213   -3.380156   -0.184790
     71          1           0       -4.695502   -1.837819    0.777460
 ---------------------------------------------------------------------

 The electronic state is 1-A.
 Alpha  occ. eigenvalues --  -19.16818 -19.10957 -14.39848 -14.36029 -14.34338
 Alpha  occ. eigenvalues --  -14.32828 -10.28007 -10.24958 -10.24278 -10.23070
 Alpha  occ. eigenvalues --  -10.23019 -10.22633 -10.22591 -10.22414 -10.20742
 Alpha  occ. eigenvalues --  -10.20094 -10.19886 -10.19516 -10.19450 -10.19389
 Alpha  occ. eigenvalues --  -10.19386 -10.19333 -10.19327 -10.19168 -10.19098
 Alpha  occ. eigenvalues --  -10.18997 -10.18888 -10.18326 -10.18242 -10.17832
 Alpha  occ. eigenvalues --  -10.17773 -10.17723 -10.17505 -10.17496 -10.17403
 Alpha  occ. eigenvalues --  -10.17274 -10.17082  -1.04810  -1.03198  -1.02812
 Alpha  occ. eigenvalues --   -0.93360  -0.92525  -0.85718  -0.84649  -0.84172
 Alpha  occ. eigenvalues --   -0.83595  -0.79990  -0.79046  -0.77386  -0.76683
 Alpha  occ. eigenvalues --   -0.75443  -0.75336  -0.73609  -0.73008  -0.72958
 Alpha  occ. eigenvalues --   -0.72300  -0.70113  -0.68053  -0.67026  -0.66766
 Alpha  occ. eigenvalues --   -0.64063  -0.61753  -0.61301  -0.60679  -0.59123
 Alpha  occ. eigenvalues --   -0.58619  -0.57867  -0.56806  -0.56273  -0.54388
 Alpha  occ. eigenvalues --   -0.53585  -0.52760  -0.51915  -0.50626  -0.50366
 Alpha  occ. eigenvalues --   -0.49905  -0.49372  -0.48784  -0.48500  -0.47761
 Alpha  occ. eigenvalues --   -0.46797  -0.46601  -0.45793  -0.45562  -0.44602
 Alpha  occ. eigenvalues --   -0.44479  -0.44293  -0.43919  -0.43486  -0.43139
 Alpha  occ. eigenvalues --   -0.42515  -0.42240  -0.42027  -0.41736  -0.41358
 Alpha  occ. eigenvalues --   -0.41022  -0.40462  -0.40122  -0.39298  -0.39207
 Alpha  occ. eigenvalues --   -0.38502  -0.38259  -0.38085  -0.37511  -0.37409
 Alpha  occ. eigenvalues --   -0.36787  -0.36448  -0.36103  -0.36020  -0.35797
 Alpha  occ. eigenvalues --   -0.35665  -0.35163  -0.34933  -0.34354  -0.34018
 Alpha  occ. eigenvalues --   -0.33309  -0.32997  -0.32448  -0.31838  -0.29035
 Alpha  occ. eigenvalues --   -0.28124  -0.27173  -0.25289  -0.24987  -0.24679
 Alpha  occ. eigenvalues --   -0.24131  -0.23618  -0.23175  -0.23168  -0.22735
 Alpha  occ. eigenvalues --   -0.21868  -0.21567
 Alpha virt. eigenvalues --   -0.01362  -0.00982  -0.00390   0.00100   0.00971
 Alpha virt. eigenvalues --    0.01195   0.02431   0.03164   0.07055   0.07223
 Alpha virt. eigenvalues --    0.08618   0.08835   0.09341   0.09919   0.10291

 Mulliken charges:
               1
     1  C   -0.528855
     2  C    0.296208
     3  N   -0.364973
     4  N   -0.230607
     5  C   -0.303404
     6  C    0.030244
     7  C    0.009576
     8  C   -0.345501
     9  C   -0.383949
    10  C    0.608027
    11  O   -0.531023
    12  N   -0.445990
    13  C   -0.264030
    14  C    0.131646
    15  C   -0.208471
    16  C   -0.127840
    17  C   -0.135182
    18  C   -0.176025
    19  C    0.227355
    20  N   -0.629320
    21  C   -0.261680
    22  C    0.151357
    23  C   -0.174993
    24  C   -0.126654
    25  C   -0.138246
    26  C   -0.167651
    27  C    0.289796
    28  O   -0.547730
    29  C   -0.079469
    30  C    0.032037
    31  C   -0.355435
    32  C    0.138676
    33  C   -0.187431
    34  C   -0.130616
    35  C   -0.130471
    36  C   -0.131595
    37  C   -0.189927
    38  H    0.153835
    39  H    0.158535
    40  H    0.171394
    41  H    0.160616
    42  H    0.183549
    43  H    0.174293
    44  H    0.145815
    45  H    0.160292
    46  H    0.155201
    47  H    0.167069
    48  H    0.170153
    49  H    0.190496
    50  H    0.184684
    51  H    0.145094
    52  H    0.130661
    53  H    0.131697
    54  H    0.118990
    55  H    0.310809
    56  H    0.159596
    57  H    0.173406
    58  H    0.125736
    59  H    0.130527
    60  H    0.135218
    61  H    0.148734
    62  H    0.176449
    63  H    0.154493
    64  H    0.167567
    65  H    0.178948
    66  H    0.149499
    67  H    0.156405
    68  H    0.126056
    69  H    0.123372
    70  H    0.124328
    71  H    0.138625
 Sum of Mulliken charges =  -0.00000

 Dipole moment (field-independent basis, Debye):
    X=              0.3407    Y=              4.6569    Z=             -1.8525  Tot=              5.0234
 Quadrupole moment (field-independent basis, Debye-Ang):
   XX=           -209.4386   YY=           -207.1069   ZZ=           -206.6323
   XY=             -0.8711   XZ=            -15.0581   YZ=             -2.1046

 Normal termination of Gaussian 16 at Fri Nov  4 23:32:00 2022.
