 Gaussian 16, Revision B.01,
 Gaussian 16:  ES64L-G16RevB.01 20-Dec-2017

 -------------------------------------------------------------------
 #p b3lyp/6-31g(d) 6D 10F nosymm GFInput td=(50-50,nstate=2) SCF=XQC
 -------------------------------------------------------------------

 ------------------------------
 Gaussian input prepared by ASE
 ------------------------------
 Symbolic Z-matrix:
 Charge =  0 Multiplicity = 1

                          Input orientation:
 ---------------------------------------------------------------------
 Center     Atomic      Atomic             Coordinates (Angstroms)
 Number     Number       Type             X           Y           Z
 ---------------------------------------------------------------------
      1          6           0       -1.327823   -0.760734    2.897844
      2          6           0       -1.427665   -1.952626    1.942412
      3          6           0       -1.625104   -1.560692    0.467328
      4          6           0       -1.778521   -2.783506   -0.443947
      5          7           0       -0.510573   -0.718832   -0.000880
      6          7           0        0.759258   -1.172989    0.145681
      7          6           0        1.501704   -0.140032   -0.250755
      8          6           0        2.971228   -0.176063   -0.271102
      9          6           0        3.692815    0.943852   -0.709347
     10          6           0        5.086206    0.918008   -0.728864
     11          6           0        5.775117   -0.223340   -0.313013
     12          6           0        5.060462   -1.342110    0.123588
     13          6           0        3.668042   -1.321113    0.145185
     14          7           0        0.775655    0.946834   -0.639712
     15          6           0       -0.485872    0.559640   -0.480895
     16          6           0       -1.649957    1.411010   -0.780827
     17          6           0       -1.565239    2.781134   -0.482841
     18          6           0       -2.629297    3.632791   -0.768119
     19          6           0       -3.791908    3.132819   -1.360311
     20          6           0       -3.877728    1.776819   -1.677866
     21          6           0       -2.813125    0.920636   -1.395573
     22          1           0       -0.447726   -0.147830    2.677480
     23          1           0       -1.241274   -1.104289    3.934326
     24          1           0       -2.214005   -0.117425    2.832690
     25          1           0       -0.529302   -2.574465    2.021361
     26          1           0       -2.280535   -2.584411    2.223338
     27          1           0       -2.515433   -0.930209    0.392371
     28          1           0       -1.954166   -2.485115   -1.483244
     29          1           0       -2.623693   -3.396941   -0.113848
     30          1           0       -0.870715   -3.393612   -0.414756
     31          1           0        3.147378    1.824617   -1.032079
     32          1           0        5.635636    1.791383   -1.070668
     33          1           0        6.861728   -0.242012   -0.329297
     34          1           0        5.590304   -2.233996    0.448140
     35          1           0        3.107517   -2.187057    0.482866
     36          1           0       -0.655012    3.161250   -0.030899
     37          1           0       -2.551571    4.689582   -0.527599
     38          1           0       -4.621864    3.798312   -1.581549
     39          1           0       -4.769345    1.384046   -2.158941
     40          1           0       -2.875595   -0.123337   -1.687683
 ---------------------------------------------------------------------

 SCF Done:  E(RB3LYP) =  -861.635946478     A.U. after   15 cycles

 Excitation energies and oscillator strengths:

 Excited state symmetry could not be determined.
 Excited State   1:      Triplet-?Sym    3.2202 eV  385.02 nm  f=0.0000  <S**2>=2.000
      72 -> 75         0.16219
      72 -> 76         0.13780
      73 -> 78        -0.19295
      74 -> 75        -0.38216
      74 -> 76         0.48623
 This state for optimization and/or second-order correction.
 Total Energy, E(TD-HF/TD-DFT) =  -861.517606500
 Copying the excited state density for this state as the 1-particle RhoCI density.

 Excited state symmetry could not be determined.
 Excited State   2:      Triplet-?Sym    3.4950 eV  354.74 nm  f=0.0000  <S**2>=2.000
      68 -> 75        -0.10322
      71 -> 77         0.26829
      72 -> 75         0.37376
      73 -> 78         0.17692
      74 -> 75        -0.29156
      74 -> 76        -0.34752

 Excited state symmetry could not be determined.
 Excited State   3:      Singlet-?Sym    4.4947 eV  275.85 nm  f=0.1197  <S**2>=0.000
      74 -> 75         0.67578
      74 -> 76         0.17063

 Excited state symmetry could not be determined.
 Excited State   4:      Singlet-?Sym    4.9349 eV  251.24 nm  f=0.0004  <S**2>=0.000
      71 -> 75         0.29032
      72 -> 77        -0.16303
      74 -> 77         0.60832

 Alpha  occ. eigenvalues --  -14.41416 -14.34669 -14.31416 -10.25532 -10.24117
 Alpha  occ. eigenvalues --  -10.23169 -10.21314 -10.20321 -10.20014 -10.19947
 Alpha  occ. eigenvalues --  -10.19795 -10.19709 -10.19019 -10.19017 -10.18779
 Alpha  occ. eigenvalues --  -10.18228 -10.18137 -10.18080 -10.17960 -10.17811
 Alpha  occ. eigenvalues --  -10.17743  -1.06881  -0.90337  -0.87111  -0.84742
 Alpha  occ. eigenvalues --   -0.83458  -0.79379  -0.75789  -0.75377  -0.74381
 Alpha  occ. eigenvalues --   -0.73420  -0.72937  -0.65829  -0.63750  -0.63292
 Alpha  occ. eigenvalues --   -0.61372  -0.60064  -0.59490  -0.57516  -0.55782
 Alpha  occ. eigenvalues --   -0.53245  -0.50761  -0.49152  -0.47948  -0.46958
 Alpha  occ. eigenvalues --   -0.45648  -0.44884  -0.44472  -0.43723  -0.43135
 Alpha  occ. eigenvalues --   -0.42724  -0.42366  -0.41695  -0.41024  -0.40770
 Alpha  occ. eigenvalues --   -0.39708  -0.37947  -0.37368  -0.36165  -0.36001
 Alpha  occ. eigenvalues --   -0.35484  -0.35266  -0.34679  -0.34361  -0.33878
 Alpha  occ. eigenvalues --   -0.33298  -0.31489  -0.29064  -0.28543  -0.26750
 Alpha  occ. eigenvalues --   -0.25855  -0.24659  -0.24025  -0.21407
 Alpha virt. eigenvalues --   -0.03170  -0.01724  -0.00974   0.01037   0.04614
 Alpha virt. eigenvalues --    0.07608   0.08962   0.09481   0.10649   0.10841
 Alpha virt. eigenvalues --    0.12998   0.13168   0.14087   0.14483   0.15531

 Mulliken charges:
               1
     1  C   -0.455721
     2  C   -0.251862
     3  C    0.012797
     4  C   -0.451625
     5  N   -0.309834
     6  N   -0.358304
     7  C    0.387352
     8  C    0.109989
     9  C   -0.175047
    10  C   -0.137197
    11  C   -0.124305
    12  C   -0.138718
    13  C   -0.172349
    14  N   -0.549454
    15  C    0.444617
    16  C    0.092366
    17  C   -0.146321
    18  C   -0.137405
    19  C   -0.120802
    20  C   -0.141102
    21  C   -0.170709
    22  H    0.166674
    23  H    0.149493
    24  H    0.143298
    25  H    0.166592
    26  H    0.136529
    27  H    0.152918
    28  H    0.154664
    29  H    0.150060
    30  H    0.178349
    31  H    0.155996
    32  H    0.127698
    33  H    0.126092
    34  H    0.126896
    35  H    0.147671
    36  H    0.158379
    37  H    0.137888
    38  H    0.135486
    39  H    0.135726
    40  H    0.143223
 Sum of Mulliken charges =  -0.00000

 Dipole moment (field-independent basis, Debye):
    X=             -3.1679    Y=             -0.4041    Z=              0.5434  Tot=              3.2395
 Quadrupole moment (field-independent basis, Debye-Ang):
   XX=           -108.7997   YY=           -113.9774   ZZ=           -124.9553
   XY=             -0.7600   XZ=              2.9759   YZ=             -1.4646

 Normal termination of Gaussian 16 at Sat Nov  5 09:42:40 2022.
