 Gaussian 16, Revision B.01,
 Gaussian 16:  ES64L-G16RevB.01 20-Dec-2017

 -----------------------------
 #p b3lyp/6-31g(d) opt SCF=XQC
 -----------------------------

 ------------------------------
 Gaussian input prepared by ASE
 ------------------------------
 Symbolic Z-matrix:
 Charge =  0 Multiplicity = 1

 SCF Done:  E(RB3LYP) =  -861.630753341     A.U. after   15 cycles
 SCF Done:  E(RB3LYP) =  -861.635567344     A.U. after   12 cycles
 SCF Done:  E(RB3LYP) =  -861.635811741     A.U. after   11 cycles
 SCF Done:  E(RB3LYP) =  -861.635897941     A.U. after   11 cycles
 SCF Done:  E(RB3LYP) =  -861.635933971     A.U. after   10 cycles
 SCF Done:  E(RB3LYP) =  -861.635945845     A.U. after   10 cycles
 SCF Done:  E(RB3LYP) =  -861.635948095     A.U. after    9 cycles
 SCF Done:  E(RB3LYP) =  -861.635949282     A.U. after    8 cycles
 SCF Done:  E(RB3LYP) =  -861.635949671     A.U. after    8 cycles
 SCF Done:  E(RB3LYP) =  -861.635949772     A.U. after    7 cycles
 SCF Done:  E(RB3LYP) =  -861.635949829     A.U. after    7 cycles
 Optimization completed.
    -- Stationary point found.

                         Standard orientation:
 ---------------------------------------------------------------------
 Center     Atomic      Atomic             Coordinates (Angstroms)
 Number     Number       Type             X           Y           Z
 ---------------------------------------------------------------------
      1          6           0        1.088538    2.476187    2.282731
      2          6           0        0.959339    3.128854    0.904051
      3          6           0        1.329882    2.201867   -0.267213
      4          6           0        1.242743    2.913185   -1.622080
      5          7           0        0.475509    1.001801   -0.271213
      6          7           0       -0.872054    1.157634   -0.270259
      7          6           0       -1.324556   -0.089456   -0.146182
      8          6           0       -2.757108   -0.417146   -0.105892
      9          6           0       -3.166361   -1.752964    0.016820
     10          6           0       -4.522717   -2.071023    0.058398
     11          6           0       -5.485197   -1.062420   -0.022571
     12          6           0       -5.082300    0.270043   -0.145924
     13          6           0       -3.728155    0.592986   -0.187661
     14          7           0       -0.340519   -1.030199   -0.066261
     15          6           0        0.782084   -0.323939   -0.153151
     16          6           0        2.130031   -0.916868   -0.116295
     17          6           0        2.354544   -2.003158    0.745553
     18          6           0        3.604689   -2.613903    0.800788
     19          6           0        4.648638   -2.155001   -0.006619
     20          6           0        4.429682   -1.089148   -0.880093
     21          6           0        3.178111   -0.475871   -0.939938
     22          1           0        0.392862    1.637799    2.391921
     23          1           0        0.862659    3.199376    3.073802
     24          1           0        2.103998    2.098975    2.455822
     25          1           0       -0.063664    3.490369    0.753241
     26          1           0        1.620598    4.003173    0.842716
     27          1           0        2.346905    1.832615   -0.108683
     28          1           0        1.544513    2.249386   -2.439595
     29          1           0        1.897999    3.790766   -1.630810
     30          1           0        0.216270    3.240889   -1.812228
     31          1           0       -2.410124   -2.528780    0.076963
     32          1           0       -4.828969   -3.109614    0.153394
     33          1           0       -6.542513   -1.312200    0.009529
     34          1           0       -5.826150    1.060049   -0.209992
     35          1           0       -3.409143    1.625979   -0.283739
     36          1           0        1.535225   -2.357590    1.362277
     37          1           0        3.765223   -3.450141    1.475793
     38          1           0        5.623952   -2.631882    0.038133
     39          1           0        5.229662   -0.740616   -1.527582
     40          1           0        3.008833    0.323440   -1.655170
 ---------------------------------------------------------------------

 The electronic state is 1-A.
 Alpha  occ. eigenvalues --  -14.41416 -14.34670 -14.31416 -10.25532 -10.24117
 Alpha  occ. eigenvalues --  -10.23169 -10.21314 -10.20321 -10.20014 -10.19947
 Alpha  occ. eigenvalues --  -10.19795 -10.19709 -10.19019 -10.19017 -10.18779
 Alpha  occ. eigenvalues --  -10.18228 -10.18137 -10.18080 -10.17960 -10.17811
 Alpha  occ. eigenvalues --  -10.17743  -1.06881  -0.90337  -0.87111  -0.84742
 Alpha  occ. eigenvalues --   -0.83458  -0.79379  -0.75789  -0.75377  -0.74381
 Alpha  occ. eigenvalues --   -0.73420  -0.72937  -0.65829  -0.63750  -0.63292
 Alpha  occ. eigenvalues --   -0.61372  -0.60064  -0.59490  -0.57516  -0.55782
 Alpha  occ. eigenvalues --   -0.53245  -0.50761  -0.49153  -0.47948  -0.46958
 Alpha  occ. eigenvalues --   -0.45648  -0.44884  -0.44472  -0.43724  -0.43135
 Alpha  occ. eigenvalues --   -0.42724  -0.42366  -0.41695  -0.41024  -0.40771
 Alpha  occ. eigenvalues --   -0.39708  -0.37947  -0.37368  -0.36165  -0.36001
 Alpha  occ. eigenvalues --   -0.35484  -0.35266  -0.34679  -0.34361  -0.33878
 Alpha  occ. eigenvalues --   -0.33298  -0.31489  -0.29064  -0.28543  -0.26750
 Alpha  occ. eigenvalues --   -0.25855  -0.24659  -0.24025  -0.21407
 Alpha virt. eigenvalues --   -0.03170  -0.01724  -0.00974   0.01037   0.04614
 Alpha virt. eigenvalues --    0.07608   0.08962   0.09481   0.10649   0.10841
 Alpha virt. eigenvalues --    0.12998   0.13168   0.14087   0.14483   0.15531

 Mulliken charges:
               1
     1  C   -0.455719
     2  C   -0.251858
     3  C    0.012789
     4  C   -0.451622
     5  N   -0.309818
     6  N   -0.358307
     7  C    0.387356
     8  C    0.109982
     9  C   -0.175042
    10  C   -0.137201
    11  C   -0.124300
    12  C   -0.138722
    13  C   -0.172345
    14  N   -0.549451
    15  C    0.444586
    16  C    0.092376
    17  C   -0.146322
    18  C   -0.137402
    19  C   -0.120805
    20  C   -0.141096
    21  C   -0.170716
    22  H    0.166672
    23  H    0.149493
    24  H    0.143299
    25  H    0.166592
    26  H    0.136529
    27  H    0.152919
    28  H    0.154665
    29  H    0.150060
    30  H    0.178349
    31  H    0.155995
    32  H    0.127698
    33  H    0.126092
    34  H    0.126896
    35  H    0.147671
    36  H    0.158381
    37  H    0.137888
    38  H    0.135486
    39  H    0.135726
    40  H    0.143228
 Sum of Mulliken charges =  -0.00000

 Dipole moment (field-independent basis, Debye):
    X=              2.9450    Y=              1.3404    Z=              0.1563  Tot=              3.2394
 Quadrupole moment (field-independent basis, Debye-Ang):
   XX=           -107.5320   YY=           -114.8505   ZZ=           -123.7632
   XY=              0.4037   XZ=             -2.0395   YZ=             -3.7636

 1\1\GINC-NODE58\FOpt\RB3LYP\6-31G(d)\C18H19N3\WYKGROUP\04-Nov-2022\0\\
 #p b3lyp/6-31g(d) opt SCF=XQC\\Gaussian input prepared by ASE\\0,1\C,-
 1.3278228752,-0.7607343943,2.8978436837\C,-1.427664882,-1.9526264323,1
 .9424124082\C,-1.6251039459,-1.5606922574,0.4673284412\C,-1.7785208877
 ,-2.783505802,-0.4439469751\N,-0.5105732167,-0.7188315722,-0.000879795
 7\N,0.7592577886,-1.1729888881,0.1456807067\C,1.5017041987,-0.14003196
 65,-0.2507547259\C,2.9712275392,-0.176062841,-0.27110206\C,3.692814544
 1,0.9438523982,-0.7093472951\C,5.0862064936,0.9180080008,-0.7288638415

 Normal termination of Gaussian 16 at Fri Nov  4 22:08:45 2022.
