 Gaussian 16, Revision B.01,
 Gaussian 16:  ES64L-G16RevB.01 20-Dec-2017

 -----------------------------
 #p b3lyp/6-31g(d) opt SCF=XQC
 -----------------------------

 ------------------------------
 Gaussian input prepared by ASE
 ------------------------------
 Symbolic Z-matrix:
 Charge =  0 Multiplicity = 1

 SCF Done:  E(RB3LYP) =  -1491.84051077     A.U. after   15 cycles
 SCF Done:  E(RB3LYP) =  -1491.84535434     A.U. after   12 cycles
 SCF Done:  E(RB3LYP) =  -1491.84559896     A.U. after   11 cycles
 SCF Done:  E(RB3LYP) =  -1491.84563001     A.U. after   11 cycles
 SCF Done:  E(RB3LYP) =  -1491.84569925     A.U. after   10 cycles
 SCF Done:  E(RB3LYP) =  -1491.84572218     A.U. after    9 cycles
 SCF Done:  E(RB3LYP) =  -1491.84572858     A.U. after    9 cycles
 SCF Done:  E(RB3LYP) =  -1491.84572889     A.U. after    7 cycles
 SCF Done:  E(RB3LYP) =  -1491.84572893     A.U. after    6 cycles
 Optimization completed.
    -- Stationary point found.

                         Standard orientation:
 ---------------------------------------------------------------------
 Center     Atomic      Atomic             Coordinates (Angstroms)
 Number     Number       Type             X           Y           Z
 ---------------------------------------------------------------------
      1          6           0      -10.347642    0.574913    0.950216
      2          8           0      -10.181985   -0.017440   -0.327142
      3          6           0       -9.258460   -1.089856   -0.335657
      4          6           0       -7.806773   -0.656377   -0.220969
      5          6           0       -7.368043    0.519566   -0.843926
      6          6           0       -6.032103    0.901988   -0.784613
      7          6           0       -5.090221    0.115704   -0.100237
      8          6           0       -3.668616    0.526853   -0.040341
      9          6           0       -3.262737    1.830067    0.081768
     10          6           0       -1.864127    2.211008    0.140515
     11          8           0       -1.474682    3.378709    0.246077
     12          6           0       -0.905450    1.073152    0.073760
     13          6           0        0.464848    1.316143    0.124164
     14          6           0        1.372961    0.259064    0.049363
     15          7           0        2.741815    0.486086    0.092300
     16          6           0        3.668620   -0.526870    0.040514
     17          6           0        5.090227   -0.115711    0.100288
     18          6           0        5.531675    1.060985   -0.525936
     19          6           0        6.873383    1.435059   -0.469595
     20          6           0        7.806784    0.656392    0.220780
     21          6           0        9.258478    1.089882    0.335341
     22          8           0       10.182012    0.017474    0.326726
     23          6           0       10.347559   -0.574858   -0.950656
     24          6           0        7.368123   -0.519566    0.843757
     25          6           0        6.032180   -0.901999    0.784562
     26          6           0        3.262741   -1.830083   -0.081598
     27          6           0        1.864126   -2.211043   -0.140127
     28          8           0        1.474689   -3.378715   -0.246040
     29          6           0        0.905451   -1.073181   -0.073446
     30          6           0       -0.464847   -1.316171   -0.123857
     31          6           0       -1.372960   -0.259091   -0.049064
     32          7           0       -2.741813   -0.486110   -0.092041
     33          6           0       -5.531737   -1.060976    0.525969
     34          6           0       -6.873443   -1.435039    0.469509
     35          1           0      -10.705875   -0.160790    1.687478
     36          1           0       -9.415287    1.020727    1.324444
     37          1           0      -11.098783    1.360555    0.837861
     38          1           0       -9.417432   -1.595576   -1.296230
     39          1           0       -9.494922   -1.816296    0.459672
     40          1           0       -8.088046    1.132886   -1.377678
     41          1           0       -5.704422    1.804740   -1.291122
     42          1           0       -3.998929    2.619373    0.173631
     43          1           0        0.787683    2.349818    0.217037
     44          1           0        3.062154    1.422022    0.299000
     45          1           0        4.835196    1.664407   -1.102748
     46          1           0        7.197262    2.339650   -0.979706
     47          1           0        9.494861    1.816335   -0.460001
     48          1           0        9.417534    1.595592    1.295905
     49          1           0       10.705719    0.160859   -1.687939
     50          1           0       11.098716   -1.360496   -0.838380
     51          1           0        9.415173   -1.020674   -1.324807
     52          1           0        8.088181   -1.132889    1.377430
     53          1           0        5.704555   -1.804763    1.291085
     54          1           0        3.998929   -2.619376   -0.173598
     55          1           0       -0.787683   -2.349846   -0.216724
     56          1           0       -3.062146   -1.422046   -0.298754
     57          1           0       -4.835319   -1.664392    1.102858
     58          1           0       -7.197379   -2.339618    0.979606
 ---------------------------------------------------------------------

 The electronic state is 1-A.
 Alpha  occ. eigenvalues --  -19.15911 -19.15911 -19.09994 -19.09994 -14.39718
 Alpha  occ. eigenvalues --  -14.39718 -10.25857 -10.25857 -10.25238 -10.25238
 Alpha  occ. eigenvalues --  -10.24819 -10.24818 -10.24678 -10.24678 -10.23222
 Alpha  occ. eigenvalues --  -10.23222 -10.22054 -10.22054 -10.21211 -10.21211
 Alpha  occ. eigenvalues --  -10.21143 -10.21143 -10.20798 -10.20797 -10.20781
 Alpha  occ. eigenvalues --  -10.20781 -10.20415 -10.20414 -10.20293 -10.20293
 Alpha  occ. eigenvalues --  -10.20191 -10.20190 -10.18217 -10.18217  -1.04079
 Alpha  occ. eigenvalues --   -1.04079  -1.00324  -1.00145  -0.98743  -0.98627
 Alpha  occ. eigenvalues --   -0.87953  -0.87589  -0.85878  -0.81336  -0.80353
 Alpha  occ. eigenvalues --   -0.78883  -0.77279  -0.76434  -0.76171  -0.76162
 Alpha  occ. eigenvalues --   -0.74462  -0.72537  -0.71783  -0.68003  -0.66133
 Alpha  occ. eigenvalues --   -0.65511  -0.64277  -0.62755  -0.62276  -0.62072
 Alpha  occ. eigenvalues --   -0.61903  -0.59490  -0.59140  -0.57273  -0.56553
 Alpha  occ. eigenvalues --   -0.55789  -0.53426  -0.51081  -0.50687  -0.50005
 Alpha  occ. eigenvalues --   -0.49106  -0.49071  -0.48661  -0.48630  -0.48626
 Alpha  occ. eigenvalues --   -0.47575  -0.45899  -0.45684  -0.45593  -0.45319
 Alpha  occ. eigenvalues --   -0.44890  -0.44780  -0.44156  -0.43907  -0.43702
 Alpha  occ. eigenvalues --   -0.43301  -0.42522  -0.42100  -0.41938  -0.40934
 Alpha  occ. eigenvalues --   -0.40104  -0.39872  -0.39852  -0.38636  -0.38497
 Alpha  occ. eigenvalues --   -0.37921  -0.37413  -0.37220  -0.36812  -0.36704
 Alpha  occ. eigenvalues --   -0.36140  -0.36072  -0.35808  -0.35414  -0.34050
 Alpha  occ. eigenvalues --   -0.32253  -0.32211  -0.29134  -0.27012  -0.26887
 Alpha  occ. eigenvalues --   -0.26873  -0.26793  -0.26456  -0.25776  -0.24331
 Alpha  occ. eigenvalues --   -0.22997  -0.22803  -0.22556  -0.20190
 Alpha virt. eigenvalues --   -0.06982  -0.04540  -0.03519  -0.02114  -0.02091
 Alpha virt. eigenvalues --   -0.00102   0.01343   0.03014   0.06819   0.06874
 Alpha virt. eigenvalues --    0.07770   0.08899   0.08942   0.09959   0.10200

 Mulliken charges:
               1
     1  C   -0.206375
     2  O   -0.452351
     3  C   -0.095204
     4  C    0.128734
     5  C   -0.176007
     6  C   -0.161995
     7  C    0.075904
     8  C    0.353905
     9  C   -0.300791
    10  C    0.436085
    11  O   -0.541588
    12  C    0.044489
    13  C   -0.270411
    14  C    0.368922
    15  N   -0.797376
    16  C    0.353905
    17  C    0.075903
    18  C   -0.184497
    19  C   -0.184841
    20  C    0.128734
    21  C   -0.095204
    22  O   -0.452351
    23  C   -0.206375
    24  C   -0.176006
    25  C   -0.161994
    26  C   -0.300793
    27  C    0.436086
    28  O   -0.541587
    29  C    0.044487
    30  C   -0.270411
    31  C    0.368920
    32  N   -0.797375
    33  C   -0.184499
    34  C   -0.184840
    35  H    0.133502
    36  H    0.144831
    37  H    0.163195
    38  H    0.166713
    39  H    0.129719
    40  H    0.154797
    41  H    0.152078
    42  H    0.144874
    43  H    0.162872
    44  H    0.336048
    45  H    0.140641
    46  H    0.134129
    47  H    0.129719
    48  H    0.166713
    49  H    0.133503
    50  H    0.163195
    51  H    0.144831
    52  H    0.154797
    53  H    0.152077
    54  H    0.144874
    55  H    0.162872
    56  H    0.336049
    57  H    0.140640
    58  H    0.134129
 Sum of Mulliken charges =  -0.00000

 Dipole moment (field-independent basis, Debye):
    X=             -0.0000    Y=              0.0000    Z=              0.0004  Tot=              0.0004
 Quadrupole moment (field-independent basis, Debye-Ang):
   XX=           -146.5457   YY=           -212.4059   ZZ=           -194.6593
   XY=             23.6096   XZ=            -15.7701   YZ=             -4.8705

 Normal termination of Gaussian 16 at Fri Nov  4 22:14:28 2022.
