 Gaussian 16, Revision B.01,
 Gaussian 16:  ES64L-G16RevB.01 20-Dec-2017

 -------------------------------------------------------------------
 #p b3lyp/6-31g(d) 6D 10F nosymm GFInput td=(50-50,nstate=2) SCF=XQC
 -------------------------------------------------------------------

 ------------------------------
 Gaussian input prepared by ASE
 ------------------------------
 Symbolic Z-matrix:
 Charge =  0 Multiplicity = 1

                          Input orientation:
 ---------------------------------------------------------------------
 Center     Atomic      Atomic             Coordinates (Angstroms)
 Number     Number       Type             X           Y           Z
 ---------------------------------------------------------------------
      1          6           0       10.400570   -0.360111    0.005486
      2          8           0       10.127655    0.937673   -0.495756
      3          6           0        9.179003    1.651493    0.274677
      4          6           0        7.750949    1.160770    0.106440
      5          6           0        7.298182    0.715544   -1.142631
      6          6           0        5.980216    0.307772   -1.319235
      7          6           0        5.070814    0.335498   -0.248734
      8          6           0        3.668209   -0.099218   -0.441897
      9          6           0        3.305501   -1.148834   -1.244869
     10          6           0        1.924972   -1.559452   -1.418682
     11          8           0        1.574004   -2.499031   -2.140034
     12          6           0        0.935383   -0.760712   -0.643464
     13          6           0       -0.421028   -1.064397   -0.728478
     14          6           0       -1.358735   -0.314723   -0.016878
     15          7           0       -2.714653   -0.601662   -0.096223
     16          6           0       -3.668206    0.099083    0.601935
     17          6           0       -5.070822   -0.335558    0.408677
     18          6           0       -5.526516   -0.779253   -0.843171
     19          6           0       -6.850661   -1.179361   -1.015917
     20          6           0       -7.750978   -1.160678    0.053316
     21          6           0       -9.179048   -1.651322   -0.115020
     22          8           0      -10.127716   -0.937440    0.655335
     23          6           0      -10.400522    0.360353    0.154059
     24          6           0       -7.298279   -0.715460    1.302414
     25          6           0       -5.980302   -0.307762    1.479110
     26          6           0       -3.305497    1.148700    1.404905
     27          6           0       -1.924948    1.559180    1.578887
     28          8           0       -1.574013    2.498981    2.299966
     29          6           0       -0.935366    0.760487    0.803612
     30          6           0        0.421044    1.064177    0.888619
     31          6           0        1.358751    0.314508    0.177013
     32          7           0        2.714665    0.601472    0.256328
     33          6           0        5.526577    0.779200    1.003087
     34          6           0        6.850711    1.179383    1.175740
     35          1           0       10.792558   -0.316077    1.033859
     36          1           0        9.509459   -1.003490   -0.002730
     37          1           0       11.161292   -0.795940   -0.646761
     38          1           0        9.254946    2.690241   -0.070230
     39          1           0        9.454030    1.640361    1.342579
     40          1           0        7.992898    0.692854   -1.977083
     41          1           0        5.639680   -0.013846   -2.298768
     42          1           0        4.066231   -1.729511   -1.752338
     43          1           0       -0.709909   -1.894234   -1.368205
     44          1           0       -2.995268   -1.439725   -0.586351
     45          1           0       -4.858631   -0.766668   -1.700890
     46          1           0       -7.187621   -1.499551   -1.999447
     47          1           0       -9.453996   -1.640185   -1.182943
     48          1           0       -9.255076   -2.690062    0.229891
     49          1           0      -10.792439    0.316329   -0.874341
     50          1           0      -11.161267    0.796233    0.806246
     51          1           0       -9.509376    1.003683    0.162330
     52          1           0       -7.993056   -0.692718    2.136814
     53          1           0       -5.639821    0.013851    2.458664
     54          1           0       -4.066233    1.729463    1.912265
     55          1           0        0.709925    1.894011    1.528352
     56          1           0        2.995272    1.439542    0.746446
     57          1           0        4.858757    0.766562    1.860857
     58          1           0        7.187726    1.499577    2.159250
 ---------------------------------------------------------------------

 SCF Done:  E(RB3LYP) =  -1491.84572726     A.U. after   15 cycles

 Excitation energies and oscillator strengths:

 Excited state symmetry could not be determined.
 Excited State   1:      Triplet-?Sym    2.3367 eV  530.59 nm  f=0.0000  <S**2>=2.000
     118 ->121         0.12527
     119 ->120         0.67417
 This state for optimization and/or second-order correction.
 Total Energy, E(TD-HF/TD-DFT) =  -1491.75985370
 Copying the excited state density for this state as the 1-particle RhoCI density.

 Excited state symmetry could not be determined.
 Excited State   2:      Triplet-?Sym    2.7519 eV  450.54 nm  f=0.0000  <S**2>=2.000
     115 ->121         0.14031
     117 ->120        -0.25615
     118 ->120         0.47410
     119 ->121         0.37373
     119 ->126        -0.14009

 Excited state symmetry could not be determined.
 Excited State   3:      Singlet-?Sym    3.2347 eV  383.30 nm  f=0.1185  <S**2>=0.000
     119 ->120         0.69520

 Excited state symmetry could not be determined.
 Excited State   4:      Singlet-?Sym    3.2948 eV  376.30 nm  f=0.0000  <S**2>=0.000
     116 ->121         0.14426
     117 ->120         0.54403
     118 ->120         0.39377

 Alpha  occ. eigenvalues --  -19.15911 -19.15911 -19.09994 -19.09994 -14.39718
 Alpha  occ. eigenvalues --  -14.39718 -10.25857 -10.25857 -10.25238 -10.25238
 Alpha  occ. eigenvalues --  -10.24818 -10.24818 -10.24678 -10.24678 -10.23221
 Alpha  occ. eigenvalues --  -10.23221 -10.22054 -10.22054 -10.21211 -10.21211
 Alpha  occ. eigenvalues --  -10.21143 -10.21143 -10.20798 -10.20797 -10.20781
 Alpha  occ. eigenvalues --  -10.20781 -10.20415 -10.20414 -10.20293 -10.20293
 Alpha  occ. eigenvalues --  -10.20191 -10.20190 -10.18217 -10.18217  -1.04079
 Alpha  occ. eigenvalues --   -1.04079  -1.00324  -1.00145  -0.98743  -0.98627
 Alpha  occ. eigenvalues --   -0.87953  -0.87589  -0.85878  -0.81336  -0.80353
 Alpha  occ. eigenvalues --   -0.78883  -0.77279  -0.76435  -0.76171  -0.76162
 Alpha  occ. eigenvalues --   -0.74462  -0.72537  -0.71783  -0.68003  -0.66133
 Alpha  occ. eigenvalues --   -0.65511  -0.64277  -0.62755  -0.62276  -0.62072
 Alpha  occ. eigenvalues --   -0.61903  -0.59490  -0.59140  -0.57273  -0.56553
 Alpha  occ. eigenvalues --   -0.55789  -0.53426  -0.51081  -0.50687  -0.50005
 Alpha  occ. eigenvalues --   -0.49106  -0.49071  -0.48661  -0.48630  -0.48626
 Alpha  occ. eigenvalues --   -0.47575  -0.45899  -0.45684  -0.45593  -0.45319
 Alpha  occ. eigenvalues --   -0.44890  -0.44780  -0.44156  -0.43907  -0.43702
 Alpha  occ. eigenvalues --   -0.43301  -0.42522  -0.42100  -0.41938  -0.40934
 Alpha  occ. eigenvalues --   -0.40104  -0.39872  -0.39852  -0.38636  -0.38497
 Alpha  occ. eigenvalues --   -0.37921  -0.37413  -0.37220  -0.36812  -0.36704
 Alpha  occ. eigenvalues --   -0.36140  -0.36072  -0.35808  -0.35414  -0.34050
 Alpha  occ. eigenvalues --   -0.32253  -0.32211  -0.29134  -0.27012  -0.26887
 Alpha  occ. eigenvalues --   -0.26873  -0.26793  -0.26456  -0.25776  -0.24331
 Alpha  occ. eigenvalues --   -0.22997  -0.22803  -0.22556  -0.20190
 Alpha virt. eigenvalues --   -0.06982  -0.04540  -0.03519  -0.02114  -0.02091
 Alpha virt. eigenvalues --   -0.00102   0.01343   0.03014   0.06819   0.06874
 Alpha virt. eigenvalues --    0.07770   0.08899   0.08942   0.09959   0.10200

 Mulliken charges:
               1
     1  C   -0.206370
     2  O   -0.452348
     3  C   -0.095217
     4  C    0.128750
     5  C   -0.176011
     6  C   -0.161998
     7  C    0.075902
     8  C    0.353906
     9  C   -0.300785
    10  C    0.436080
    11  O   -0.541588
    12  C    0.044490
    13  C   -0.270412
    14  C    0.368934
    15  N   -0.797385
    16  C    0.353908
    17  C    0.075900
    18  C   -0.184496
    19  C   -0.184847
    20  C    0.128750
    21  C   -0.095217
    22  O   -0.452348
    23  C   -0.206370
    24  C   -0.176011
    25  C   -0.161997
    26  C   -0.300787
    27  C    0.436081
    28  O   -0.541588
    29  C    0.044488
    30  C   -0.270413
    31  C    0.368932
    32  N   -0.797384
    33  C   -0.184498
    34  C   -0.184847
    35  H    0.133502
    36  H    0.144830
    37  H    0.163193
    38  H    0.166714
    39  H    0.129720
    40  H    0.154798
    41  H    0.152079
    42  H    0.144874
    43  H    0.162870
    44  H    0.336049
    45  H    0.140640
    46  H    0.134129
    47  H    0.129720
    48  H    0.166715
    49  H    0.133502
    50  H    0.163194
    51  H    0.144830
    52  H    0.154798
    53  H    0.152077
    54  H    0.144874
    55  H    0.162871
    56  H    0.336050
    57  H    0.140639
    58  H    0.134129
 Sum of Mulliken charges =  -0.00000

 Dipole moment (field-independent basis, Debye):
    X=              0.0000    Y=             -0.0003    Z=              0.0002  Tot=              0.0003
 Quadrupole moment (field-independent basis, Debye-Ang):
   XX=           -145.7730   YY=           -207.6224   ZZ=           -200.2152
   XY=             10.0551   XZ=             26.4355   YZ=             -7.1031

 Normal termination of Gaussian 16 at Sat Nov  5 09:47:09 2022.
