 Gaussian 16, Revision B.01,
 Gaussian 16:  ES64L-G16RevB.01 20-Dec-2017

 -------------------------------------------------------------------
 #p b3lyp/6-31g(d) 6D 10F nosymm GFInput td=(50-50,nstate=2) SCF=XQC
 -------------------------------------------------------------------

 ------------------------------
 Gaussian input prepared by ASE
 ------------------------------
 Symbolic Z-matrix:
 Charge =  0 Multiplicity = 1

                          Input orientation:
 ---------------------------------------------------------------------
 Center     Atomic      Atomic             Coordinates (Angstroms)
 Number     Number       Type             X           Y           Z
 ---------------------------------------------------------------------
      1          6           0        8.341180   -0.779591    2.551994
      2          6           0        8.706044   -0.361724    1.340424
      3          6           0        8.119999   -0.853601    0.044849
      4          6           0        7.541966    0.274540   -0.823041
      5          8           0        6.490826    0.995132   -0.187406
      6          6           0        5.230887    0.461253   -0.133048
      7          6           0        4.826378   -0.725904   -0.753353
      8          6           0        3.493278   -1.137972   -0.644824
      9          6           0        2.560741   -0.400324    0.079451
     10          6           0        2.976118    0.792822    0.703991
     11          6           0        4.296102    1.215183    0.593011
     12          6           0        1.932428    1.545751    1.492778
     13          6           0        0.594688    1.694135    0.724843
     14          6           0        0.206382    0.445196   -0.133745
     15          6           0       -1.271117    0.105657   -0.048251
     16          6           0       -1.867972   -0.243151    1.197454
     17          6           0       -3.200527   -0.570935    1.286739
     18          6           0       -4.033572   -0.569225    0.135731
     19          6           0       -5.413914   -0.899590    0.189619
     20          6           0       -6.210699   -0.890779   -0.938188
     21          6           0       -7.685936   -1.226687   -0.877374
     22          6           0       -8.618721   -0.006339   -1.045797
     23          6           0       -8.519383    1.010975    0.094368
     24          6           0       -5.614489   -0.542563   -2.183504
     25          6           0       -4.281324   -0.217778   -2.274064
     26          6           0       -3.449591   -0.219071   -1.121963
     27          6           0       -2.068852    0.109185   -1.175258
     28          6           0        1.105234   -0.777077    0.206251
     29          1           0        7.561387   -1.526175    2.687991
     30          1           0        8.804536   -0.391199    3.454954
     31          1           0        9.487293    0.395686    1.251323
     32          1           0        7.350659   -1.607689    0.244966
     33          1           0        8.901533   -1.345981   -0.555251
     34          1           0        8.312059    1.029550   -1.012761
     35          1           0        7.213062   -0.111899   -1.796815
     36          1           0        5.522298   -1.330124   -1.323836
     37          1           0        3.184554   -2.057290   -1.138435
     38          1           0        4.632077    2.134820    1.064219
     39          1           0        2.303706    2.531783    1.793809
     40          1           0        1.739138    0.995271    2.426114
     41          1           0       -0.198519    1.915716    1.447170
     42          1           0        0.653858    2.564719    0.061956
     43          1           0        0.422708    0.686530   -1.181187
     44          1           0       -1.256507   -0.250033    2.096736
     45          1           0       -3.635510   -0.835711    2.248034
     46          1           0       -5.844715   -1.168504    1.152541
     47          1           0       -7.922250   -1.956257   -1.664297
     48          1           0       -7.909580   -1.717566    0.078789
     49          1           0       -9.651875   -0.370763   -1.123133
     50          1           0       -8.395378    0.488631   -2.000615
     51          1           0       -9.201266    1.853271   -0.068845
     52          1           0       -7.504138    1.412328    0.183647
     53          1           0       -8.781277    0.552328    1.056324
     54          1           0       -6.230738   -0.541722   -3.080198
     55          1           0       -3.844095    0.040547   -3.236072
     56          1           0       -1.637161    0.372202   -2.139573
     57          1           0        0.856548   -1.612346   -0.458115
     58          1           0        0.881442   -1.117459    1.228875
 ---------------------------------------------------------------------

 SCF Done:  E(RB3LYP) =  -1122.17030427     A.U. after   14 cycles

 Excitation energies and oscillator strengths:

 Excited state symmetry could not be determined.
 Excited State   1:      Triplet-?Sym    2.7551 eV  450.01 nm  f=0.0000  <S**2>=2.000
      95 ->106         0.14009
      98 ->101        -0.10233
      98 ->102        -0.17943
      99 ->101         0.51108
     100 ->101         0.42102
 This state for optimization and/or second-order correction.
 Total Energy, E(TD-HF/TD-DFT) =  -1122.06905444
 Copying the excited state density for this state as the 1-particle RhoCI density.

 Excited state symmetry could not be determined.
 Excited State   2:      Triplet-?Sym    3.6784 eV  337.06 nm  f=0.0000  <S**2>=2.000
      97 ->103        -0.41720
      99 ->104         0.25765
      99 ->105        -0.15937
     100 ->102        -0.13312
     100 ->104        -0.37138
     100 ->105         0.22819

 Excited state symmetry could not be determined.
 Excited State   3:      Singlet-?Sym    4.2527 eV  291.54 nm  f=0.0211  <S**2>=0.000
      98 ->101         0.17987
      98 ->102        -0.11839
      99 ->102         0.15694
     100 ->101         0.63982
     100 ->102         0.12028

 Excited state symmetry could not be determined.
 Excited State   4:      Singlet-?Sym    4.4168 eV  280.71 nm  f=0.0064  <S**2>=0.000
      98 ->101         0.32950
      99 ->101         0.47370
      99 ->102         0.22525
     100 ->101        -0.24122
     100 ->102         0.21786

 Alpha  occ. eigenvalues --  -19.16776 -10.24182 -10.23887 -10.19236 -10.19100
 Alpha  occ. eigenvalues --  -10.19040 -10.19024 -10.18997 -10.18945 -10.18830
 Alpha  occ. eigenvalues --  -10.18566 -10.18537 -10.18502 -10.18447 -10.18404
 Alpha  occ. eigenvalues --  -10.18384 -10.18378 -10.18254 -10.18234 -10.18204
 Alpha  occ. eigenvalues --  -10.18193 -10.18175 -10.18130 -10.17930 -10.17728
 Alpha  occ. eigenvalues --  -10.17615 -10.17378 -10.16906  -1.05350  -0.86865
 Alpha  occ. eigenvalues --   -0.85644  -0.82942  -0.80717  -0.79648  -0.78186
 Alpha  occ. eigenvalues --   -0.76692  -0.75863  -0.74659  -0.72845  -0.72162
 Alpha  occ. eigenvalues --   -0.71519  -0.70024  -0.67284  -0.64432  -0.63335
 Alpha  occ. eigenvalues --   -0.61663  -0.60846  -0.59282  -0.59070  -0.58336
 Alpha  occ. eigenvalues --   -0.56476  -0.55705  -0.53668  -0.51343  -0.50136
 Alpha  occ. eigenvalues --   -0.49725  -0.48706  -0.48621  -0.46566  -0.46147
 Alpha  occ. eigenvalues --   -0.45571  -0.44531  -0.44389  -0.44195  -0.43777
 Alpha  occ. eigenvalues --   -0.43416  -0.43110  -0.41652  -0.41642  -0.41044
 Alpha  occ. eigenvalues --   -0.40928  -0.40188  -0.39335  -0.38931  -0.38455
 Alpha  occ. eigenvalues --   -0.38288  -0.38147  -0.37471  -0.37134  -0.36082
 Alpha  occ. eigenvalues --   -0.35839  -0.35611  -0.35064  -0.34449  -0.33977
 Alpha  occ. eigenvalues --   -0.33203  -0.32721  -0.32422  -0.32047  -0.31619
 Alpha  occ. eigenvalues --   -0.30986  -0.30517  -0.30102  -0.29897  -0.27443
 Alpha  occ. eigenvalues --   -0.25326  -0.23566  -0.22931  -0.20888  -0.20237
 Alpha virt. eigenvalues --   -0.03064  -0.00514   0.00661   0.02080   0.02358
 Alpha virt. eigenvalues --    0.03938   0.08531   0.08887   0.09653   0.10394
 Alpha virt. eigenvalues --    0.10628   0.11133   0.11654   0.12245   0.12471

 Mulliken charges:
               1
     1  C   -0.337014
     2  C   -0.026037
     3  C   -0.332252
     4  C   -0.041800
     5  O   -0.522329
     6  C    0.387057
     7  C   -0.195888
     8  C   -0.213893
     9  C    0.137304
    10  C    0.142881
    11  C   -0.257645
    12  C   -0.360526
    13  C   -0.276016
    14  C   -0.172953
    15  C    0.181996
    16  C   -0.186995
    17  C   -0.194938
    18  C    0.145749
    19  C   -0.270357
    20  C    0.183263
    21  C   -0.346324
    22  C   -0.246405
    23  C   -0.442871
    24  C   -0.186695
    25  C   -0.191588
    26  C    0.145118
    27  C   -0.279291
    28  C   -0.356578
    29  H    0.139351
    30  H    0.139235
    31  H    0.123793
    32  H    0.158085
    33  H    0.145091
    34  H    0.151997
    35  H    0.141794
    36  H    0.126386
    37  H    0.121624
    38  H    0.128939
    39  H    0.144705
    40  H    0.149764
    41  H    0.143636
    42  H    0.146288
    43  H    0.134908
    44  H    0.123357
    45  H    0.126964
    46  H    0.120777
    47  H    0.141761
    48  H    0.138343
    49  H    0.132965
    50  H    0.136752
    51  H    0.141922
    52  H    0.157311
    53  H    0.137564
    54  H    0.122489
    55  H    0.127182
    56  H    0.122468
    57  H    0.145218
    58  H    0.144356
 Sum of Mulliken charges =  -0.00000

 Dipole moment (field-independent basis, Debye):
    X=              0.3577    Y=             -0.6467    Z=             -0.5642  Tot=              0.9298
 Quadrupole moment (field-independent basis, Debye-Ang):
   XX=           -146.3515   YY=           -168.3308   ZZ=           -158.6657
   XY=             -1.3322   XZ=             -5.2013   YZ=              0.9713

 Normal termination of Gaussian 16 at Sat Nov  5 09:41:37 2022.
