 Gaussian 16, Revision B.01,
 Gaussian 16:  ES64L-G16RevB.01 20-Dec-2017

 -----------------------------
 #p b3lyp/6-31g(d) opt SCF=XQC
 -----------------------------

 ------------------------------
 Gaussian input prepared by ASE
 ------------------------------
 Symbolic Z-matrix:
 Charge =  0 Multiplicity = 1

 SCF Done:  E(RB3LYP) =  -1122.16266186     A.U. after   14 cycles
 SCF Done:  E(RB3LYP) =  -1122.16932597     A.U. after   12 cycles
 SCF Done:  E(RB3LYP) =  -1122.16979248     A.U. after   11 cycles
 SCF Done:  E(RB3LYP) =  -1122.17001033     A.U. after   11 cycles
 SCF Done:  E(RB3LYP) =  -1122.17012303     A.U. after   11 cycles
 SCF Done:  E(RB3LYP) =  -1122.17023048     A.U. after   11 cycles
 SCF Done:  E(RB3LYP) =  -1122.17026343     A.U. after   11 cycles
 SCF Done:  E(RB3LYP) =  -1122.17028003     A.U. after   10 cycles
 SCF Done:  E(RB3LYP) =  -1122.17029686     A.U. after   10 cycles
 SCF Done:  E(RB3LYP) =  -1122.17030345     A.U. after   10 cycles
 SCF Done:  E(RB3LYP) =  -1122.17030582     A.U. after    9 cycles
 SCF Done:  E(RB3LYP) =  -1122.17030685     A.U. after    9 cycles
 SCF Done:  E(RB3LYP) =  -1122.17030731     A.U. after    8 cycles
 SCF Done:  E(RB3LYP) =  -1122.17030744     A.U. after    7 cycles
 SCF Done:  E(RB3LYP) =  -1122.17030755     A.U. after    7 cycles
 SCF Done:  E(RB3LYP) =  -1122.17030758     A.U. after    6 cycles
 Optimization completed.
    -- Stationary point found.

                         Standard orientation:
 ---------------------------------------------------------------------
 Center     Atomic      Atomic             Coordinates (Angstroms)
 Number     Number       Type             X           Y           Z
 ---------------------------------------------------------------------
      1          6           0       -8.353043    1.436670   -1.487961
      2          6           0       -8.617943    0.425685   -0.661295
      3          6           0       -7.912228   -0.903155   -0.668771
      4          6           0       -7.280650   -1.258860    0.685718
      5          8           0       -6.302070   -0.318711    1.117784
      6          6           0       -5.042428   -0.347007    0.581191
      7          6           0       -4.564220   -1.310613   -0.313530
      8          6           0       -3.238609   -1.238762   -0.756617
      9          6           0       -2.386212   -0.220506   -0.338407
     10          6           0       -2.875721    0.748215    0.560563
     11          6           0       -4.188237    0.678894    1.013949
     12          6           0       -1.918526    1.841716    0.968494
     13          6           0       -0.521613    1.297619    1.360775
     14          6           0       -0.037614    0.088894    0.493289
     15          6           0        1.432547    0.177803    0.124073
     16          6           0        1.924302    1.265520   -0.653574
     17          6           0        3.249557    1.349377   -1.011044
     18          6           0        4.179884    0.352257   -0.612258
     19          6           0        5.555875    0.406465   -0.960249
     20          6           0        6.447932   -0.569734   -0.562550
     21          6           0        7.917933   -0.502699   -0.919564
     22          6           0        8.840057   -0.143524    0.267189
     23          6           0        8.623367    1.270318    0.813878
     24          6           0        5.956796   -1.657242    0.214395
     25          6           0        4.631099   -1.743406    0.569525
     26          6           0        3.701976   -0.745005    0.170721
     27          6           0        2.325574   -0.799445    0.516536
     28          6           0       -0.940905   -0.108324   -0.756771
     29          1           0       -7.574995    1.366471   -2.245373
     30          1           0       -8.900394    2.374183   -1.439362
     31          1           0       -9.401734    0.543243    0.089578
     32          1           0       -7.150064   -0.917276   -1.455844
     33          1           0       -8.629436   -1.705385   -0.904129
     34          1           0       -8.044489   -1.234803    1.469967
     35          1           0       -6.861058   -2.273407    0.666082
     36          1           0       -5.196760   -2.117503   -0.665184
     37          1           0       -2.871637   -1.997698   -1.444697
     38          1           0       -4.580399    1.414700    1.710691
     39          1           0       -2.332149    2.439659    1.788314
     40          1           0       -1.797835    2.531552    0.119338
     41          1           0        0.201343    2.118353    1.299430
     42          1           0       -0.538047    0.985037    2.410946
     43          1           0       -0.165783   -0.819042    1.094455
     44          1           0        1.236773    2.046066   -0.970900
     45          1           0        3.603460    2.188064   -1.606663
     46          1           0        5.905544    1.244826   -1.560253
     47          1           0        8.235060   -1.473497   -1.324962
     48          1           0        8.065803    0.232237   -1.721581
     49          1           0        9.882323   -0.254091   -0.060910
     50          1           0        8.692297   -0.875728    1.072546
     51          1           0        9.301845    1.477871    1.649134
     52          1           0        7.597238    1.406702    1.171981
     53          1           0        8.808255    2.025470    0.039366
     54          1           0        6.648971   -2.437107    0.525086
     55          1           0        4.275136   -2.585247    1.159403
     56          1           0        1.975246   -1.641277    1.111537
     57          1           0       -0.620295   -1.001562   -1.304709
     58          1           0       -0.801372    0.741966   -1.441781
 ---------------------------------------------------------------------

 The electronic state is 1-A.
 Alpha  occ. eigenvalues --  -19.16776 -10.24182 -10.23887 -10.19236 -10.19100
 Alpha  occ. eigenvalues --  -10.19040 -10.19024 -10.18997 -10.18945 -10.18830
 Alpha  occ. eigenvalues --  -10.18566 -10.18537 -10.18502 -10.18447 -10.18404
 Alpha  occ. eigenvalues --  -10.18384 -10.18378 -10.18254 -10.18234 -10.18204
 Alpha  occ. eigenvalues --  -10.18193 -10.18175 -10.18130 -10.17930 -10.17728
 Alpha  occ. eigenvalues --  -10.17615 -10.17378 -10.16906  -1.05350  -0.86865
 Alpha  occ. eigenvalues --   -0.85644  -0.82942  -0.80717  -0.79648  -0.78186
 Alpha  occ. eigenvalues --   -0.76692  -0.75863  -0.74659  -0.72845  -0.72162
 Alpha  occ. eigenvalues --   -0.71519  -0.70024  -0.67284  -0.64432  -0.63335
 Alpha  occ. eigenvalues --   -0.61663  -0.60846  -0.59282  -0.59070  -0.58336
 Alpha  occ. eigenvalues --   -0.56476  -0.55705  -0.53668  -0.51343  -0.50136
 Alpha  occ. eigenvalues --   -0.49725  -0.48706  -0.48621  -0.46566  -0.46147
 Alpha  occ. eigenvalues --   -0.45571  -0.44531  -0.44389  -0.44195  -0.43777
 Alpha  occ. eigenvalues --   -0.43416  -0.43110  -0.41652  -0.41642  -0.41044
 Alpha  occ. eigenvalues --   -0.40928  -0.40188  -0.39335  -0.38931  -0.38455
 Alpha  occ. eigenvalues --   -0.38288  -0.38147  -0.37471  -0.37134  -0.36082
 Alpha  occ. eigenvalues --   -0.35839  -0.35611  -0.35064  -0.34449  -0.33977
 Alpha  occ. eigenvalues --   -0.33203  -0.32721  -0.32422  -0.32047  -0.31619
 Alpha  occ. eigenvalues --   -0.30986  -0.30517  -0.30102  -0.29897  -0.27443
 Alpha  occ. eigenvalues --   -0.25326  -0.23566  -0.22931  -0.20888  -0.20237
 Alpha virt. eigenvalues --   -0.03064  -0.00514   0.00661   0.02080   0.02358
 Alpha virt. eigenvalues --    0.03938   0.08531   0.08887   0.09654   0.10394
 Alpha virt. eigenvalues --    0.10628   0.11133   0.11654   0.12245   0.12471

 Mulliken charges:
               1
     1  C   -0.337014
     2  C   -0.026039
     3  C   -0.332254
     4  C   -0.041811
     5  O   -0.522328
     6  C    0.387091
     7  C   -0.195919
     8  C   -0.213890
     9  C    0.137308
    10  C    0.142884
    11  C   -0.257657
    12  C   -0.360540
    13  C   -0.276007
    14  C   -0.172963
    15  C    0.181972
    16  C   -0.186981
    17  C   -0.194934
    18  C    0.145744
    19  C   -0.270347
    20  C    0.183232
    21  C   -0.346314
    22  C   -0.246402
    23  C   -0.442874
    24  C   -0.186684
    25  C   -0.191584
    26  C    0.145120
    27  C   -0.279283
    28  C   -0.356560
    29  H    0.139351
    30  H    0.139235
    31  H    0.123794
    32  H    0.158087
    33  H    0.145093
    34  H    0.151999
    35  H    0.141798
    36  H    0.126390
    37  H    0.121625
    38  H    0.128942
    39  H    0.144705
    40  H    0.149763
    41  H    0.143635
    42  H    0.146287
    43  H    0.134908
    44  H    0.123357
    45  H    0.126964
    46  H    0.120776
    47  H    0.141760
    48  H    0.138342
    49  H    0.132964
    50  H    0.136752
    51  H    0.141922
    52  H    0.157313
    53  H    0.137564
    54  H    0.122489
    55  H    0.127182
    56  H    0.122468
    57  H    0.145218
    58  H    0.144353
 Sum of Mulliken charges =  -0.00000

 Dipole moment (field-independent basis, Debye):
    X=             -0.2955    Y=             -0.7863    Z=             -0.3986  Tot=              0.9298
 Quadrupole moment (field-independent basis, Debye-Ang):
   XX=           -147.4994   YY=           -158.3288   ZZ=           -167.7531
   XY=              6.1938   XZ=             -0.7600   YZ=             -2.6853

 1\1\GINC-NODE90\FOpt\RB3LYP\6-31G(d)\C27H30O1\WYKGROUP\04-Nov-2022\0\\
 #p b3lyp/6-31g(d) opt SCF=XQC\\Gaussian input prepared by ASE\\0,1\C,8
 .3411799023,-0.7795905794,2.5519936284\C,8.7060444836,-0.3617239749,1.
 3404236227\C,8.1199991292,-0.8536012935,0.0448488899\C,7.5419658688,0.
 2745402063,-0.8230409715\O,6.4908260598,0.9951323067,-0.1874062468\C,5
 .2308869798,0.4612529027,-0.1330483902\C,4.8263777267,-0.7259036401,-0
 .7533528609\C,3.4932775505,-1.1379723959,-0.6448244913\C,2.5607409121,
 -0.4003236206,0.0794506357\C,2.9761184817,0.7928220275,0.7039912734\C,

 Normal termination of Gaussian 16 at Fri Nov  4 22:25:24 2022.
