 Gaussian 16, Revision B.01,
 Gaussian 16:  ES64L-G16RevB.01 20-Dec-2017

 -----------------------------
 #p b3lyp/6-31g(d) opt SCF=XQC
 -----------------------------

 ------------------------------
 Gaussian input prepared by ASE
 ------------------------------
 Symbolic Z-matrix:
 Charge =  0 Multiplicity = 1

 SCF Done:  E(RB3LYP) =  -1657.28332222     A.U. after   15 cycles
 SCF Done:  E(RB3LYP) =  -1657.29671693     A.U. after   15 cycles
 SCF Done:  E(RB3LYP) =  -1657.30045164     A.U. after   13 cycles
 SCF Done:  E(RB3LYP) =  -1657.30239760     A.U. after   13 cycles
 SCF Done:  E(RB3LYP) =  -1657.30298892     A.U. after   12 cycles
 SCF Done:  E(RB3LYP) =  -1657.30332949     A.U. after   12 cycles
 SCF Done:  E(RB3LYP) =  -1657.30357991     A.U. after   12 cycles
 SCF Done:  E(RB3LYP) =  -1657.30374773     A.U. after   12 cycles
 SCF Done:  E(RB3LYP) =  -1657.30377324     A.U. after   11 cycles
 SCF Done:  E(RB3LYP) =  -1657.30378714     A.U. after   10 cycles
 SCF Done:  E(RB3LYP) =  -1657.30381819     A.U. after    9 cycles
 SCF Done:  E(RB3LYP) =  -1657.30381973     A.U. after    9 cycles
 SCF Done:  E(RB3LYP) =  -1657.30382017     A.U. after    9 cycles
 SCF Done:  E(RB3LYP) =  -1657.30382040     A.U. after    9 cycles
 SCF Done:  E(RB3LYP) =  -1657.30382067     A.U. after    9 cycles
 SCF Done:  E(RB3LYP) =  -1657.30382087     A.U. after    9 cycles
 SCF Done:  E(RB3LYP) =  -1657.30382092     A.U. after    7 cycles
 SCF Done:  E(RB3LYP) =  -1657.30382098     A.U. after    8 cycles
 SCF Done:  E(RB3LYP) =  -1657.30382098     A.U. after    6 cycles
 SCF Done:  E(RB3LYP) =  -1657.30382098     A.U. after    6 cycles
 Optimization completed.
    -- Stationary point found.

                         Standard orientation:
 ---------------------------------------------------------------------
 Center     Atomic      Atomic             Coordinates (Angstroms)
 Number     Number       Type             X           Y           Z
 ---------------------------------------------------------------------
      1          6           0        7.717731   -1.515627    1.632650
      2          6           0        7.276333   -1.560108    0.158394
      3          6           0        5.802643   -1.268344   -0.027432
      4          6           0        5.335765    0.038815   -0.208954
      5          6           0        3.979891    0.335119   -0.341635
      6          6           0        3.037893   -0.702692   -0.293223
      7          7           0        1.649492   -0.520387   -0.474207
      8          6           0        0.886081    0.626608   -0.340831
      9          7           0        1.401807    1.766307    0.046686
     10          6           0        0.553914    2.828943    0.213391
     11          6           0        1.066862    4.076791    0.635400
     12          6           0        0.211400    5.140142    0.849265
     13          6           0       -1.179561    4.995786    0.647613
     14          6           0       -1.702928    3.787396    0.229639
     15          6           0       -0.846882    2.687879    0.002927
     16          7           0       -1.364160    1.502589   -0.457073
     17          6           0       -0.535020    0.522418   -0.661162
     18          7           0       -0.996584   -0.714228   -1.150615
     19         16           0       -2.604628   -1.009834   -1.721167
     20          8           0       -3.096915    0.089664   -2.544319
     21          8           0       -2.460426   -2.359063   -2.276280
     22          6           0       -3.556553   -1.086824   -0.209622
     23          6           0       -4.253519    0.041509    0.216397
     24          6           0       -5.011840   -0.058703    1.383827
     25          6           0       -5.063598   -1.259504    2.089982
     26          6           0       -4.367244   -2.397729    1.653069
     27          6           0       -4.447830   -3.695649    2.422538
     28          6           0       -3.607907   -2.298310    0.484252
     29          6           0        3.490486   -2.020172   -0.115546
     30          6           0        4.847723   -2.292854    0.013780
     31          1           0        7.168074   -2.252399    2.229394
     32          1           0        8.788463   -1.730588    1.728330
     33          1           0        7.528170   -0.528469    2.069014
     34          1           0        7.868201   -0.835677   -0.415499
     35          1           0        7.510084   -2.548977   -0.256723
     36          1           0        6.051551    0.857313   -0.251477
     37          1           0        3.648656    1.355727   -0.467834
     38          1           0        1.116003   -1.375478   -0.381811
     39          1           0        2.137651    4.164519    0.792210
     40          1           0        0.609437    6.096620    1.176822
     41          1           0       -1.838450    5.842533    0.818117
     42          1           0       -2.766336    3.655522    0.054723
     43          1           0       -0.361580   -1.195052   -1.785592
     44          1           0       -4.192789    0.961860   -0.351066
     45          1           0       -5.565798    0.804491    1.741472
     46          1           0       -5.660533   -1.319995    2.997351
     47          1           0       -4.108499   -3.566586    3.457439
     48          1           0       -3.830451   -4.472306    1.961611
     49          1           0       -5.478171   -4.069337    2.464757
     50          1           0       -3.069364   -3.158924    0.100448
     51          1           0        2.772081   -2.837975   -0.086595
     52          1           0        5.169455   -3.323583    0.146504
 ---------------------------------------------------------------------

 The electronic state is 1-A.
 Alpha  occ. eigenvalues --  -89.12123 -19.14973 -19.14842 -14.38988 -14.38497
 Alpha  occ. eigenvalues --  -14.34512 -14.33812 -10.28596 -10.28360 -10.23744
 Alpha  occ. eigenvalues --  -10.23243 -10.22737 -10.22636 -10.21807 -10.21320
 Alpha  occ. eigenvalues --  -10.21197 -10.20952 -10.20873 -10.19777 -10.19503
 Alpha  occ. eigenvalues --  -10.19406 -10.19383 -10.19207 -10.19070 -10.19045
 Alpha  occ. eigenvalues --  -10.18990 -10.18806 -10.18690 -10.18383 -10.17724
 Alpha  occ. eigenvalues --   -8.14627  -6.11175  -6.11016  -6.10906  -1.11735
 Alpha  occ. eigenvalues --   -1.01089  -1.00739  -0.96206  -0.93972  -0.89592
 Alpha  occ. eigenvalues --   -0.87989  -0.85288  -0.84244  -0.79687  -0.78626
 Alpha  occ. eigenvalues --   -0.77567  -0.75420  -0.74948  -0.74477  -0.72175
 Alpha  occ. eigenvalues --   -0.70517  -0.69475  -0.66363  -0.65264  -0.62914
 Alpha  occ. eigenvalues --   -0.61908  -0.61549  -0.60545  -0.59206  -0.58337
 Alpha  occ. eigenvalues --   -0.56437  -0.55916  -0.54251  -0.53137  -0.52125
 Alpha  occ. eigenvalues --   -0.50776  -0.49095  -0.48610  -0.48139  -0.47483
 Alpha  occ. eigenvalues --   -0.46739  -0.46049  -0.45710  -0.45201  -0.44483
 Alpha  occ. eigenvalues --   -0.44138  -0.43414  -0.43383  -0.43149  -0.42741
 Alpha  occ. eigenvalues --   -0.42229  -0.41377  -0.40837  -0.40121  -0.40031
 Alpha  occ. eigenvalues --   -0.38526  -0.37990  -0.37582  -0.37210  -0.36728
 Alpha  occ. eigenvalues --   -0.36517  -0.36146  -0.35297  -0.34862  -0.34504
 Alpha  occ. eigenvalues --   -0.33741  -0.33454  -0.32577  -0.31841  -0.31357
 Alpha  occ. eigenvalues --   -0.30872  -0.30470  -0.29739  -0.27297  -0.26256
 Alpha  occ. eigenvalues --   -0.25352  -0.25006  -0.24565  -0.23401  -0.20249
 Alpha virt. eigenvalues --   -0.05899  -0.04186  -0.01791  -0.01544  -0.00123
 Alpha virt. eigenvalues --    0.01174   0.01971   0.04084   0.06702   0.07486
 Alpha virt. eigenvalues --    0.08689   0.09067   0.09599   0.10050   0.10181

 Mulliken charges:
               1
     1  C   -0.432411
     2  C   -0.341561
     3  C    0.182681
     4  C   -0.201184
     5  C   -0.143712
     6  C    0.361261
     7  N   -0.796666
     8  C    0.538669
     9  N   -0.591152
    10  C    0.288864
    11  C   -0.167279
    12  C   -0.135273
    13  C   -0.139017
    14  C   -0.162220
    15  C    0.272497
    16  N   -0.565369
    17  C    0.503735
    18  N   -0.827671
    19  S    1.257786
    20  O   -0.502523
    21  O   -0.548485
    22  C   -0.163702
    23  C   -0.119435
    24  C   -0.131818
    25  C   -0.160738
    26  C    0.173199
    27  C   -0.530418
    28  C   -0.190096
    29  C   -0.203193
    30  C   -0.186893
    31  H    0.147612
    32  H    0.143056
    33  H    0.149881
    34  H    0.143529
    35  H    0.141780
    36  H    0.125326
    37  H    0.169171
    38  H    0.339753
    39  H    0.140892
    40  H    0.133970
    41  H    0.133490
    42  H    0.140350
    43  H    0.361563
    44  H    0.190145
    45  H    0.145373
    46  H    0.136986
    47  H    0.168174
    48  H    0.163598
    49  H    0.171222
    50  H    0.170373
    51  H    0.121282
    52  H    0.124597
 Sum of Mulliken charges =  -0.00000

 Dipole moment (field-independent basis, Debye):
    X=              0.5366    Y=             -0.8853    Z=              4.5798  Tot=              4.6953
 Quadrupole moment (field-independent basis, Debye-Ang):
   XX=           -163.4696   YY=           -164.0809   ZZ=           -189.8181
   XY=             -2.4019   XZ=            -20.1295   YZ=             -4.9905

 Normal termination of Gaussian 16 at Fri Nov  4 22:49:26 2022.
