 Gaussian 16, Revision B.01,
 Gaussian 16:  ES64L-G16RevB.01 20-Dec-2017

 -------------------------------------------------------------------
 #p b3lyp/6-31g(d) 6D 10F nosymm GFInput td=(50-50,nstate=2) SCF=XQC
 -------------------------------------------------------------------

 ------------------------------
 Gaussian input prepared by ASE
 ------------------------------
 Symbolic Z-matrix:
 Charge =  0 Multiplicity = 1

                          Input orientation:
 ---------------------------------------------------------------------
 Center     Atomic      Atomic             Coordinates (Angstroms)
 Number     Number       Type             X           Y           Z
 ---------------------------------------------------------------------
      1          6           0        6.782675   -1.529471    2.719395
      2          6           0        6.572923   -1.854641    1.229257
      3          6           0        5.178908   -1.522771    0.741397
      4          6           0        4.867737   -0.257296    0.230190
      5          6           0        3.581790    0.083230   -0.187157
      6          6           0        2.552474   -0.865040   -0.097459
      7          7           0        1.231559   -0.643988   -0.544638
      8          6           0        0.565201    0.548050   -0.770901
      9          7           0        1.116998    1.711510   -0.532284
     10          6           0        0.354632    2.833057   -0.724219
     11          6           0        0.908273    4.109455   -0.473976
     12          6           0        0.131219    5.241976   -0.621802
     13          6           0       -1.218982    5.139954   -1.025317
     14          6           0       -1.779877    3.903525   -1.281177
     15          6           0       -1.003575    2.732984   -1.138566
     16          7           0       -1.549847    1.509989   -1.438500
     17          6           0       -0.792566    0.462246   -1.302033
     18          7           0       -1.284182   -0.820271   -1.610842
     19         16           0       -2.804614   -1.134249   -2.377929
     20          8           0       -3.060381   -0.203833   -3.472338
     21          8           0       -2.700523   -2.575630   -2.624808
     22          6           0       -3.982322   -0.838795   -1.065462
     23          6           0       -4.630394    0.392182   -0.994147
     24          6           0       -5.566457    0.581936    0.023578
     25          6           0       -5.836998   -0.440111    0.932139
     26          6           0       -5.188747   -1.682982    0.852138
     27          6           0       -5.506368   -2.784965    1.835970
     28          6           0       -4.251542   -1.873859   -0.166597
     29          6           0        2.849242   -2.140562    0.409625
     30          6           0        4.139217   -2.458806    0.819333
     31          1           0        6.081913   -2.092333    3.346434
     32          1           0        7.801342   -1.781703    3.036455
     33          1           0        6.619153   -0.463696    2.914875
     34          1           0        7.310531   -1.301519    0.633898
     35          1           0        6.776462   -2.920227    1.062161
     36          1           0        5.653506    0.491258    0.150627
     37          1           0        3.369177    1.072594   -0.565628
     38          1           0        0.614018   -1.428478   -0.378666
     39          1           0        1.945292    4.165477   -0.157234
     40          1           0        0.559734    6.220906   -0.425216
     41          1           0       -1.815831    6.040524   -1.139031
     42          1           0       -2.810880    3.800199   -1.605489
     43          1           0       -0.605260   -1.459067   -2.021478
     44          1           0       -4.398257    1.168833   -1.712252
     45          1           0       -6.087589    1.531482    0.105239
     46          1           0       -6.570361   -0.275204    1.718455
     47          1           0       -5.321154   -2.462900    2.867858
     48          1           0       -4.898904   -3.675255    1.648415
     49          1           0       -6.560689   -3.081014    1.774392
     50          1           0       -3.741281   -2.825444   -0.276652
     51          1           0        2.063064   -2.891116    0.475499
     52          1           0        4.340543   -3.456136    1.204468
 ---------------------------------------------------------------------

 SCF Done:  E(RB3LYP) =  -1657.30382055     A.U. after   15 cycles

 Excitation energies and oscillator strengths:

 Excited state symmetry could not be determined.
 Excited State   1:      Triplet-?Sym    2.6524 eV  467.45 nm  f=0.0000  <S**2>=2.000
     108 ->111         0.12952
     109 ->111        -0.10895
     110 ->111         0.65054
     110 ->113        -0.10204
 This state for optimization and/or second-order correction.
 Total Energy, E(TD-HF/TD-DFT) =  -1657.20634746
 Copying the excited state density for this state as the 1-particle RhoCI density.

 Excited state symmetry could not be determined.
 Excited State   2:      Triplet-?Sym    2.9980 eV  413.55 nm  f=0.0000  <S**2>=2.000
     109 ->111         0.60648
     109 ->113         0.12846
     110 ->111         0.16762
     110 ->113         0.13784

 Excited state symmetry could not be determined.
 Excited State   3:      Singlet-?Sym    3.4691 eV  357.39 nm  f=0.2550  <S**2>=0.000
     110 ->111         0.69659

 Excited state symmetry could not be determined.
 Excited State   4:      Singlet-?Sym    3.9259 eV  315.81 nm  f=0.0068  <S**2>=0.000
     110 ->112         0.70243

 Alpha  occ. eigenvalues --  -89.12123 -19.14973 -19.14842 -14.38987 -14.38497
 Alpha  occ. eigenvalues --  -14.34512 -14.33812 -10.28596 -10.28360 -10.23744
 Alpha  occ. eigenvalues --  -10.23243 -10.22737 -10.22636 -10.21807 -10.21320
 Alpha  occ. eigenvalues --  -10.21197 -10.20952 -10.20873 -10.19777 -10.19503
 Alpha  occ. eigenvalues --  -10.19406 -10.19383 -10.19207 -10.19070 -10.19045
 Alpha  occ. eigenvalues --  -10.18990 -10.18806 -10.18690 -10.18383 -10.17724
 Alpha  occ. eigenvalues --   -8.14627  -6.11175  -6.11016  -6.10906  -1.11735
 Alpha  occ. eigenvalues --   -1.01088  -1.00739  -0.96206  -0.93972  -0.89593
 Alpha  occ. eigenvalues --   -0.87989  -0.85288  -0.84244  -0.79687  -0.78626
 Alpha  occ. eigenvalues --   -0.77567  -0.75420  -0.74948  -0.74477  -0.72175
 Alpha  occ. eigenvalues --   -0.70517  -0.69475  -0.66363  -0.65264  -0.62914
 Alpha  occ. eigenvalues --   -0.61908  -0.61549  -0.60545  -0.59206  -0.58337
 Alpha  occ. eigenvalues --   -0.56437  -0.55916  -0.54251  -0.53137  -0.52125
 Alpha  occ. eigenvalues --   -0.50776  -0.49095  -0.48610  -0.48139  -0.47483
 Alpha  occ. eigenvalues --   -0.46739  -0.46049  -0.45710  -0.45201  -0.44483
 Alpha  occ. eigenvalues --   -0.44138  -0.43414  -0.43383  -0.43149  -0.42741
 Alpha  occ. eigenvalues --   -0.42229  -0.41377  -0.40837  -0.40121  -0.40031
 Alpha  occ. eigenvalues --   -0.38526  -0.37990  -0.37582  -0.37210  -0.36728
 Alpha  occ. eigenvalues --   -0.36517  -0.36146  -0.35297  -0.34863  -0.34504
 Alpha  occ. eigenvalues --   -0.33741  -0.33454  -0.32577  -0.31841  -0.31357
 Alpha  occ. eigenvalues --   -0.30872  -0.30470  -0.29739  -0.27297  -0.26256
 Alpha  occ. eigenvalues --   -0.25352  -0.25006  -0.24565  -0.23401  -0.20249
 Alpha virt. eigenvalues --   -0.05899  -0.04186  -0.01791  -0.01544  -0.00123
 Alpha virt. eigenvalues --    0.01174   0.01971   0.04084   0.06702   0.07486
 Alpha virt. eigenvalues --    0.08688   0.09067   0.09598   0.10050   0.10181

 Mulliken charges:
               1
     1  C   -0.432402
     2  C   -0.341555
     3  C    0.182661
     4  C   -0.201179
     5  C   -0.143714
     6  C    0.361258
     7  N   -0.796665
     8  C    0.538652
     9  N   -0.591142
    10  C    0.288852
    11  C   -0.167275
    12  C   -0.135268
    13  C   -0.139023
    14  C   -0.162218
    15  C    0.272514
    16  N   -0.565367
    17  C    0.503743
    18  N   -0.827664
    19  S    1.257752
    20  O   -0.502524
    21  O   -0.548475
    22  C   -0.163671
    23  C   -0.119442
    24  C   -0.131824
    25  C   -0.160731
    26  C    0.173195
    27  C   -0.530414
    28  C   -0.190114
    29  C   -0.203188
    30  C   -0.186891
    31  H    0.147610
    32  H    0.143055
    33  H    0.149879
    34  H    0.143530
    35  H    0.141780
    36  H    0.125326
    37  H    0.169174
    38  H    0.339753
    39  H    0.140889
    40  H    0.133970
    41  H    0.133490
    42  H    0.140347
    43  H    0.361563
    44  H    0.190145
    45  H    0.145375
    46  H    0.136985
    47  H    0.168173
    48  H    0.163598
    49  H    0.171221
    50  H    0.170377
    51  H    0.121282
    52  H    0.124597
 Sum of Mulliken charges =  -0.00000

 Dipole moment (field-independent basis, Debye):
    X=             -0.2633    Y=              0.0595    Z=              4.6875  Tot=              4.6953
 Quadrupole moment (field-independent basis, Debye-Ang):
   XX=           -158.0423   YY=           -166.4615   ZZ=           -197.0444
   XY=             -5.1881   XZ=            -16.6315   YZ=             -9.4524

 Normal termination of Gaussian 16 at Sat Nov  5 09:42:57 2022.
