 Gaussian 16, Revision B.01,
 Gaussian 16:  ES64L-G16RevB.01 20-Dec-2017

 -------------------------------------------------------------------
 #p b3lyp/6-31g(d) 6D 10F nosymm GFInput td=(50-50,nstate=2) SCF=XQC
 -------------------------------------------------------------------

 ------------------------------
 Gaussian input prepared by ASE
 ------------------------------
 Symbolic Z-matrix:
 Charge =  0 Multiplicity = 1

                          Input orientation:
 ---------------------------------------------------------------------
 Center     Atomic      Atomic             Coordinates (Angstroms)
 Number     Number       Type             X           Y           Z
 ---------------------------------------------------------------------
      1          6           0      -10.551078    1.111716    3.296285
      2          6           0       -9.754553    1.126405    2.012167
      3          6           0      -10.291293    1.670082    0.835949
      4          6           0       -9.571013    1.675607   -0.354649
      5          6           0       -8.280726    1.126698   -0.405045
      6         16           0       -7.449304    1.161547   -1.997330
      7          6           0       -5.783217    0.613958   -1.639441
      8          6           0       -5.414592   -0.718615   -1.854021
      9          6           0       -4.103309   -1.142036   -1.634726
     10          6           0       -3.126542   -0.236709   -1.192409
     11         16           0       -1.431811   -0.659501   -0.879763
     12          6           0       -1.322395   -2.437875   -1.254995
     13          6           0        1.920026   -2.905334   -0.623976
     14          6           0        2.429811   -3.223060    0.646850
     15          6           0        3.800389   -3.213532    0.961127
     16          6           0        4.688936   -2.834814   -0.035111
     17          8           0        6.080453   -2.824386    0.273915
     18          6           0        6.709738   -1.649911    0.373421
     19          6           0        8.109120   -1.704090    0.581250
     20          6           0        8.843675   -0.543657    0.714823
     21          6           0        8.191466    0.707541    0.650759
     22         16           0        9.192711    2.131902    0.814731
     23          6           0        8.808479    3.224105   -0.627137
     24          6           0        8.422254    3.170377    2.135633
     25          6           0        6.794771    0.770539    0.457572
     26          6           0        6.062115   -0.395517    0.318534
     27          6           0        4.258905   -2.494433   -1.316073
     28          6           0        2.884462   -2.539133   -1.585765
     29          6           0       -3.501939    1.104656   -0.980523
     30          6           0       -4.806786    1.524394   -1.204431
     31          6           0       -7.731856    0.580706    0.758014
     32          6           0       -8.465409    0.588751    1.946419
     33          1           0      -11.008924    2.087622    3.498407
     34          1           0      -11.366750    0.377241    3.256648
     35          1           0       -9.920609    0.854346    4.153719
     36          1           0      -11.289655    2.103279    0.852238
     37          1           0      -10.009251    2.112332   -1.248835
     38          1           0       -6.159863   -1.430565   -2.196896
     39          1           0       -3.846857   -2.180867   -1.810152
     40          1           0       -1.569690   -2.633426   -2.303024
     41          1           0       -1.976047   -3.018486   -0.596664
     42          1           0       -0.257653   -2.702027   -1.061764
     43          1           0        1.747551   -3.495333    1.457201
     44          1           0        4.176573   -3.481439    1.947722
     45          1           0        8.585818   -2.677354    0.627073
     46          1           0        9.918336   -0.593727    0.866725
     47          1           0        9.357405    4.159882   -0.494765
     48          1           0        9.160906    2.702650   -1.518345
     49          1           0        7.734496    3.408565   -0.691999
     50          1           0        8.516009    2.612147    3.068350
     51          1           0        7.371765    3.362379    1.909036
     52          1           0        8.984396    4.105647    2.196855
     53          1           0        6.275603    1.724384    0.417271
     54          1           0        4.989938   -0.359492    0.169498
     55          1           0        4.990996   -2.218116   -2.075588
     56          1           0        2.572648   -2.285921   -2.602998
     57          1           0       -2.757460    1.821100   -0.642161
     58          1           0       -5.077741    2.563744   -1.043336
     59          1           0       -6.734951    0.153030    0.742416
     60          1           0       -8.018472    0.162023    2.842133
 ---------------------------------------------------------------------

 SCF Done:  E(RB3LYP) =  -2353.43051788     A.U. after   30 cycles

 Excitation energies and oscillator strengths:

 Excited state symmetry could not be determined.
 Excited State   1:      Triplet-?Sym    -0.2568 eV    -4828.97 nm  f=-0.0000  <S**2>=2.000
     126 ->127         0.84706
     126 <-127        -0.46727
 This state for optimization and/or second-order correction.
 Total Energy, E(TD-HF/TD-DFT) =  -2353.43995330
 Copying the excited state density for this state as the 1-particle RhoCI density.

 Excited state symmetry could not be determined.
 Excited State   2:      Singlet-?Sym    0.3961 eV 3129.77 nm  f=0.0377  <S**2>=0.000
     126 ->127         0.96719
     126 <-127        -0.66311

 Excited state symmetry could not be determined.
 Excited State   3:      Triplet-?Sym    1.1439 eV 1083.92 nm  f=0.0000  <S**2>=2.000
     126 ->128         0.70594

 Excited state symmetry could not be determined.
 Excited State   4:      Singlet-?Sym    1.2018 eV 1031.63 nm  f=0.0005  <S**2>=0.000
     126 ->128         0.70653

 Alpha  occ. eigenvalues --  -89.03584 -88.86118 -88.84793 -19.19426 -10.29292
 Alpha  occ. eigenvalues --  -10.29277 -10.28400 -10.26896 -10.24677 -10.24375
 Alpha  occ. eigenvalues --  -10.22112 -10.21977 -10.20249 -10.20083 -10.19897
 Alpha  occ. eigenvalues --  -10.19404 -10.17692 -10.17691 -10.17627 -10.17245
 Alpha  occ. eigenvalues --  -10.17233 -10.17072 -10.17041 -10.16981 -10.16957
 Alpha  occ. eigenvalues --  -10.16847 -10.15702 -10.14551 -10.14388 -10.12694
 Alpha  occ. eigenvalues --  -10.12570 -10.07868  -8.09148  -7.92137  -7.90859
 Alpha  occ. eigenvalues --   -6.05430  -6.05399  -6.04878  -5.88665  -5.88261
 Alpha  occ. eigenvalues --   -5.87643  -5.87376  -5.86950  -5.86389  -1.08262
 Alpha  occ. eigenvalues --   -0.94199  -0.88204  -0.84768  -0.83773  -0.80397
 Alpha  occ. eigenvalues --   -0.79277  -0.79266  -0.78638  -0.77903  -0.76014
 Alpha  occ. eigenvalues --   -0.72935  -0.72528  -0.72267  -0.71821  -0.69069
 Alpha  occ. eigenvalues --   -0.68591  -0.68043  -0.65058  -0.64561  -0.62290
 Alpha  occ. eigenvalues --   -0.60615  -0.58966  -0.58579  -0.57679  -0.55836
 Alpha  occ. eigenvalues --   -0.55521  -0.55322  -0.54564  -0.53517  -0.52132
 Alpha  occ. eigenvalues --   -0.51077  -0.50822  -0.49823  -0.49746  -0.48795
 Alpha  occ. eigenvalues --   -0.48005  -0.46700  -0.46190  -0.45883  -0.44442
 Alpha  occ. eigenvalues --   -0.43987  -0.43830  -0.43393  -0.42987  -0.42818
 Alpha  occ. eigenvalues --   -0.41895  -0.40644  -0.40428  -0.40331  -0.40096
 Alpha  occ. eigenvalues --   -0.39535  -0.39266  -0.38605  -0.38572  -0.37852
 Alpha  occ. eigenvalues --   -0.37342  -0.36977  -0.36827  -0.35336  -0.35033
 Alpha  occ. eigenvalues --   -0.34771  -0.34519  -0.33636  -0.33197  -0.32248
 Alpha  occ. eigenvalues --   -0.31868  -0.30285  -0.30180  -0.29557  -0.28161
 Alpha  occ. eigenvalues --   -0.28022  -0.26005  -0.25558  -0.25251  -0.23532
 Alpha  occ. eigenvalues --   -0.23034  -0.19722  -0.18632  -0.17849  -0.17804
 Alpha  occ. eigenvalues --   -0.10322
 Alpha virt. eigenvalues --   -0.08579  -0.04061  -0.03228  -0.01444   0.00042
 Alpha virt. eigenvalues --    0.00488   0.01250   0.01415   0.01925   0.02446
 Alpha virt. eigenvalues --    0.04906   0.05259   0.05686   0.06315   0.06854

 Mulliken charges:
               1
     1  C   -0.528992
     2  C    0.172505
     3  C   -0.168613
     4  C   -0.161924
     5  C   -0.070495
     6  S    0.103969
     7  C   -0.131208
     8  C   -0.126109
     9  C   -0.160774
    10  C   -0.052860
    11  S    0.127435
    12  C   -0.636804
    13  C   -0.069959
    14  C   -0.240116
    15  C   -0.145665
    16  C    0.261925
    17  O   -0.546007
    18  C    0.380852
    19  C   -0.169797
    20  C   -0.138982
    21  C   -0.132184
    22  S    0.455177
    23  C   -0.596061
    24  C   -0.596185
    25  C   -0.156131
    26  C   -0.162743
    27  C   -0.148803
    28  C   -0.234042
    29  C   -0.160346
    30  C   -0.122718
    31  C   -0.157594
    32  C   -0.175151
    33  H    0.154775
    34  H    0.160205
    35  H    0.152227
    36  H    0.117733
    37  H    0.134174
    38  H    0.146580
    39  H    0.142276
    40  H    0.162325
    41  H    0.162132
    42  H    0.237417
    43  H    0.091065
    44  H    0.098979
    45  H    0.164614
    46  H    0.157229
    47  H    0.211155
    48  H    0.231944
    49  H    0.220701
    50  H    0.231751
    51  H    0.220401
    52  H    0.211241
    53  H    0.140646
    54  H    0.206048
    55  H    0.093610
    56  H    0.087937
    57  H    0.136588
    58  H    0.144481
    59  H    0.149989
    60  H    0.120178
 Sum of Mulliken charges =  -0.00000

 Dipole moment (field-independent basis, Debye):
    X=             21.4691    Y=             12.0140    Z=              4.6777  Tot=             25.0427
 Quadrupole moment (field-independent basis, Debye-Ang):
   XX=            -46.6068   YY=           -200.4878   ZZ=           -206.0183
   XY=             80.8000   XZ=              6.1254   YZ=              4.4193

 Normal termination of Gaussian 16 at Sat Nov  5 09:45:09 2022.
