 Gaussian 16, Revision B.01,
 Gaussian 16:  ES64L-G16RevB.01 20-Dec-2017

 -------------------------------------------------------------------
 #p b3lyp/6-31g(d) 6D 10F nosymm GFInput td=(50-50,nstate=2) SCF=XQC
 -------------------------------------------------------------------

 ------------------------------
 Gaussian input prepared by ASE
 ------------------------------
 Symbolic Z-matrix:
 Charge =  0 Multiplicity = 1

                          Input orientation:
 ---------------------------------------------------------------------
 Center     Atomic      Atomic             Coordinates (Angstroms)
 Number     Number       Type             X           Y           Z
 ---------------------------------------------------------------------
      1          6           0        3.800000   -4.264608   -2.259958
      2          6           0        3.865531   -3.153621   -1.202354
      3          6           0        4.374558   -3.702424    0.137104
      4          6           0        4.731547   -1.976644   -1.718553
      5          6           0        4.731326   -0.750036   -0.829125
      6          6           0        5.814330   -0.466502    0.008534
      7          6           0        5.823706    0.668017    0.834737
      8          6           0        6.965467    0.969168    1.740233
      9          6           0        7.864219   -0.025694    2.163860
     10          6           0        8.918577    0.319218    3.003920
     11          6           0        9.050966    1.644666    3.415033
     12          6           0        8.100816    2.561421    2.963502
     13          7           0        7.089170    2.246798    2.152002
     14          6           0        4.726133    1.536434    0.795497
     15          6           0        3.626358    1.282287   -0.035680
     16          6           0        2.496045    2.242995   -0.081297
     17          6           0        2.720436    3.625026   -0.037370
     18          6           0        1.676035    4.563786   -0.079867
     19          6           0        0.343539    4.169936   -0.163348
     20          6           0        0.108343    2.796446   -0.199666
     21          6           0        1.143827    1.841874   -0.166962
     22          7           0        0.584854    0.582025   -0.211252
     23          6           0       -0.735707    0.721447   -0.274440
     24          6           0       -1.631103   -0.440756   -0.327046
     25          6           0       -3.036622   -0.312225   -0.325494
     26          6           0       -3.880082   -1.412380   -0.377494
     27          6           0       -5.415512   -1.295827   -0.374138
     28          6           0       -5.984530   -1.915175   -1.673074
     29          6           0       -5.891114    0.166939   -0.295503
     30          6           0       -5.991034   -2.052644    0.846724
     31          6           0       -3.275652   -2.682148   -0.437146
     32          6           0       -1.899557   -2.894214   -0.435698
     33          6           0       -1.305205   -4.319304   -0.497296
     34          6           0       -0.439541   -4.478512   -1.771554
     35          6           0       -0.452051   -4.599659    0.764793
     36          6           0       -2.402778   -5.402143   -0.554617
     37          6           0       -1.060328   -1.748285   -0.372739
     38          8           0        0.273612   -1.936983   -0.355812
     39          7           0       -1.084155    2.072952   -0.266566
     40          6           0       -2.349933    2.735469   -0.408298
     41          6           0       -2.977771    3.286641    0.704500
     42          6           0       -2.453860    3.166127    2.094157
     43          6           0       -2.310551    4.323620    2.877592
     44          6           0       -1.848755    4.245639    4.190678
     45          6           0       -1.530302    3.006371    4.747993
     46          6           0       -1.679142    1.848234    3.983333
     47          6           0       -2.136285    1.925022    2.668152
     48          6           0       -4.179624    4.025642    0.497821
     49          6           0       -4.716550    4.198321   -0.752985
     50          6           0       -4.081825    3.655379   -1.900294
     51          6           0       -4.609651    3.833197   -3.206472
     52          6           0       -3.962360    3.315592   -4.304971
     53          6           0       -2.754433    2.597210   -4.140011
     54          6           0       -2.218193    2.401163   -2.886657
     55          6           0       -2.865368    2.918171   -1.731707
     56          6           0        3.642147    0.129592   -0.837291
     57          1           0        4.797592   -4.679196   -2.458011
     58          1           0        3.157698   -5.088074   -1.926928
     59          1           0        3.399458   -3.891228   -3.210201
     60          1           0        2.846280   -2.773623   -1.045871
     61          1           0        5.389306   -4.111162    0.033433
     62          1           0        4.402175   -2.925132    0.907790
     63          1           0        3.727016   -4.510070    0.497911
     64          1           0        4.368579   -1.695684   -2.716457
     65          1           0        5.763007   -2.331407   -1.853398
     66          1           0        6.673536   -1.131371   -0.011303
     67          1           0        7.726758   -1.057408    1.858956
     68          1           0        9.620423   -0.439625    3.340123
     69          1           0        9.856870    1.959995    4.070761
     70          1           0        8.156924    3.605939    3.268193
     71          1           0        4.736940    2.409150    1.437966
     72          1           0        3.744576    3.982871    0.006568
     73          1           0        1.917815    5.622534   -0.053979
     74          1           0       -0.466158    4.890802   -0.197600
     75          1           0       -3.463127    0.677560   -0.280150
     76          1           0       -5.715464   -2.972061   -1.773698
     77          1           0       -7.079687   -1.848713   -1.681931
     78          1           0       -5.604290   -1.388406   -2.555755
     79          1           0       -5.547175    0.755702   -1.153117
     80          1           0       -6.986764    0.198728   -0.291348
     81          1           0       -5.543953    0.661274    0.618921
     82          1           0       -7.086185   -1.987111    0.856920
     83          1           0       -5.722588   -3.114346    0.833950
     84          1           0       -5.616193   -1.625149    1.783805
     85          1           0       -3.924868   -3.547446   -0.482278
     86          1           0       -0.018380   -5.491042   -1.813323
     87          1           0        0.383113   -3.762450   -1.791960
     88          1           0       -1.048100   -4.331776   -2.672166
     89          1           0       -1.068305   -4.531079    1.669480
     90          1           0        0.374761   -3.894405    0.857480
     91          1           0       -0.039139   -5.615293    0.717262
     92          1           0       -1.929237   -6.389302   -0.598574
     93          1           0       -3.046682   -5.387298    0.332517
     94          1           0       -3.036979   -5.303695   -1.443403
     95          1           0        0.712732   -1.036440   -0.259263
     96          1           0       -2.545525    5.292821    2.445314
     97          1           0       -1.733968    5.154122    4.775880
     98          1           0       -1.169820    2.943360    5.771101
     99          1           0       -1.442124    0.877895    4.410978
    100          1           0       -2.268022    1.013834    2.094309
    101          1           0       -4.681143    4.439387    1.367262
    102          1           0       -5.641219    4.756220   -0.878719
    103          1           0       -5.535569    4.391400   -3.321631
    104          1           0       -4.373649    3.458718   -5.300223
    105          1           0       -2.244974    2.195473   -5.011365
    106          1           0       -1.291568    1.849505   -2.774396
    107          1           0        2.803333   -0.070338   -1.497260
 ---------------------------------------------------------------------

 SCF Done:  E(RB3LYP) =  -2251.82207639     A.U. after   16 cycles

 Excitation energies and oscillator strengths:

 Excited state symmetry could not be determined.
 Excited State   1:      Triplet-?Sym    2.6179 eV  473.61 nm  f=0.0000  <S**2>=2.000
     191 ->197        -0.14230
     191 ->200         0.16187
     192 ->197         0.62971
     195 ->197        -0.11836
 This state for optimization and/or second-order correction.
 Total Energy, E(TD-HF/TD-DFT) =  -2251.72587118
 Copying the excited state density for this state as the 1-particle RhoCI density.

 Excited state symmetry could not be determined.
 Excited State   2:      Triplet-?Sym    2.7873 eV  444.82 nm  f=0.0000  <S**2>=2.000
     195 ->198         0.23392
     196 ->198         0.57459
     196 ->199         0.12918

 Excited state symmetry could not be determined.
 Excited State   3:      Singlet-?Sym    3.1778 eV  390.16 nm  f=0.0013  <S**2>=0.000
     196 ->197         0.70359

 Excited state symmetry could not be determined.
 Excited State   4:      Singlet-?Sym    3.5479 eV  349.46 nm  f=0.0038  <S**2>=0.000
     195 ->197         0.69423

 Alpha  occ. eigenvalues --  -19.14668 -14.39631 -14.32793 -14.32228 -10.26853
 Alpha  occ. eigenvalues --  -10.24655 -10.24523 -10.22650 -10.22245 -10.21926
 Alpha  occ. eigenvalues --  -10.21845 -10.21504 -10.21222 -10.21169 -10.20682
 Alpha  occ. eigenvalues --  -10.20559 -10.20489 -10.20471 -10.20268 -10.20188
 Alpha  occ. eigenvalues --  -10.20139 -10.20001 -10.19908 -10.19813 -10.19473
 Alpha  occ. eigenvalues --  -10.19471 -10.19396 -10.19363 -10.19321 -10.19254
 Alpha  occ. eigenvalues --  -10.19251 -10.19194 -10.19125 -10.19018 -10.19003
 Alpha  occ. eigenvalues --  -10.18836 -10.18559 -10.18558 -10.18298 -10.18176
 Alpha  occ. eigenvalues --  -10.18036 -10.18006 -10.17957 -10.17820 -10.17811
 Alpha  occ. eigenvalues --  -10.17715 -10.17548 -10.17449 -10.16924 -10.16916
 Alpha  occ. eigenvalues --  -10.16859 -10.16471 -10.16320 -10.16036 -10.15553
 Alpha  occ. eigenvalues --  -10.15454  -1.03995  -1.02175  -0.93648  -0.91448
 Alpha  occ. eigenvalues --   -0.87604  -0.86095  -0.85852  -0.85265  -0.83987
 Alpha  occ. eigenvalues --   -0.83108  -0.81260  -0.80078  -0.79856  -0.79674
 Alpha  occ. eigenvalues --   -0.78715  -0.77916  -0.77240  -0.75991  -0.75636
 Alpha  occ. eigenvalues --   -0.74709  -0.73837  -0.73073  -0.72576  -0.71961
 Alpha  occ. eigenvalues --   -0.71436  -0.71146  -0.68056  -0.67833  -0.67250
 Alpha  occ. eigenvalues --   -0.67109  -0.66750  -0.66631  -0.65381  -0.63990
 Alpha  occ. eigenvalues --   -0.63480  -0.63406  -0.62688  -0.62372  -0.61524
 Alpha  occ. eigenvalues --   -0.60606  -0.60233  -0.59758  -0.59151  -0.58345
 Alpha  occ. eigenvalues --   -0.57400  -0.56364  -0.55341  -0.54701  -0.53224
 Alpha  occ. eigenvalues --   -0.53014  -0.52504  -0.52169  -0.51659  -0.51283
 Alpha  occ. eigenvalues --   -0.49944  -0.49528  -0.48984  -0.48566  -0.48119
 Alpha  occ. eigenvalues --   -0.47304  -0.46795  -0.46614  -0.46545  -0.45857
 Alpha  occ. eigenvalues --   -0.45710  -0.45462  -0.45177  -0.44747  -0.44405
 Alpha  occ. eigenvalues --   -0.44099  -0.43317  -0.43237  -0.43093  -0.43021
 Alpha  occ. eigenvalues --   -0.42945  -0.42662  -0.42486  -0.42404  -0.42226
 Alpha  occ. eigenvalues --   -0.42051  -0.41422  -0.41299  -0.41254  -0.41050
 Alpha  occ. eigenvalues --   -0.40456  -0.40191  -0.40000  -0.39620  -0.39396
 Alpha  occ. eigenvalues --   -0.39324  -0.38583  -0.37856  -0.37751  -0.37288
 Alpha  occ. eigenvalues --   -0.37170  -0.37105  -0.36705  -0.36640  -0.36547
 Alpha  occ. eigenvalues --   -0.36410  -0.36358  -0.36276  -0.36090  -0.36008
 Alpha  occ. eigenvalues --   -0.35686  -0.35363  -0.35046  -0.34976  -0.34631
 Alpha  occ. eigenvalues --   -0.34499  -0.34020  -0.33595  -0.33532  -0.33263
 Alpha  occ. eigenvalues --   -0.33154  -0.33066  -0.31921  -0.31836  -0.31490
 Alpha  occ. eigenvalues --   -0.31210  -0.30853  -0.30772  -0.30655  -0.30558
 Alpha  occ. eigenvalues --   -0.30189  -0.29572  -0.28325  -0.27307  -0.27054
 Alpha  occ. eigenvalues --   -0.26713  -0.25728  -0.25287  -0.24912  -0.24491
 Alpha  occ. eigenvalues --   -0.24228  -0.22468  -0.21981  -0.21900  -0.20815
 Alpha  occ. eigenvalues --   -0.19506
 Alpha virt. eigenvalues --   -0.05849  -0.04286  -0.03414  -0.03017  -0.01590
 Alpha virt. eigenvalues --   -0.00456  -0.00280   0.00289   0.01636   0.02106
 Alpha virt. eigenvalues --    0.02537   0.02682   0.04591   0.06893   0.08163

 Mulliken charges:
               1
     1  C   -0.441039
     2  C   -0.082412
     3  C   -0.446764
     4  C   -0.344249
     5  C    0.173665
     6  C   -0.249011
     7  C    0.115372
     8  C    0.241296
     9  C   -0.163504
    10  C   -0.105498
    11  C   -0.144941
    12  C    0.044341
    13  N   -0.479360
    14  C   -0.222855
    15  C    0.106833
    16  C    0.061670
    17  C   -0.199810
    18  C   -0.150471
    19  C   -0.165432
    20  C    0.323543
    21  C    0.209864
    22  N   -0.728368
    23  C    0.532731
    24  C    0.116386
    25  C   -0.311196
    26  C    0.195056
    27  C    0.017862
    28  C   -0.439376
    29  C   -0.462368
    30  C   -0.439210
    31  C   -0.285379
    32  C    0.144423
    33  C    0.038587
    34  C   -0.458318
    35  C   -0.453467
    36  C   -0.457183
    37  C    0.218068
    38  O   -0.672993
    39  N   -0.695670
    40  C    0.051382
    41  C    0.091874
    42  C    0.071362
    43  C   -0.161750
    44  C   -0.133293
    45  C   -0.121460
    46  C   -0.137915
    47  C   -0.159337
    48  C   -0.200986
    49  C   -0.175764
    50  C    0.121855
    51  C   -0.195452
    52  C   -0.130210
    53  C   -0.135369
    54  C   -0.184727
    55  C    0.160242
    56  C   -0.219632
    57  H    0.133584
    58  H    0.145013
    59  H    0.138623
    60  H    0.157296
    61  H    0.127431
    62  H    0.153219
    63  H    0.143165
    64  H    0.139560
    65  H    0.130470
    66  H    0.121841
    67  H    0.141826
    68  H    0.141166
    69  H    0.135974
    70  H    0.137872
    71  H    0.156334
    72  H    0.139244
    73  H    0.129182
    74  H    0.139502
    75  H    0.150052
    76  H    0.142035
    77  H    0.135330
    78  H    0.146738
    79  H    0.150995
    80  H    0.136951
    81  H    0.146150
    82  H    0.135737
    83  H    0.142313
    84  H    0.145264
    85  H    0.127027
    86  H    0.129690
    87  H    0.183090
    88  H    0.133812
    89  H    0.133727
    90  H    0.180321
    91  H    0.128139
    92  H    0.140227
    93  H    0.140918
    94  H    0.140575
    95  H    0.454625
    96  H    0.132247
    97  H    0.132822
    98  H    0.133736
    99  H    0.139195
   100  H    0.152423
   101  H    0.146235
   102  H    0.138861
   103  H    0.136065
   104  H    0.137332
   105  H    0.140282
   106  H    0.157350
   107  H    0.136786
 Sum of Mulliken charges =  -0.00000

 Dipole moment (field-independent basis, Debye):
    X=             -2.1136    Y=              2.1285    Z=              0.2258  Tot=              3.0081
 Quadrupole moment (field-independent basis, Debye-Ang):
   XX=           -293.5494   YY=           -312.3916   ZZ=           -311.4825
   XY=            -18.8493   XZ=             16.0206   YZ=              1.2090

 Normal termination of Gaussian 16 at Sat Nov  5 10:46:15 2022.
