 Gaussian 16, Revision B.01,
 Gaussian 16:  ES64L-G16RevB.01 20-Dec-2017

 -----------------------------
 #p b3lyp/6-31g(d) opt SCF=XQC
 -----------------------------

 ------------------------------
 Gaussian input prepared by ASE
 ------------------------------
 Symbolic Z-matrix:
 Charge =  0 Multiplicity = 1

 SCF Done:  E(RB3LYP) =  -2251.80072592     A.U. after   16 cycles
 SCF Done:  E(RB3LYP) =  -2251.81601922     A.U. after   13 cycles
 SCF Done:  E(RB3LYP) =  -2251.81772331     A.U. after   14 cycles
 SCF Done:  E(RB3LYP) =  -2251.82072372     A.U. after   13 cycles
 SCF Done:  E(RB3LYP) =  -2251.82122801     A.U. after   12 cycles
 SCF Done:  E(RB3LYP) =  -2251.82154869     A.U. after   12 cycles
 SCF Done:  E(RB3LYP) =  -2251.82185544     A.U. after   12 cycles
 SCF Done:  E(RB3LYP) =  -2251.82188112     A.U. after   12 cycles
 SCF Done:  E(RB3LYP) =  -2251.82201446     A.U. after   11 cycles
 SCF Done:  E(RB3LYP) =  -2251.82204338     A.U. after   11 cycles
 SCF Done:  E(RB3LYP) =  -2251.82206635     A.U. after   10 cycles
 SCF Done:  E(RB3LYP) =  -2251.82207234     A.U. after   10 cycles
 SCF Done:  E(RB3LYP) =  -2251.82207553     A.U. after   10 cycles
 SCF Done:  E(RB3LYP) =  -2251.82207808     A.U. after    9 cycles
 SCF Done:  E(RB3LYP) =  -2251.82207921     A.U. after    9 cycles
 SCF Done:  E(RB3LYP) =  -2251.82207951     A.U. after    7 cycles
 SCF Done:  E(RB3LYP) =  -2251.82207960     A.U. after    7 cycles
 SCF Done:  E(RB3LYP) =  -2251.82207963     A.U. after    6 cycles
 Optimization completed.
    -- Stationary point found.

                         Standard orientation:
 ---------------------------------------------------------------------
 Center     Atomic      Atomic             Coordinates (Angstroms)
 Number     Number       Type             X           Y           Z
 ---------------------------------------------------------------------
      1          6           0       -3.458586    5.097173   -1.737658
      2          6           0       -3.638860    3.756852   -1.010914
      3          6           0       -4.404089    3.946628    0.305464
      4          6           0       -4.329870    2.732186   -1.945946
      5          6           0       -4.409434    1.322831   -1.395459
      6          6           0       -5.601877    0.822651   -0.863612
      7          6           0       -5.685500   -0.481930   -0.352818
      8          6           0       -6.946376   -1.016989    0.228679
      9          6           0       -7.963257   -0.173212    0.709261
     10          6           0       -9.124248   -0.732978    1.233760
     11          6           0       -9.245478   -2.120958    1.280315
     12          6           0       -8.177957   -2.881344    0.801443
     13          7           0       -7.062067   -2.358692    0.289027
     14          6           0       -4.547284   -1.295915   -0.400201
     15          6           0       -3.337700   -0.825544   -0.929929
     16          6           0       -2.160622   -1.726797   -0.999765
     17          6           0       -2.305369   -3.079533   -1.333600
     18          6           0       -1.214614   -3.961654   -1.410829
     19          6           0        0.085989   -3.538633   -1.151762
     20          6           0        0.240558   -2.195895   -0.810773
     21          6           0       -0.840692   -1.295882   -0.737418
     22          7           0       -0.359585   -0.056138   -0.372450
     23          6           0        0.957973   -0.154750   -0.225384
     24          6           0        1.777143    0.997773    0.169418
     25          6           0        3.166365    0.894907    0.396319
     26          6           0        3.938120    1.986383    0.767191
     27          6           0        5.454020    1.896698    1.022426
     28          6           0        6.200685    2.828939    0.038542
     29          6           0        5.996290    0.468086    0.829882
     30          6           0        5.762937    2.334411    2.474141
     31          6           0        3.277572    3.221363    0.907562
     32          6           0        1.911712    3.404833    0.709122
     33          6           0        1.252030    4.790861    0.887100
     34          6           0        0.611809    5.248940   -0.446593
     35          6           0        0.178089    4.734578    2.001918
     36          6           0        2.275562    5.870869    1.295090
     37          6           0        1.144986    2.266367    0.338380
     38          8           0       -0.180698    2.424012    0.156725
     39          7           0        1.380763   -1.459985   -0.481618
     40          6           0        2.689634   -2.046424   -0.546092
     41          6           0        3.147648   -2.847555    0.495398
     42          6           0        2.384963   -3.085249    1.753161
     43          6           0        2.178458   -4.403517    2.193188
     44          6           0        1.492648   -4.662352    3.379022
     45          6           0        1.008364   -3.606135    4.152115
     46          6           0        1.217020   -2.291834    3.731144
     47          6           0        1.898545   -2.031396    2.542753
     48          6           0        4.409527   -3.492876    0.338843
     49          6           0        5.164139   -3.340083   -0.796867
     50          6           0        4.705822   -2.538431   -1.874494
     51          6           0        5.461376   -2.376962   -3.065873
     52          6           0        4.983792   -1.612201   -4.105419
     53          6           0        3.724403   -0.976548   -3.994720
     54          6           0        2.968613   -1.107337   -2.850798
     55          6           0        3.436282   -1.885585   -1.757336
     56          6           0       -3.284168    0.490117   -1.417479
     57          1           0       -4.430070    5.532373   -2.008061
     58          1           0       -2.934477    5.821651   -1.103626
     59          1           0       -2.877919    4.978606   -2.660467
     60          1           0       -2.640982    3.365841   -0.767792
     61          1           0       -5.408409    4.352383    0.120448
     62          1           0       -4.517610    3.001511    0.846546
     63          1           0       -3.878678    4.648949    0.963090
     64          1           0       -3.783477    2.714401   -2.898645
     65          1           0       -5.341969    3.093180   -2.176791
     66          1           0       -6.483254    1.457976   -0.878313
     67          1           0       -7.837677    0.903952    0.693695
     68          1           0       -9.918185   -0.092890    1.609813
     69          1           0      -10.132122   -2.602269    1.681680
     70          1           0       -8.222751   -3.969582    0.828555
     71          1           0       -4.616341   -2.301229   -0.001341
     72          1           0       -3.298170   -3.453014   -1.565343
     73          1           0       -1.392855   -4.997118   -1.686726
     74          1           0        0.931431   -4.215483   -1.211200
     75          1           0        3.637570   -0.068172    0.277650
     76          1           0        5.889766    3.873229    0.149527
     77          1           0        7.282852    2.783917    0.213908
     78          1           0        6.011360    2.532797   -0.999556
     79          1           0        5.842059    0.106234   -0.192719
     80          1           0        7.074596    0.453405    1.026135
     81          1           0        5.526686   -0.243838    1.518139
     82          1           0        6.841747    2.285542    2.667886
     83          1           0        5.437142    3.361489    2.670118
     84          1           0        5.258168    1.681135    3.195124
     85          1           0        3.871361    4.080668    1.192638
     86          1           0        0.143866    6.233237   -0.318031
     87          1           0       -0.150158    4.547763   -0.789632
     88          1           0        1.374704    5.340734   -1.229244
     89          1           0        0.631573    4.452427    2.959871
     90          1           0       -0.608180    4.015627    1.768504
     91          1           0       -0.280935    5.723445    2.127247
     92          1           0        1.758037    6.830324    1.405861
     93          1           0        2.756020    5.645557    2.254379
     94          1           0        3.058704    6.006876    0.540084
     95          1           0       -0.574714    1.521055   -0.049543
     96          1           0        2.542742   -5.230671    1.589416
     97          1           0        1.333436   -5.689660    3.695671
     98          1           0        0.473215   -3.805640    5.076496
     99          1           0        0.851458   -1.462456    4.330404
    100          1           0        2.072293   -1.004032    2.240678
    101          1           0        4.777154   -4.102280    1.158666
    102          1           0        6.128592   -3.834536   -0.883022
    103          1           0        6.425245   -2.874323   -3.141797
    104          1           0        5.568908   -1.496420   -5.013387
    105          1           0        3.350025   -0.378419   -4.820725
    106          1           0        2.004945   -0.615602   -2.779349
    107          1           0       -2.357469    0.861254   -1.844829
 ---------------------------------------------------------------------

 The electronic state is 1-A.
 Alpha  occ. eigenvalues --  -19.14667 -14.39631 -14.32793 -14.32228 -10.26853
 Alpha  occ. eigenvalues --  -10.24655 -10.24522 -10.22650 -10.22245 -10.21926
 Alpha  occ. eigenvalues --  -10.21845 -10.21504 -10.21222 -10.21169 -10.20682
 Alpha  occ. eigenvalues --  -10.20559 -10.20489 -10.20471 -10.20268 -10.20188
 Alpha  occ. eigenvalues --  -10.20139 -10.20001 -10.19908 -10.19813 -10.19473
 Alpha  occ. eigenvalues --  -10.19471 -10.19396 -10.19363 -10.19321 -10.19255
 Alpha  occ. eigenvalues --  -10.19251 -10.19194 -10.19125 -10.19018 -10.19003
 Alpha  occ. eigenvalues --  -10.18836 -10.18559 -10.18558 -10.18298 -10.18176
 Alpha  occ. eigenvalues --  -10.18036 -10.18006 -10.17957 -10.17820 -10.17811
 Alpha  occ. eigenvalues --  -10.17715 -10.17548 -10.17449 -10.16924 -10.16916
 Alpha  occ. eigenvalues --  -10.16859 -10.16472 -10.16320 -10.16036 -10.15553
 Alpha  occ. eigenvalues --  -10.15454  -1.03995  -1.02175  -0.93648  -0.91448
 Alpha  occ. eigenvalues --   -0.87604  -0.86095  -0.85852  -0.85265  -0.83987
 Alpha  occ. eigenvalues --   -0.83108  -0.81260  -0.80078  -0.79856  -0.79674
 Alpha  occ. eigenvalues --   -0.78715  -0.77916  -0.77240  -0.75991  -0.75636
 Alpha  occ. eigenvalues --   -0.74709  -0.73837  -0.73073  -0.72576  -0.71961
 Alpha  occ. eigenvalues --   -0.71436  -0.71146  -0.68056  -0.67833  -0.67251
 Alpha  occ. eigenvalues --   -0.67109  -0.66750  -0.66631  -0.65381  -0.63990
 Alpha  occ. eigenvalues --   -0.63480  -0.63406  -0.62688  -0.62372  -0.61524
 Alpha  occ. eigenvalues --   -0.60606  -0.60233  -0.59758  -0.59151  -0.58345
 Alpha  occ. eigenvalues --   -0.57400  -0.56364  -0.55341  -0.54701  -0.53224
 Alpha  occ. eigenvalues --   -0.53014  -0.52504  -0.52169  -0.51659  -0.51283
 Alpha  occ. eigenvalues --   -0.49944  -0.49528  -0.48984  -0.48566  -0.48119
 Alpha  occ. eigenvalues --   -0.47304  -0.46795  -0.46614  -0.46545  -0.45857
 Alpha  occ. eigenvalues --   -0.45710  -0.45462  -0.45177  -0.44747  -0.44405
 Alpha  occ. eigenvalues --   -0.44099  -0.43317  -0.43237  -0.43093  -0.43021
 Alpha  occ. eigenvalues --   -0.42945  -0.42662  -0.42486  -0.42404  -0.42226
 Alpha  occ. eigenvalues --   -0.42051  -0.41422  -0.41299  -0.41254  -0.41050
 Alpha  occ. eigenvalues --   -0.40456  -0.40191  -0.40000  -0.39620  -0.39396
 Alpha  occ. eigenvalues --   -0.39324  -0.38583  -0.37856  -0.37751  -0.37288
 Alpha  occ. eigenvalues --   -0.37170  -0.37105  -0.36705  -0.36640  -0.36547
 Alpha  occ. eigenvalues --   -0.36410  -0.36358  -0.36276  -0.36090  -0.36008
 Alpha  occ. eigenvalues --   -0.35686  -0.35363  -0.35046  -0.34976  -0.34631
 Alpha  occ. eigenvalues --   -0.34499  -0.34020  -0.33595  -0.33532  -0.33263
 Alpha  occ. eigenvalues --   -0.33154  -0.33066  -0.31921  -0.31836  -0.31490
 Alpha  occ. eigenvalues --   -0.31210  -0.30853  -0.30772  -0.30655  -0.30558
 Alpha  occ. eigenvalues --   -0.30189  -0.29572  -0.28325  -0.27307  -0.27054
 Alpha  occ. eigenvalues --   -0.26713  -0.25727  -0.25287  -0.24912  -0.24491
 Alpha  occ. eigenvalues --   -0.24228  -0.22468  -0.21981  -0.21900  -0.20815
 Alpha  occ. eigenvalues --   -0.19506
 Alpha virt. eigenvalues --   -0.05849  -0.04286  -0.03414  -0.03017  -0.01590
 Alpha virt. eigenvalues --   -0.00456  -0.00280   0.00289   0.01637   0.02106
 Alpha virt. eigenvalues --    0.02537   0.02682   0.04591   0.06893   0.08163

 Mulliken charges:
               1
     1  C   -0.441036
     2  C   -0.082402
     3  C   -0.446771
     4  C   -0.344271
     5  C    0.173677
     6  C   -0.249036
     7  C    0.115409
     8  C    0.241301
     9  C   -0.163500
    10  C   -0.105498
    11  C   -0.144945
    12  C    0.044345
    13  N   -0.479360
    14  C   -0.222890
    15  C    0.106832
    16  C    0.061660
    17  C   -0.199802
    18  C   -0.150478
    19  C   -0.165443
    20  C    0.323520
    21  C    0.209882
    22  N   -0.728360
    23  C    0.532737
    24  C    0.116366
    25  C   -0.311203
    26  C    0.195067
    27  C    0.017823
    28  C   -0.439371
    29  C   -0.462356
    30  C   -0.439206
    31  C   -0.285382
    32  C    0.144464
    33  C    0.038499
    34  C   -0.458286
    35  C   -0.453436
    36  C   -0.457193
    37  C    0.218078
    38  O   -0.672991
    39  N   -0.695661
    40  C    0.051468
    41  C    0.091873
    42  C    0.071355
    43  C   -0.161741
    44  C   -0.133298
    45  C   -0.121452
    46  C   -0.137925
    47  C   -0.159334
    48  C   -0.201001
    49  C   -0.175763
    50  C    0.121830
    51  C   -0.195441
    52  C   -0.130201
    53  C   -0.135388
    54  C   -0.184702
    55  C    0.160201
    56  C   -0.219618
    57  H    0.133584
    58  H    0.145010
    59  H    0.138622
    60  H    0.157296
    61  H    0.127432
    62  H    0.153223
    63  H    0.143165
    64  H    0.139563
    65  H    0.130473
    66  H    0.121841
    67  H    0.141820
    68  H    0.141167
    69  H    0.135974
    70  H    0.137872
    71  H    0.156334
    72  H    0.139244
    73  H    0.129182
    74  H    0.139503
    75  H    0.150043
    76  H    0.142040
    77  H    0.135330
    78  H    0.146740
    79  H    0.150993
    80  H    0.136947
    81  H    0.146156
    82  H    0.135740
    83  H    0.142313
    84  H    0.145260
    85  H    0.127024
    86  H    0.129689
    87  H    0.183085
    88  H    0.133808
    89  H    0.133726
    90  H    0.180317
    91  H    0.128138
    92  H    0.140231
    93  H    0.140921
    94  H    0.140580
    95  H    0.454625
    96  H    0.132247
    97  H    0.132822
    98  H    0.133736
    99  H    0.139195
   100  H    0.152433
   101  H    0.146236
   102  H    0.138862
   103  H    0.136065
   104  H    0.137331
   105  H    0.140284
   106  H    0.157351
   107  H    0.136784
 Sum of Mulliken charges =  -0.00000

 Dipole moment (field-independent basis, Debye):
    X=              2.1674    Y=             -2.0840    Z=              0.0854  Tot=              3.0080
 Quadrupole moment (field-independent basis, Debye-Ang):
   XX=           -285.8716   YY=           -314.1266   ZZ=           -318.7228
   XY=            -12.7389   XZ=            -15.2524   YZ=             -4.2378

 Normal termination of Gaussian 16 at Sat Nov  5 00:07:03 2022.
