 Gaussian 16, Revision B.01,
 Gaussian 16:  ES64L-G16RevB.01 20-Dec-2017

 -----------------------------
 #p b3lyp/6-31g(d) opt SCF=XQC
 -----------------------------

 ------------------------------
 Gaussian input prepared by ASE
 ------------------------------
 Symbolic Z-matrix:
 Charge =  0 Multiplicity = 1

 SCF Done:  E(RB3LYP) =  -1011.81237946     A.U. after   15 cycles
 SCF Done:  E(RB3LYP) =  -1011.81711113     A.U. after   12 cycles
 SCF Done:  E(RB3LYP) =  -1011.81785904     A.U. after   13 cycles
 SCF Done:  E(RB3LYP) =  -1011.81780696     A.U. after   12 cycles
 SCF Done:  E(RB3LYP) =  -1011.81814867     A.U. after   13 cycles
 SCF Done:  E(RB3LYP) =  -1011.81886033     A.U. after   12 cycles
 SCF Done:  E(RB3LYP) =  -1011.81906819     A.U. after   12 cycles
 SCF Done:  E(RB3LYP) =  -1011.81921149     A.U. after   12 cycles
 SCF Done:  E(RB3LYP) =  -1011.81926717     A.U. after   10 cycles
 SCF Done:  E(RB3LYP) =  -1011.81928154     A.U. after   10 cycles
 SCF Done:  E(RB3LYP) =  -1011.81928373     A.U. after    8 cycles
 SCF Done:  E(RB3LYP) =  -1011.81928455     A.U. after    8 cycles
 SCF Done:  E(RB3LYP) =  -1011.81928473     A.U. after    7 cycles
 SCF Done:  E(RB3LYP) =  -1011.81928488     A.U. after    7 cycles
 SCF Done:  E(RB3LYP) =  -1011.81928507     A.U. after    8 cycles
 SCF Done:  E(RB3LYP) =  -1011.81928522     A.U. after    8 cycles
 SCF Done:  E(RB3LYP) =  -1011.81928531     A.U. after    8 cycles
 SCF Done:  E(RB3LYP) =  -1011.81928536     A.U. after    7 cycles
 Optimization completed.
    -- Stationary point found.

                         Standard orientation:
 ---------------------------------------------------------------------
 Center     Atomic      Atomic             Coordinates (Angstroms)
 Number     Number       Type             X           Y           Z
 ---------------------------------------------------------------------
      1          7           0        1.216511    0.227414    2.034691
      2          6           0        1.561791    0.624222    0.651718
      3          6           0        0.527130    1.571022   -0.013436
      4          6           0        0.980829    2.686194   -0.731854
      5          6           0        0.110044    3.608912   -1.308702
      6          6           0       -1.265701    3.444026   -1.159998
      7          6           0       -1.754430    2.348386   -0.453132
      8          6           0       -0.869555    1.411931    0.089921
      9          8           0       -1.355575    0.333095    0.824317
     10          6           0       -2.549646   -0.291153    0.512692
     11          6           0       -2.980114   -0.514665   -0.799311
     12          6           0       -4.157939   -1.230900   -1.017362
     13          6           0       -4.900659   -1.727954    0.055107
     14          6           0       -4.457058   -1.502410    1.359864
     15          6           0       -3.286068   -0.782573    1.593102
     16          7           0        2.816646    1.389582    0.803751
     17          6           0        3.893838    0.715051    0.923180
     18          7           0        4.018713   -0.644368    0.747035
     19          6           0        3.026328   -1.318799    0.027894
     20          6           0        3.284795   -2.559884   -0.562756
     21          6           0        2.308533   -3.166961   -1.347889
     22          6           0        1.089473   -2.523169   -1.563967
     23          6           0        0.843326   -1.284179   -0.969234
     24          6           0        1.787591   -0.671627   -0.143881
     25          1           0        1.186817    1.080454    2.595515
     26          1           0        0.278220   -0.166658    2.040459
     27          1           0        2.052326    2.827838   -0.809127
     28          1           0        0.507129    4.457752   -1.858389
     29          1           0       -1.961146    4.164834   -1.581578
     30          1           0       -2.821887    2.210785   -0.318416
     31          1           0       -2.408373   -0.127238   -1.635671
     32          1           0       -4.491112   -1.403660   -2.037289
     33          1           0       -5.815417   -2.285310   -0.124219
     34          1           0       -5.025449   -1.883891    2.203769
     35          1           0       -2.927286   -0.596968    2.600685
     36          1           0        4.824681    1.230511    1.164879
     37          1           0        4.946949   -1.044193    0.761119
     38          1           0        4.252363   -3.035688   -0.416329
     39          1           0        2.508302   -4.133736   -1.801934
     40          1           0        0.327448   -2.985208   -2.184881
     41          1           0       -0.107107   -0.795588   -1.143201
 ---------------------------------------------------------------------

 The electronic state is 1-A.
 Alpha  occ. eigenvalues --  -19.19055 -14.37287 -14.30341 -14.29402 -10.25471
 Alpha  occ. eigenvalues --  -10.25390 -10.25050 -10.24884 -10.22922 -10.19628
 Alpha  occ. eigenvalues --  -10.19545 -10.19360 -10.19120 -10.18971 -10.18860
 Alpha  occ. eigenvalues --  -10.18858 -10.18845 -10.18761 -10.18729 -10.18554
 Alpha  occ. eigenvalues --  -10.18344 -10.17972 -10.17969 -10.17819  -1.07678
 Alpha  occ. eigenvalues --   -0.98262  -0.90603  -0.85979  -0.85315  -0.84136
 Alpha  occ. eigenvalues --   -0.82782  -0.76306  -0.75580  -0.75045  -0.74119
 Alpha  occ. eigenvalues --   -0.73815  -0.72158  -0.65787  -0.63383  -0.63093
 Alpha  occ. eigenvalues --   -0.61980  -0.61556  -0.59184  -0.57590  -0.54533
 Alpha  occ. eigenvalues --   -0.54018  -0.53595  -0.52234  -0.50530  -0.48492
 Alpha  occ. eigenvalues --   -0.47796  -0.46821  -0.46208  -0.45355  -0.45167
 Alpha  occ. eigenvalues --   -0.44422  -0.43484  -0.43226  -0.42667  -0.42307
 Alpha  occ. eigenvalues --   -0.41614  -0.40206  -0.39604  -0.39034  -0.38455
 Alpha  occ. eigenvalues --   -0.36947  -0.36425  -0.35871  -0.35696  -0.35050
 Alpha  occ. eigenvalues --   -0.34425  -0.34299  -0.33121  -0.32493  -0.27298
 Alpha  occ. eigenvalues --   -0.25808  -0.25579  -0.24866  -0.24513  -0.23702
 Alpha  occ. eigenvalues --   -0.22631  -0.21165  -0.20611
 Alpha virt. eigenvalues --   -0.00912  -0.00509   0.00026   0.00267   0.00647
 Alpha virt. eigenvalues --    0.01764   0.04435   0.07336   0.08620   0.10202
 Alpha virt. eigenvalues --    0.10435   0.12529   0.13332   0.14060   0.14562

 Mulliken charges:
               1
     1  N   -0.702889
     2  C    0.124686
     3  C    0.066131
     4  C   -0.163456
     5  C   -0.130312
     6  C   -0.137166
     7  C   -0.177636
     8  C    0.293374
     9  O   -0.603084
    10  C    0.357095
    11  C   -0.172231
    12  C   -0.139551
    13  C   -0.127781
    14  C   -0.136573
    15  C   -0.174383
    16  N   -0.426317
    17  C    0.232144
    18  N   -0.656875
    19  C    0.326287
    20  C   -0.179119
    21  C   -0.137382
    22  C   -0.134347
    23  C   -0.196528
    24  C    0.144254
    25  H    0.295333
    26  H    0.320855
    27  H    0.153592
    28  H    0.126480
    29  H    0.130101
    30  H    0.147354
    31  H    0.153476
    32  H    0.135319
    33  H    0.130614
    34  H    0.135604
    35  H    0.142192
    36  H    0.148043
    37  H    0.324447
    38  H    0.119373
    39  H    0.128187
    40  H    0.124899
    41  H    0.135790
 Sum of Mulliken charges =  -0.00000

 Dipole moment (field-independent basis, Debye):
    X=              0.3761    Y=             -1.1084    Z=             -1.0223  Tot=              1.5541
 Quadrupole moment (field-independent basis, Debye-Ang):
   XX=           -108.9053   YY=           -134.1989   ZZ=           -135.3887
   XY=             -2.9725   XZ=              0.6064   YZ=             -0.0043

 Normal termination of Gaussian 16 at Fri Nov  4 22:24:24 2022.
