 Gaussian 16, Revision B.01,
 Gaussian 16:  ES64L-G16RevB.01 20-Dec-2017

 -------------------------------------------------------------------
 #p b3lyp/6-31g(d) 6D 10F nosymm GFInput td=(50-50,nstate=2) SCF=XQC
 -------------------------------------------------------------------

 ------------------------------
 Gaussian input prepared by ASE
 ------------------------------
 Symbolic Z-matrix:
 Charge =  0 Multiplicity = 1

                          Input orientation:
 ---------------------------------------------------------------------
 Center     Atomic      Atomic             Coordinates (Angstroms)
 Number     Number       Type             X           Y           Z
 ---------------------------------------------------------------------
      1          7           0       -1.205509    1.155571   -1.874088
      2          6           0       -1.389391    1.305893   -0.413650
      3          6           0       -0.100543    1.713804    0.349148
      4          6           0       -0.170933    2.715254    1.327779
      5          6           0        0.953559    3.170972    2.013540
      6          6           0        2.205663    2.636875    1.715292
      7          6           0        2.315603    1.640204    0.749112
      8          6           0        1.173891    1.168206    0.094460
      9          8           0        1.286154    0.194279   -0.894632
     10          6           0        2.227904   -0.816355   -0.828853
     11          6           0        2.584579   -1.457696    0.361977
     12          6           0        3.480710   -2.526736    0.318260
     13          6           0        4.014703   -2.962023   -0.895931
     14          6           0        3.646301   -2.316514   -2.078150
     15          6           0        2.757578   -1.242686   -2.049011
     16          7           0       -2.342296    2.428327   -0.288502
     17          6           0       -3.578401    2.158331   -0.458043
     18          7           0       -4.121519    0.898499   -0.569788
     19          6           0       -3.381320   -0.192092   -0.101209
     20          6           0       -4.008317   -1.398314    0.227223
     21          6           0       -3.261348   -2.437077    0.775924
     22          6           0       -1.898882   -2.260844    1.020656
     23          6           0       -1.284295   -1.051883    0.688858
     24          6           0       -1.999729   -0.008405    0.099477
     25          1           0       -0.917162    2.065345   -2.237746
     26          1           0       -0.438677    0.508761   -2.045328
     27          1           0       -1.142514    3.152404    1.525438
     28          1           0        0.850903    3.948241    2.765655
     29          1           0        3.098123    2.995012    2.221444
     30          1           0        3.283820    1.221345    0.496805
     31          1           0        2.175172   -1.120680    1.308176
     32          1           0        3.756905   -3.023939    1.244331
     33          1           0        4.710480   -3.795619   -0.920416
     34          1           0        4.054291   -2.645268   -3.030114
     35          1           0        2.461280   -0.728725   -2.958104
     36          1           0       -4.303474    2.972536   -0.501895
     37          1           0       -5.128466    0.812947   -0.590281
     38          1           0       -5.078309   -1.511493    0.064966
     39          1           0       -3.748356   -3.375764    1.025737
     40          1           0       -1.312007   -3.062604    1.459354
     41          1           0       -0.226170   -0.928091    0.882132
 ---------------------------------------------------------------------

 SCF Done:  E(RB3LYP) =  -1011.81929041     A.U. after   15 cycles

 Excitation energies and oscillator strengths:

 Excited state symmetry could not be determined.
 Excited State   1:      Triplet-?Sym    3.5390 eV  350.34 nm  f=0.0000  <S**2>=2.000
      75 -> 90         0.13186
      76 -> 87        -0.12025
      80 -> 85        -0.10898
      80 -> 87         0.20916
      80 -> 88         0.10153
      82 -> 86        -0.10152
      83 -> 85         0.13857
      83 -> 86         0.54758
      83 -> 88        -0.11923
 This state for optimization and/or second-order correction.
 Total Energy, E(TD-HF/TD-DFT) =  -1011.68923519
 Copying the excited state density for this state as the 1-particle RhoCI density.

 Excited state symmetry could not be determined.
 Excited State   2:      Triplet-?Sym    3.5949 eV  344.89 nm  f=0.0000  <S**2>=2.000
      77 -> 84         0.17798
      78 -> 89        -0.21370
      79 -> 84         0.14641
      79 -> 88         0.18685
      81 -> 84         0.13560
      81 -> 85        -0.12970
      82 -> 85         0.42939
      82 -> 89        -0.12341

 Excited state symmetry could not be determined.
 Excited State   3:      Singlet-?Sym    4.7830 eV  259.22 nm  f=0.0257  <S**2>=0.000
      82 -> 84         0.54662
      83 -> 84         0.32427
      83 -> 85         0.13104
      83 -> 87        -0.15073

 Excited state symmetry could not be determined.
 Excited State   4:      Singlet-?Sym    4.8090 eV  257.82 nm  f=0.0183  <S**2>=0.000
      80 -> 86         0.17920
      82 -> 84        -0.28342
      82 -> 86        -0.12286
      83 -> 84         0.12753
      83 -> 85         0.44722
      83 -> 86        -0.10756
      83 -> 87        -0.32552

 Alpha  occ. eigenvalues --  -19.19055 -14.37287 -14.30341 -14.29402 -10.25471
 Alpha  occ. eigenvalues --  -10.25390 -10.25050 -10.24884 -10.22922 -10.19628
 Alpha  occ. eigenvalues --  -10.19545 -10.19360 -10.19120 -10.18971 -10.18860
 Alpha  occ. eigenvalues --  -10.18858 -10.18845 -10.18761 -10.18729 -10.18554
 Alpha  occ. eigenvalues --  -10.18344 -10.17972 -10.17969 -10.17819  -1.07678
 Alpha  occ. eigenvalues --   -0.98262  -0.90603  -0.85979  -0.85315  -0.84136
 Alpha  occ. eigenvalues --   -0.82782  -0.76306  -0.75580  -0.75045  -0.74119
 Alpha  occ. eigenvalues --   -0.73816  -0.72158  -0.65787  -0.63383  -0.63094
 Alpha  occ. eigenvalues --   -0.61980  -0.61556  -0.59184  -0.57590  -0.54533
 Alpha  occ. eigenvalues --   -0.54018  -0.53595  -0.52234  -0.50530  -0.48492
 Alpha  occ. eigenvalues --   -0.47796  -0.46821  -0.46208  -0.45355  -0.45167
 Alpha  occ. eigenvalues --   -0.44422  -0.43484  -0.43226  -0.42667  -0.42307
 Alpha  occ. eigenvalues --   -0.41614  -0.40206  -0.39604  -0.39034  -0.38455
 Alpha  occ. eigenvalues --   -0.36947  -0.36425  -0.35871  -0.35696  -0.35050
 Alpha  occ. eigenvalues --   -0.34425  -0.34299  -0.33121  -0.32493  -0.27298
 Alpha  occ. eigenvalues --   -0.25808  -0.25579  -0.24866  -0.24513  -0.23702
 Alpha  occ. eigenvalues --   -0.22631  -0.21165  -0.20611
 Alpha virt. eigenvalues --   -0.00912  -0.00509   0.00026   0.00267   0.00647
 Alpha virt. eigenvalues --    0.01764   0.04434   0.07336   0.08620   0.10202
 Alpha virt. eigenvalues --    0.10435   0.12529   0.13332   0.14060   0.14562

 Mulliken charges:
               1
     1  N   -0.702879
     2  C    0.124645
     3  C    0.066163
     4  C   -0.163462
     5  C   -0.130309
     6  C   -0.137168
     7  C   -0.177630
     8  C    0.293343
     9  O   -0.603074
    10  C    0.357097
    11  C   -0.172246
    12  C   -0.139543
    13  C   -0.127785
    14  C   -0.136571
    15  C   -0.174376
    16  N   -0.426313
    17  C    0.232133
    18  N   -0.656860
    19  C    0.326258
    20  C   -0.179115
    21  C   -0.137377
    22  C   -0.134351
    23  C   -0.196544
    24  C    0.144300
    25  H    0.295334
    26  H    0.320855
    27  H    0.153592
    28  H    0.126480
    29  H    0.130101
    30  H    0.147354
    31  H    0.153479
    32  H    0.135319
    33  H    0.130614
    34  H    0.135604
    35  H    0.142191
    36  H    0.148044
    37  H    0.324446
    38  H    0.119372
    39  H    0.128187
    40  H    0.124904
    41  H    0.135791
 Sum of Mulliken charges =  -0.00000

 Dipole moment (field-independent basis, Debye):
    X=             -0.6910    Y=             -1.1482    Z=              0.7870  Tot=              1.5541
 Quadrupole moment (field-independent basis, Debye-Ang):
   XX=           -109.4879   YY=           -133.7688   ZZ=           -135.4244
   XY=             -5.0350   XZ=             -1.0253   YZ=              0.4706

 Normal termination of Gaussian 16 at Sat Nov  5 10:02:30 2022.
