 Gaussian 16, Revision B.01,
 Gaussian 16:  ES64L-G16RevB.01 20-Dec-2017

 -------------------------------------------------------------------
 #p b3lyp/6-31g(d) 6D 10F nosymm GFInput td=(50-50,nstate=2) SCF=XQC
 -------------------------------------------------------------------

 ------------------------------
 Gaussian input prepared by ASE
 ------------------------------
 Symbolic Z-matrix:
 Charge =  0 Multiplicity = 1

                          Input orientation:
 ---------------------------------------------------------------------
 Center     Atomic      Atomic             Coordinates (Angstroms)
 Number     Number       Type             X           Y           Z
 ---------------------------------------------------------------------
      1          7           0       -0.738936    4.382692    0.394726
      2          6           0       -0.429133    3.023469    0.232652
      3          6           0       -1.465294    2.070557    0.195414
      4          6           0       -1.194540    0.696344    0.098206
      5          6           0       -2.157436   -0.406143    0.047606
      6          6           0       -3.549306   -0.213824    0.100701
      7          6           0       -4.423175   -1.292317    0.049321
      8          6           0       -3.930616   -2.599663   -0.056790
      9          6           0       -2.560274   -2.813689   -0.110014
     10          6           0       -1.664850   -1.735271   -0.059143
     11          6           0       -0.211805   -2.069569   -0.122052
     12          8           0        0.222469   -3.212412   -0.215335
     13          7           0        0.628604   -0.961522   -0.065192
     14          6           0        2.039074   -0.903111   -0.099395
     15          6           0        2.966659   -1.937834   -0.196382
     16          6           0        4.317384   -1.584554   -0.208259
     17          6           0        4.726451   -0.244926   -0.125873
     18          6           0        3.789306    0.782734   -0.029018
     19          6           0        2.430268    0.458929   -0.015235
     20          6           0        1.212937    1.257643    0.073338
     21          6           0        0.919220    2.615773    0.171259
     22          6           0        0.149421    0.342499    0.039011
     23          1           0       -1.656799    4.645711    0.056473
     24          1           0       -0.032348    5.016150    0.040367
     25          1           0       -2.491852    2.421716    0.251473
     26          1           0       -3.949275    0.791939    0.184454
     27          1           0       -5.494854   -1.117033    0.092566
     28          1           0       -4.616659   -3.440848   -0.096559
     29          1           0       -2.145158   -3.812666   -0.191480
     30          1           0        2.637339   -2.966581   -0.258964
     31          1           0        5.066331   -2.368105   -0.282816
     32          1           0        5.786249   -0.006294   -0.137308
     33          1           0        4.110905    1.818794    0.035409
     34          1           0        1.709692    3.361407    0.206835
 ---------------------------------------------------------------------

 SCF Done:  E(RB3LYP) =  -916.038009041     A.U. after   15 cycles

 Excitation energies and oscillator strengths:

 Excited state symmetry could not be determined.
 Excited State   1:      Triplet-?Sym    2.5478 eV  486.64 nm  f=0.0000  <S**2>=2.000
      74 -> 75         0.68100
      74 -> 76        -0.10070
 This state for optimization and/or second-order correction.
 Total Energy, E(TD-HF/TD-DFT) =  -915.944379666
 Copying the excited state density for this state as the 1-particle RhoCI density.

 Excited state symmetry could not be determined.
 Excited State   2:      Triplet-?Sym    2.8168 eV  440.16 nm  f=0.0000  <S**2>=2.000
      71 -> 77         0.10531
      72 -> 75         0.13613
      73 -> 75         0.58280
      73 -> 76        -0.16750
      74 -> 77        -0.17980
      74 -> 79        -0.10363

 Excited state symmetry could not be determined.
 Excited State   3:      Singlet-?Sym    3.2549 eV  380.92 nm  f=0.1511  <S**2>=0.000
      74 -> 75         0.69193

 Excited state symmetry could not be determined.
 Excited State   4:      Singlet-?Sym    3.7857 eV  327.51 nm  f=0.0080  <S**2>=0.000
      73 -> 75        -0.13311
      74 -> 76         0.68375

 Alpha  occ. eigenvalues --  -19.11987 -14.39332 -14.34604 -10.29657 -10.23659
 Alpha  occ. eigenvalues --  -10.22954 -10.22220 -10.21661 -10.20887 -10.20620
 Alpha  occ. eigenvalues --  -10.20301 -10.20150 -10.20028 -10.19858 -10.19753
 Alpha  occ. eigenvalues --  -10.19670 -10.19626 -10.19571 -10.19417 -10.19018
 Alpha  occ. eigenvalues --  -10.18846 -10.18815  -1.04417  -0.98281  -0.92319
 Alpha  occ. eigenvalues --   -0.87449  -0.85111  -0.84220  -0.80072  -0.76838
 Alpha  occ. eigenvalues --   -0.75981  -0.74172  -0.73198  -0.72178  -0.66482
 Alpha  occ. eigenvalues --   -0.65007  -0.62092  -0.61038  -0.59773  -0.58076
 Alpha  occ. eigenvalues --   -0.55405  -0.54180  -0.52575  -0.51967  -0.50342
 Alpha  occ. eigenvalues --   -0.47832  -0.47644  -0.46253  -0.46121  -0.45024
 Alpha  occ. eigenvalues --   -0.44249  -0.43329  -0.43115  -0.42400  -0.42153
 Alpha  occ. eigenvalues --   -0.41701  -0.39936  -0.39311  -0.38600  -0.38007
 Alpha  occ. eigenvalues --   -0.36235  -0.35993  -0.35032  -0.34679  -0.34242
 Alpha  occ. eigenvalues --   -0.33855  -0.30258  -0.29587  -0.25936  -0.25891
 Alpha  occ. eigenvalues --   -0.24945  -0.23768  -0.21935  -0.19528
 Alpha virt. eigenvalues --   -0.05908  -0.03552  -0.01254   0.01071   0.02303
 Alpha virt. eigenvalues --    0.05051   0.07049   0.07989   0.09125   0.09983
 Alpha virt. eigenvalues --    0.11298   0.11370   0.14016   0.14292   0.15117

 Mulliken charges:
               1
     1  N   -0.792042
     2  C    0.328277
     3  C   -0.288286
     4  C    0.139040
     5  C    0.110976
     6  C   -0.189495
     7  C   -0.128100
     8  C   -0.129551
     9  C   -0.181022
    10  C   -0.006337
    11  C    0.593114
    12  O   -0.518237
    13  N   -0.741968
    14  C    0.317577
    15  C   -0.158924
    16  C   -0.144257
    17  C   -0.137665
    18  C   -0.199337
    19  C    0.034944
    20  C    0.126902
    21  C   -0.276412
    22  C    0.196606
    23  H    0.319136
    24  H    0.319997
    25  H    0.124000
    26  H    0.136174
    27  H    0.136883
    28  H    0.138103
    29  H    0.168630
    30  H    0.180244
    31  H    0.133703
    32  H    0.128903
    33  H    0.130972
    34  H    0.127451
 Sum of Mulliken charges =  -0.00000

 Dipole moment (field-independent basis, Debye):
    X=             -1.5629    Y=              4.1016    Z=             -0.8433  Tot=              4.4695
 Quadrupole moment (field-independent basis, Debye-Ang):
   XX=           -102.3453   YY=           -112.7019   ZZ=           -130.6891
   XY=              1.8223   XZ=              0.4348   YZ=             -4.9348

 Normal termination of Gaussian 16 at Sat Nov  5 09:46:57 2022.
