 Gaussian 16, Revision B.01,
 Gaussian 16:  ES64L-G16RevB.01 20-Dec-2017

 -----------------------------
 #p b3lyp/6-31g(d) opt SCF=XQC
 -----------------------------

 ------------------------------
 Gaussian input prepared by ASE
 ------------------------------
 Symbolic Z-matrix:
 Charge =  0 Multiplicity = 1

 SCF Done:  E(RB3LYP) =  -916.034175376     A.U. after   15 cycles
 SCF Done:  E(RB3LYP) =  -916.037747426     A.U. after   12 cycles
 SCF Done:  E(RB3LYP) =  -916.037911542     A.U. after   11 cycles
 SCF Done:  E(RB3LYP) =  -916.037996102     A.U. after   11 cycles
 SCF Done:  E(RB3LYP) =  -916.038003097     A.U. after    9 cycles
 SCF Done:  E(RB3LYP) =  -916.038007922     A.U. after    9 cycles
 SCF Done:  E(RB3LYP) =  -916.038008505     A.U. after    8 cycles
 Optimization completed.
    -- Stationary point found.

                         Standard orientation:
 ---------------------------------------------------------------------
 Center     Atomic      Atomic             Coordinates (Angstroms)
 Number     Number       Type             X           Y           Z
 ---------------------------------------------------------------------
      1          7           0       -0.010769    4.631834   -0.067289
      2          6           0       -0.084552    3.231715   -0.004396
      3          6           0        1.099383    2.469249   -0.003432
      4          6           0        1.067585    1.065610   -0.005207
      5          6           0        2.204881    0.142702   -0.002817
      6          6           0        3.543570    0.572828   -0.006243
      7          6           0        4.589036   -0.341737   -0.003825
      8          6           0        4.327134   -1.718109    0.001887
      9          6           0        3.013381   -2.165907    0.004561
     10          6           0        1.946687   -1.255129    0.002078
     11          6           0        0.572013   -1.835921    0.004215
     12          8           0        0.339420   -3.039771    0.009634
     13          7           0       -0.445498   -0.886218   -0.000816
     14          6           0       -1.845348   -1.071762   -0.000014
     15          6           0       -2.582498   -2.253739    0.003293
     16          6           0       -3.973880   -2.137715    0.003055
     17          6           0       -4.605971   -0.885049   -0.000624
     18          6           0       -3.858193    0.291609   -0.004017
     19          6           0       -2.463663    0.206105   -0.003496
     20          6           0       -1.400654    1.204947   -0.006497
     21          6           0       -1.343462    2.596746   -0.005900
     22          6           0       -0.196227    0.484471   -0.005199
     23          1           0        0.843169    5.023140    0.311835
     24          1           0       -0.820845    5.109049    0.309740
     25          1           0        2.050970    2.993395   -0.008864
     26          1           0        3.765806    1.635430   -0.012197
     27          1           0        5.615124    0.016348   -0.007007
     28          1           0        5.146955   -2.430654    0.003586
     29          1           0        2.775091   -3.224263    0.008287
     30          1           0       -2.082126   -3.213067    0.005835
     31          1           0       -4.577936   -3.040789    0.005441
     32          1           0       -5.691070   -0.832058   -0.001269
     33          1           0       -4.352189    1.259571   -0.007708
     34          1           0       -2.249775    3.197274   -0.012540
 ---------------------------------------------------------------------

 The electronic state is 1-A.
 Alpha  occ. eigenvalues --  -19.11987 -14.39332 -14.34604 -10.29657 -10.23659
 Alpha  occ. eigenvalues --  -10.22954 -10.22220 -10.21661 -10.20887 -10.20620
 Alpha  occ. eigenvalues --  -10.20301 -10.20150 -10.20028 -10.19858 -10.19753
 Alpha  occ. eigenvalues --  -10.19670 -10.19626 -10.19570 -10.19417 -10.19018
 Alpha  occ. eigenvalues --  -10.18846 -10.18815  -1.04417  -0.98281  -0.92319
 Alpha  occ. eigenvalues --   -0.87449  -0.85111  -0.84220  -0.80072  -0.76838
 Alpha  occ. eigenvalues --   -0.75981  -0.74172  -0.73198  -0.72178  -0.66482
 Alpha  occ. eigenvalues --   -0.65007  -0.62092  -0.61038  -0.59773  -0.58076
 Alpha  occ. eigenvalues --   -0.55405  -0.54180  -0.52575  -0.51967  -0.50342
 Alpha  occ. eigenvalues --   -0.47832  -0.47644  -0.46253  -0.46121  -0.45024
 Alpha  occ. eigenvalues --   -0.44249  -0.43330  -0.43115  -0.42400  -0.42153
 Alpha  occ. eigenvalues --   -0.41701  -0.39936  -0.39311  -0.38600  -0.38007
 Alpha  occ. eigenvalues --   -0.36235  -0.35993  -0.35032  -0.34679  -0.34242
 Alpha  occ. eigenvalues --   -0.33855  -0.30258  -0.29587  -0.25936  -0.25891
 Alpha  occ. eigenvalues --   -0.24945  -0.23768  -0.21935  -0.19528
 Alpha virt. eigenvalues --   -0.05908  -0.03552  -0.01254   0.01071   0.02303
 Alpha virt. eigenvalues --    0.05051   0.07049   0.07989   0.09125   0.09983
 Alpha virt. eigenvalues --    0.11299   0.11370   0.14016   0.14292   0.15117

 Mulliken charges:
               1
     1  N   -0.792042
     2  C    0.328275
     3  C   -0.288281
     4  C    0.139050
     5  C    0.111007
     6  C   -0.189510
     7  C   -0.128100
     8  C   -0.129544
     9  C   -0.181023
    10  C   -0.006365
    11  C    0.593124
    12  O   -0.518230
    13  N   -0.741965
    14  C    0.317560
    15  C   -0.158920
    16  C   -0.144250
    17  C   -0.137666
    18  C   -0.199346
    19  C    0.034948
    20  C    0.126906
    21  C   -0.276412
    22  C    0.196593
    23  H    0.319136
    24  H    0.319997
    25  H    0.123999
    26  H    0.136173
    27  H    0.136882
    28  H    0.138102
    29  H    0.168631
    30  H    0.180242
    31  H    0.133702
    32  H    0.128903
    33  H    0.130972
    34  H    0.127452
 Sum of Mulliken charges =  -0.00000

 Dipole moment (field-independent basis, Debye):
    X=              0.8218    Y=              4.2386    Z=              1.1557  Tot=              4.4695
 Quadrupole moment (field-independent basis, Debye-Ang):
   XX=           -102.0130   YY=           -112.3453   ZZ=           -129.8826
   XY=              0.1480   XZ=              0.0177   YZ=              6.3855

 Normal termination of Gaussian 16 at Fri Nov  4 22:17:21 2022.
