 Gaussian 16, Revision B.01,
 Gaussian 16:  ES64L-G16RevB.01 20-Dec-2017

 -------------------------------------------------------------------
 #p b3lyp/6-31g(d) 6D 10F nosymm GFInput td=(50-50,nstate=2) SCF=XQC
 -------------------------------------------------------------------

 ------------------------------
 Gaussian input prepared by ASE
 ------------------------------
 Symbolic Z-matrix:
 Charge =  0 Multiplicity = 1

                          Input orientation:
 ---------------------------------------------------------------------
 Center     Atomic      Atomic             Coordinates (Angstroms)
 Number     Number       Type             X           Y           Z
 ---------------------------------------------------------------------
      1          6           0        4.191900   -1.049894    0.598215
      2          6           0        3.214551   -0.339467   -0.309888
      3          6           0        3.644575    0.254283   -1.505320
      4          6           0        2.737389    0.883790   -2.356692
      5          6           0        1.380689    0.930632   -2.031485
      6          6           0        0.938054    0.358850   -0.834763
      7          7           0       -0.456185    0.406511   -0.491874
      8          6           0       -1.126026   -0.825478   -0.239286
      9          6           0       -2.130235   -0.912846    0.653450
     10          6           0       -2.957641   -2.155148    0.809612
     11          6           0       -2.138294   -3.411853    0.468775
     12          6           0       -1.297906   -3.210108   -0.771195
     13          6           0       -0.813004   -1.993964   -1.068229
     14          8           0       -2.591033    0.161227    1.387955
     15          6           0       -2.032113    1.397301    1.097472
     16          6           0       -2.568208    2.490030    1.764732
     17          6           0       -2.043412    3.769084    1.557658
     18          6           0       -0.981445    3.932446    0.674374
     19          6           0       -0.451394    2.831298   -0.005516
     20          6           0       -0.964877    1.545075    0.188882
     21          6           0        1.855785   -0.270448    0.015110
     22          1           0        5.172556   -0.561831    0.591548
     23          1           0        3.832826   -1.075279    1.632105
     24          1           0        4.344621   -2.089794    0.279849
     25          1           0        4.698764    0.219583   -1.770707
     26          1           0        3.085789    1.333023   -3.282924
     27          1           0        0.660019    1.397022   -2.696404
     28          1           0       -3.336186   -2.210486    1.836364
     29          1           0       -3.842561   -2.084398    0.154917
     30          1           0       -1.470876   -3.649420    1.314594
     31          1           0       -2.806831   -4.272432    0.355289
     32          1           0       -1.048621   -4.069545   -1.387707
     33          1           0       -0.173212   -1.837444   -1.931614
     34          1           0       -3.387259    2.315268    2.455653
     35          1           0       -2.462509    4.618761    2.088222
     36          1           0       -0.553587    4.916216    0.503486
     37          1           0        0.380826    2.969602   -0.686263
     38          1           0        1.495070   -0.710168    0.941606
 ---------------------------------------------------------------------

 SCF Done:  E(RB3LYP) =  -864.200714374     A.U. after   16 cycles

 Excitation energies and oscillator strengths:

 Excited state symmetry could not be determined.
 Excited State   1:      Triplet-?Sym    1.9456 eV  637.25 nm  f=0.0000  <S**2>=2.000
      72 -> 74         0.15358
      72 -> 78        -0.10147
      73 -> 74         0.64522
      73 -> 76         0.19067
 This state for optimization and/or second-order correction.
 Total Energy, E(TD-HF/TD-DFT) =  -864.129214596
 Copying the excited state density for this state as the 1-particle RhoCI density.

 Excited state symmetry could not be determined.
 Excited State   2:      Singlet-?Sym    2.9564 eV  419.37 nm  f=0.0156  <S**2>=0.000
      73 -> 74         0.70035

 Excited state symmetry could not be determined.
 Excited State   3:      Triplet-?Sym    3.1469 eV  393.99 nm  f=0.0000  <S**2>=2.000
      73 -> 74         0.10217
      73 -> 75         0.61096
      73 -> 76        -0.18849
      73 -> 77         0.20816

 Excited state symmetry could not be determined.
 Excited State   4:      Singlet-?Sym    3.3332 eV  371.97 nm  f=0.0263  <S**2>=0.000
      73 -> 75         0.70126

 Alpha  occ. eigenvalues --  -19.18423 -14.35778 -10.24235 -10.23362 -10.22835
 Alpha  occ. eigenvalues --  -10.22573 -10.21358 -10.20195 -10.19409 -10.19075
 Alpha  occ. eigenvalues --  -10.19010 -10.18997 -10.18948 -10.18905 -10.18671
 Alpha  occ. eigenvalues --  -10.18475 -10.18184 -10.18143 -10.18138 -10.18082
 Alpha  occ. eigenvalues --  -10.18007  -1.07452  -0.95443  -0.85582  -0.85161
 Alpha  occ. eigenvalues --   -0.82341  -0.77409  -0.75618  -0.75133  -0.74785
 Alpha  occ. eigenvalues --   -0.72753  -0.69807  -0.68726  -0.64040  -0.63457
 Alpha  occ. eigenvalues --   -0.60432  -0.59758  -0.58080  -0.55829  -0.55160
 Alpha  occ. eigenvalues --   -0.52009  -0.50148  -0.49433  -0.47314  -0.46504
 Alpha  occ. eigenvalues --   -0.45737  -0.45622  -0.45417  -0.43404  -0.43028
 Alpha  occ. eigenvalues --   -0.42427  -0.42079  -0.41393  -0.41042  -0.40419
 Alpha  occ. eigenvalues --   -0.39167  -0.37951  -0.37446  -0.36448  -0.36174
 Alpha  occ. eigenvalues --   -0.35734  -0.35103  -0.34617  -0.34056  -0.33587
 Alpha  occ. eigenvalues --   -0.33209  -0.31871  -0.28300  -0.24826  -0.24428
 Alpha  occ. eigenvalues --   -0.23531  -0.22271  -0.15742
 Alpha virt. eigenvalues --   -0.02299  -0.00774   0.00118   0.01038   0.02583
 Alpha virt. eigenvalues --    0.08457   0.09513   0.09939   0.10962   0.11989
 Alpha virt. eigenvalues --    0.13288   0.13432   0.14272   0.14540   0.15348

 Mulliken charges:
               1
     1  C   -0.529665
     2  C    0.166983
     3  C   -0.170967
     4  C   -0.139564
     5  C   -0.159318
     6  C    0.222721
     7  N   -0.683532
     8  C    0.283369
     9  C    0.259390
    10  C   -0.340830
    11  C   -0.304672
    12  C   -0.141464
    13  C   -0.129106
    14  O   -0.567406
    15  C    0.315934
    16  C   -0.200919
    17  C   -0.136641
    18  C   -0.134841
    19  C   -0.196434
    20  C    0.336914
    21  C   -0.182090
    22  H    0.158904
    23  H    0.160680
    24  H    0.167995
    25  H    0.124145
    26  H    0.133435
    27  H    0.141507
    28  H    0.158249
    29  H    0.156554
    30  H    0.151406
    31  H    0.143309
    32  H    0.127806
    33  H    0.141472
    34  H    0.138761
    35  H    0.126309
    36  H    0.125934
    37  H    0.139729
    38  H    0.135943
 Sum of Mulliken charges =  -0.00000

 Dipole moment (field-independent basis, Debye):
    X=              1.6223    Y=             -0.9895    Z=             -0.3605  Tot=              1.9341
 Quadrupole moment (field-independent basis, Debye-Ang):
   XX=           -114.4810   YY=           -113.8134   ZZ=           -118.7102
   XY=              1.9022   XZ=             -3.5410   YZ=             -2.0234

 Normal termination of Gaussian 16 at Sat Nov  5 09:48:33 2022.
