 Gaussian 16, Revision B.01,
 Gaussian 16:  ES64L-G16RevB.01 20-Dec-2017

 -----------------------------
 #p b3lyp/6-31g(d) opt SCF=XQC
 -----------------------------

 ------------------------------
 Gaussian input prepared by ASE
 ------------------------------
 Symbolic Z-matrix:
 Charge =  0 Multiplicity = 1

 SCF Done:  E(RB3LYP) =  -864.195485779     A.U. after   16 cycles
 SCF Done:  E(RB3LYP) =  -864.199584025     A.U. after   13 cycles
 SCF Done:  E(RB3LYP) =  -864.199937963     A.U. after   11 cycles
 SCF Done:  E(RB3LYP) =  -864.200121343     A.U. after   12 cycles
 SCF Done:  E(RB3LYP) =  -864.200268807     A.U. after   12 cycles
 SCF Done:  E(RB3LYP) =  -864.200287106     A.U. after   11 cycles
 SCF Done:  E(RB3LYP) =  -864.200395154     A.U. after   11 cycles
 SCF Done:  E(RB3LYP) =  -864.200633929     A.U. after   13 cycles
 SCF Done:  E(RB3LYP) =  -864.200673752     A.U. after   10 cycles
 SCF Done:  E(RB3LYP) =  -864.200705729     A.U. after   11 cycles
 SCF Done:  E(RB3LYP) =  -864.200714344     A.U. after    9 cycles
 SCF Done:  E(RB3LYP) =  -864.200714497     A.U. after    8 cycles
 SCF Done:  E(RB3LYP) =  -864.200714666     A.U. after    8 cycles
 SCF Done:  E(RB3LYP) =  -864.200714722     A.U. after    7 cycles
 SCF Done:  E(RB3LYP) =  -864.200714789     A.U. after    7 cycles
 SCF Done:  E(RB3LYP) =  -864.200714877     A.U. after    7 cycles
 SCF Done:  E(RB3LYP) =  -864.200715065     A.U. after    8 cycles
 SCF Done:  E(RB3LYP) =  -864.200715257     A.U. after    8 cycles
 SCF Done:  E(RB3LYP) =  -864.200715511     A.U. after    9 cycles
 SCF Done:  E(RB3LYP) =  -864.200715641     A.U. after    8 cycles
 Optimization completed.
    -- Stationary point found.

                         Standard orientation:
 ---------------------------------------------------------------------
 Center     Atomic      Atomic             Coordinates (Angstroms)
 Number     Number       Type             X           Y           Z
 ---------------------------------------------------------------------
      1          6           0       -4.050506    0.420748    2.123529
      2          6           0       -3.350027   -0.056242    0.871978
      3          6           0       -4.072848   -0.638193   -0.179393
      4          6           0       -3.429658   -1.050981   -1.345588
      5          6           0       -2.050357   -0.888251   -1.485715
      6          6           0       -1.312324   -0.325858   -0.439758
      7          7           0        0.108016   -0.158699   -0.575554
      8          6           0        0.646594    1.150490   -0.413563
      9          6           0        1.871387    1.350232    0.108963
     10          6           0        2.522548    2.702204    0.130504
     11          6           0        1.470772    3.821287    0.221218
     12          6           0        0.296721    3.558408   -0.693646
     13          6           0       -0.086965    2.298818   -0.955525
     14          8           0        2.697460    0.325634    0.525218
     15          6           0        2.249855   -0.966472    0.291200
     16          6           0        3.125825   -1.992500    0.617745
     17          6           0        2.744163   -3.326333    0.446011
     18          6           0        1.479321   -3.611172   -0.057673
     19          6           0        0.603538   -2.575051   -0.397065
     20          6           0        0.969389   -1.235285   -0.232736
     21          6           0       -1.965806    0.085036    0.728427
     22          1           0       -4.897999   -0.224542    2.379053
     23          1           0       -3.369807    0.441741    2.980684
     24          1           0       -4.444237    1.437752    1.994109
     25          1           0       -5.148661   -0.765515   -0.082624
     26          1           0       -4.005361   -1.493818   -2.154019
     27          1           0       -1.540202   -1.183743   -2.397541
     28          1           0        3.214809    2.756394    0.978098
     29          1           0        3.134323    2.822985   -0.779362
     30          1           0        1.103067    3.889384    1.259222
     31          1           0        1.935573    4.787799   -0.002907
     32          1           0       -0.262861    4.400228   -1.092484
     33          1           0       -0.953081    2.090767   -1.576671
     34          1           0        4.097878   -1.725451    1.020929
     35          1           0        3.431349   -4.124500    0.710200
     36          1           0        1.159297   -4.640439   -0.192814
     37          1           0       -0.382369   -2.809099   -0.782221
     38          1           0       -1.377237    0.520580    1.532013
 ---------------------------------------------------------------------

 The electronic state is 1-A.
 Alpha  occ. eigenvalues --  -19.18423 -14.35778 -10.24235 -10.23362 -10.22835
 Alpha  occ. eigenvalues --  -10.22573 -10.21358 -10.20195 -10.19409 -10.19075
 Alpha  occ. eigenvalues --  -10.19010 -10.18997 -10.18948 -10.18905 -10.18671
 Alpha  occ. eigenvalues --  -10.18475 -10.18184 -10.18143 -10.18138 -10.18082
 Alpha  occ. eigenvalues --  -10.18007  -1.07452  -0.95443  -0.85582  -0.85161
 Alpha  occ. eigenvalues --   -0.82341  -0.77409  -0.75618  -0.75133  -0.74785
 Alpha  occ. eigenvalues --   -0.72753  -0.69807  -0.68726  -0.64040  -0.63457
 Alpha  occ. eigenvalues --   -0.60432  -0.59758  -0.58080  -0.55829  -0.55160
 Alpha  occ. eigenvalues --   -0.52009  -0.50148  -0.49433  -0.47314  -0.46504
 Alpha  occ. eigenvalues --   -0.45737  -0.45622  -0.45417  -0.43404  -0.43028
 Alpha  occ. eigenvalues --   -0.42427  -0.42079  -0.41393  -0.41042  -0.40419
 Alpha  occ. eigenvalues --   -0.39167  -0.37951  -0.37446  -0.36448  -0.36174
 Alpha  occ. eigenvalues --   -0.35734  -0.35103  -0.34617  -0.34056  -0.33587
 Alpha  occ. eigenvalues --   -0.33209  -0.31871  -0.28300  -0.24826  -0.24428
 Alpha  occ. eigenvalues --   -0.23531  -0.22271  -0.15742
 Alpha virt. eigenvalues --   -0.02299  -0.00774   0.00118   0.01038   0.02583
 Alpha virt. eigenvalues --    0.08457   0.09513   0.09939   0.10962   0.11989
 Alpha virt. eigenvalues --    0.13288   0.13432   0.14272   0.14540   0.15348

 Mulliken charges:
               1
     1  C   -0.529664
     2  C    0.166994
     3  C   -0.170968
     4  C   -0.139565
     5  C   -0.159326
     6  C    0.222728
     7  N   -0.683498
     8  C    0.283351
     9  C    0.259370
    10  C   -0.340826
    11  C   -0.304669
    12  C   -0.141468
    13  C   -0.129087
    14  O   -0.567402
    15  C    0.315937
    16  C   -0.200918
    17  C   -0.136639
    18  C   -0.134843
    19  C   -0.196426
    20  C    0.336879
    21  C   -0.182097
    22  H    0.158903
    23  H    0.160679
    24  H    0.167994
    25  H    0.124144
    26  H    0.133435
    27  H    0.141507
    28  H    0.158249
    29  H    0.156553
    30  H    0.151405
    31  H    0.143309
    32  H    0.127805
    33  H    0.141471
    34  H    0.138761
    35  H    0.126310
    36  H    0.125935
    37  H    0.139728
    38  H    0.135947
 Sum of Mulliken charges =  -0.00000

 Dipole moment (field-independent basis, Debye):
    X=             -1.7687    Y=              0.7218    Z=              0.3019  Tot=              1.9341
 Quadrupole moment (field-independent basis, Debye-Ang):
   XX=           -112.6710   YY=           -113.3504   ZZ=           -120.0120
   XY=              1.9985   XZ=              1.2508   YZ=              2.3403

 Normal termination of Gaussian 16 at Fri Nov  4 22:39:18 2022.
