 Gaussian 16, Revision B.01,
 Gaussian 16:  ES64L-G16RevB.01 20-Dec-2017

 -------------------------------------------------------------------
 #p b3lyp/6-31g(d) 6D 10F nosymm GFInput td=(50-50,nstate=2) SCF=XQC
 -------------------------------------------------------------------

 ------------------------------
 Gaussian input prepared by ASE
 ------------------------------
 Symbolic Z-matrix:
 Charge =  0 Multiplicity = 1

                          Input orientation:
 ---------------------------------------------------------------------
 Center     Atomic      Atomic             Coordinates (Angstroms)
 Number     Number       Type             X           Y           Z
 ---------------------------------------------------------------------
      1          6           0       -2.703339   -1.567627   -0.049728
      2          6           0       -2.827649   -0.392281    0.588234
      3          6           0       -3.584162   -0.166545    1.844933
      4          7           0       -4.657870   -0.701179    2.284171
      5          6           0       -5.432447   -1.695889    1.709385
      6          7           0       -5.037866   -2.895511    1.510349
      7          7           0       -2.138786    0.769713    0.124651
      8          6           0       -2.822009    1.895634   -0.365454
      9          6           0       -4.164981    2.252163   -0.297883
     10          6           0       -4.511753    3.459011   -0.908477
     11          6           0       -3.532408    4.227141   -1.556009
     12          7           0       -2.243324    3.881232   -1.645769
     13          6           0       -1.908401    2.728308   -1.056179
     14          6           0       -0.622357    2.075581   -0.992099
     15          6           0        0.631525    2.420225   -1.509286
     16          7           0        1.711674    1.661289   -1.341104
     17          6           0        1.535972    0.558082   -0.606252
     18          6           0        0.340871    0.082936    0.015438
     19          6           0        0.709831   -1.105030    0.764394
     20          6           0        0.044719   -1.986789    1.633182
     21          6           0        0.735282   -3.059644    2.188471
     22          6           0        2.090617   -3.274412    1.894187
     23          6           0        2.788732   -2.403541    1.063471
     24          6           0        2.097868   -1.315453    0.524070
     25          7           0        2.583798   -0.305758   -0.305811
     26          6           0        3.938102   -0.135482   -0.718434
     27          6           0        4.245135    0.003612   -2.075956
     28          6           0        5.571769    0.167575   -2.470595
     29          6           0        6.595989    0.180576   -1.521267
     30          6           0        6.285900    0.041937   -0.167665
     31          6           0        4.959351   -0.106338    0.237749
     32          6           0       -0.792053    0.877324   -0.249308
     33          1           0       -2.108480   -1.640104   -0.955204
     34          1           0       -3.153784   -2.464606    0.357635
     35          1           0       -3.155611    0.622344    2.471313
     36          1           0       -6.467141   -1.355760    1.566846
     37          1           0       -5.827763   -3.467823    1.201191
     38          1           0       -4.908572    1.638439    0.200171
     39          1           0       -5.540502    3.805189   -0.888430
     40          1           0       -3.808570    5.166527   -2.030966
     41          1           0        0.751988    3.336889   -2.081594
     42          1           0       -0.996573   -1.837428    1.883309
     43          1           0        0.215394   -3.737630    2.859146
     44          1           0        2.608255   -4.125883    2.327256
     45          1           0        3.838652   -2.560740    0.842032
     46          1           0        3.445731   -0.007266   -2.807845
     47          1           0        5.805147    0.279872   -3.525763
     48          1           0        7.629039    0.302670   -1.834702
     49          1           0        7.074909    0.061871    0.579107
     50          1           0        4.710152   -0.187416    1.291086
 ---------------------------------------------------------------------

 SCF Done:  E(RB3LYP) =  -1330.08963276     A.U. after   15 cycles

 Excitation energies and oscillator strengths:

 Excited state symmetry could not be determined.
 Excited State   1:      Triplet-?Sym    2.6684 eV  464.64 nm  f=0.0000  <S**2>=2.000
      99 ->109        -0.25210
     105 ->109        -0.12239
     106 ->109         0.24619
     107 ->109         0.47676
     108 ->109         0.31239
 This state for optimization and/or second-order correction.
 Total Energy, E(TD-HF/TD-DFT) =  -1329.99157025
 Copying the excited state density for this state as the 1-particle RhoCI density.

 Excited state symmetry could not be determined.
 Excited State   2:      Triplet-?Sym    2.7803 eV  445.94 nm  f=0.0000  <S**2>=2.000
      99 ->109         0.15551
     106 ->109        -0.13237
     107 ->109        -0.20735
     108 ->109         0.59791
     108 ->110         0.13727

 Excited state symmetry could not be determined.
 Excited State   3:      Singlet-?Sym    2.7986 eV  443.02 nm  f=0.0073  <S**2>=0.000
     107 ->109         0.10447
     108 ->109         0.69712

 Excited state symmetry could not be determined.
 Excited State   4:      Singlet-?Sym    3.0321 eV  408.91 nm  f=0.0097  <S**2>=0.000
     107 ->109         0.69322
     108 ->109        -0.10618

 Alpha  occ. eigenvalues --  -14.40205 -14.38537 -14.36245 -14.33060 -14.33010
 Alpha  occ. eigenvalues --  -14.32483 -10.27405 -10.26914 -10.25808 -10.25541
 Alpha  occ. eigenvalues --  -10.25014 -10.23774 -10.23486 -10.22859 -10.22470
 Alpha  occ. eigenvalues --  -10.22296 -10.21935 -10.21392 -10.21346 -10.20551
 Alpha  occ. eigenvalues --  -10.20049 -10.19937 -10.19607 -10.19529 -10.19414
 Alpha  occ. eigenvalues --  -10.19339 -10.19318 -10.19131 -10.19054 -10.19003
 Alpha  occ. eigenvalues --  -10.18979 -10.18359  -1.01062  -1.00143  -0.96911
 Alpha  occ. eigenvalues --   -0.93751  -0.92796  -0.89099  -0.86593  -0.84206
 Alpha  occ. eigenvalues --   -0.83321  -0.81437  -0.80158  -0.76338  -0.75930
 Alpha  occ. eigenvalues --   -0.75255  -0.74708  -0.72854  -0.71703  -0.70957
 Alpha  occ. eigenvalues --   -0.67360  -0.65615  -0.63878  -0.62471  -0.61973
 Alpha  occ. eigenvalues --   -0.61239  -0.60011  -0.58128  -0.57838  -0.55249
 Alpha  occ. eigenvalues --   -0.54442  -0.53720  -0.52987  -0.51975  -0.51528
 Alpha  occ. eigenvalues --   -0.50379  -0.49554  -0.48765  -0.48454  -0.47127
 Alpha  occ. eigenvalues --   -0.46463  -0.46068  -0.45460  -0.44664  -0.44248
 Alpha  occ. eigenvalues --   -0.43707  -0.43261  -0.43077  -0.42720  -0.42400
 Alpha  occ. eigenvalues --   -0.42236  -0.41823  -0.41220  -0.39567  -0.38261
 Alpha  occ. eigenvalues --   -0.37526  -0.37364  -0.36832  -0.36701  -0.36316
 Alpha  occ. eigenvalues --   -0.35953  -0.35262  -0.34675  -0.33714  -0.32715
 Alpha  occ. eigenvalues --   -0.30192  -0.29462  -0.28653  -0.28397  -0.26899
 Alpha  occ. eigenvalues --   -0.26544  -0.25651  -0.25585  -0.24917  -0.24540
 Alpha  occ. eigenvalues --   -0.24222  -0.21079  -0.20072
 Alpha virt. eigenvalues --   -0.07771  -0.04153  -0.03309  -0.01070  -0.00698
 Alpha virt. eigenvalues --   -0.00429   0.00223   0.00947   0.03306   0.04541
 Alpha virt. eigenvalues --    0.05185   0.08697   0.09123   0.09978   0.10423

 Mulliken charges:
               1
     1  C   -0.367003
     2  C    0.254713
     3  C    0.025486
     4  N   -0.336262
     5  C    0.181050
     6  N   -0.538197
     7  N   -0.734006
     8  C    0.338651
     9  C   -0.132996
    10  C   -0.165177
    11  C    0.032718
    12  N   -0.515779
    13  C    0.180443
    14  C    0.078459
    15  C   -0.011989
    16  N   -0.531452
    17  C    0.474278
    18  C    0.064104
    19  C    0.047867
    20  C   -0.196049
    21  C   -0.148743
    22  C   -0.140803
    23  C   -0.177052
    24  C    0.316891
    25  N   -0.702719
    26  C    0.274704
    27  C   -0.115159
    28  C   -0.146439
    29  C   -0.119724
    30  C   -0.144263
    31  C   -0.150359
    32  C    0.250537
    33  H    0.178397
    34  H    0.226559
    35  H    0.174352
    36  H    0.143749
    37  H    0.296223
    38  H    0.148526
    39  H    0.137483
    40  H    0.138037
    41  H    0.162433
    42  H    0.137615
    43  H    0.129533
    44  H    0.129644
    45  H    0.146015
    46  H    0.150895
    47  H    0.136565
    48  H    0.132909
    49  H    0.135554
    50  H    0.149776
 Sum of Mulliken charges =  -0.00000

 Dipole moment (field-independent basis, Debye):
    X=             -1.8762    Y=             -2.0110    Z=             -0.0881  Tot=              2.7517
 Quadrupole moment (field-independent basis, Debye-Ang):
   XX=           -141.1987   YY=           -186.4438   ZZ=           -183.2917
   XY=             -3.1637   XZ=              3.0343   YZ=              3.8033

 Normal termination of Gaussian 16 at Sat Nov  5 10:06:55 2022.
