 Gaussian 16, Revision B.01,
 Gaussian 16:  ES64L-G16RevB.01 20-Dec-2017

 -----------------------------
 #p b3lyp/6-31g(d) opt SCF=XQC
 -----------------------------

 ------------------------------
 Gaussian input prepared by ASE
 ------------------------------
 Symbolic Z-matrix:
 Charge =  0 Multiplicity = 1

 SCF Done:  E(RB3LYP) =  -1330.07901217     A.U. after   15 cycles
 SCF Done:  E(RB3LYP) =  -1330.08740793     A.U. after   14 cycles
 SCF Done:  E(RB3LYP) =  -1330.08787769     A.U. after   13 cycles
 SCF Done:  E(RB3LYP) =  -1330.08933990     A.U. after   13 cycles
 SCF Done:  E(RB3LYP) =  -1330.08954564     A.U. after   12 cycles
 SCF Done:  E(RB3LYP) =  -1330.08958601     A.U. after   11 cycles
 SCF Done:  E(RB3LYP) =  -1330.08960702     A.U. after   10 cycles
 SCF Done:  E(RB3LYP) =  -1330.08962774     A.U. after   10 cycles
 SCF Done:  E(RB3LYP) =  -1330.08963196     A.U. after   10 cycles
 SCF Done:  E(RB3LYP) =  -1330.08963296     A.U. after    8 cycles
 SCF Done:  E(RB3LYP) =  -1330.08963349     A.U. after    8 cycles
 SCF Done:  E(RB3LYP) =  -1330.08963358     A.U. after    7 cycles
 SCF Done:  E(RB3LYP) =  -1330.08963360     A.U. after    6 cycles
 Optimization completed.
    -- Stationary point found.

                         Standard orientation:
 ---------------------------------------------------------------------
 Center     Atomic      Atomic             Coordinates (Angstroms)
 Number     Number       Type             X           Y           Z
 ---------------------------------------------------------------------
      1          6           0       -2.418146    1.562091    1.314620
      2          6           0       -2.753230    0.887288    0.202753
      3          6           0       -3.677921    1.367311   -0.854169
      4          7           0       -4.728595    2.090263   -0.783204
      5          6           0       -5.308153    2.675375    0.331047
      6          7           0       -4.757234    3.586799    1.038294
      7          7           0       -2.151015   -0.371847   -0.099882
      8          6           0       -2.894188   -1.563883   -0.137833
      9          6           0       -4.267378   -1.785928   -0.155036
     10          6           0       -4.673466   -3.121470   -0.186277
     11          6           0       -3.717274   -4.148174   -0.182281
     12          7           0       -2.395731   -3.944680   -0.142774
     13          6           0       -2.004959   -2.665716   -0.118855
     14          6           0       -0.669922   -2.120091   -0.055333
     15          6           0        0.589678   -2.726834    0.005916
     16          7           0        1.721242   -2.029199    0.068025
     17          6           0        1.585201   -0.699629    0.027005
     18          6           0        0.385813    0.070540   -0.067012
     19          6           0        0.794771    1.460220   -0.166361
     20          6           0        0.134502    2.686631   -0.352444
     21          6           0        0.870889    3.866431   -0.397698
     22          6           0        2.267587    3.849997   -0.261234
     23          6           0        2.957012    2.651291   -0.107396
     24          6           0        2.216647    1.466614   -0.083236
     25          7           0        2.680842    0.157069    0.034795
     26          6           0        4.046736   -0.250138    0.078465
     27          6           0        4.498680   -1.078324    1.111100
     28          6           0        5.835829   -1.469872    1.147189
     29          6           0        6.728600   -1.030200    0.167359
     30          6           0        6.274068   -0.204307   -0.861679
     31          6           0        4.933891    0.179332   -0.914811
     32          6           0       -0.790100   -0.705200   -0.056323
     33          1           0       -1.713161    1.137143    2.022725
     34          1           0       -2.808875    2.556554    1.492918
     35          1           0       -3.422172    0.997672   -1.852324
     36          1           0       -6.349958    2.348185    0.450147
     37          1           0       -5.432698    3.947022    1.717297
     38          1           0       -4.990667   -0.976948   -0.148179
     39          1           0       -5.729890   -3.370484   -0.209235
     40          1           0       -4.039557   -5.187344   -0.205848
     41          1           0        0.672888   -3.810977    0.011661
     42          1           0       -0.939699    2.725016   -0.469833
     43          1           0        0.354519    4.811097   -0.541654
     44          1           0        2.822951    4.783525   -0.285698
     45          1           0        4.037127    2.634056   -0.011838
     46          1           0        3.800852   -1.416204    1.868530
     47          1           0        6.181437   -2.116994    1.948590
     48          1           0        7.771225   -1.333464    0.203472
     49          1           0        6.958797    0.133841   -1.634598
     50          1           0        4.569325    0.799333   -1.727758
 ---------------------------------------------------------------------

 The electronic state is 1-A.
 Alpha  occ. eigenvalues --  -14.40205 -14.38537 -14.36245 -14.33060 -14.33010
 Alpha  occ. eigenvalues --  -14.32483 -10.27405 -10.26914 -10.25808 -10.25541
 Alpha  occ. eigenvalues --  -10.25014 -10.23774 -10.23486 -10.22859 -10.22470
 Alpha  occ. eigenvalues --  -10.22296 -10.21935 -10.21392 -10.21346 -10.20551
 Alpha  occ. eigenvalues --  -10.20049 -10.19937 -10.19607 -10.19529 -10.19414
 Alpha  occ. eigenvalues --  -10.19339 -10.19318 -10.19131 -10.19054 -10.19003
 Alpha  occ. eigenvalues --  -10.18979 -10.18359  -1.01062  -1.00143  -0.96911
 Alpha  occ. eigenvalues --   -0.93751  -0.92796  -0.89099  -0.86593  -0.84206
 Alpha  occ. eigenvalues --   -0.83321  -0.81437  -0.80158  -0.76338  -0.75930
 Alpha  occ. eigenvalues --   -0.75255  -0.74708  -0.72854  -0.71703  -0.70957
 Alpha  occ. eigenvalues --   -0.67360  -0.65615  -0.63878  -0.62471  -0.61973
 Alpha  occ. eigenvalues --   -0.61239  -0.60011  -0.58128  -0.57838  -0.55249
 Alpha  occ. eigenvalues --   -0.54442  -0.53720  -0.52987  -0.51975  -0.51528
 Alpha  occ. eigenvalues --   -0.50379  -0.49554  -0.48765  -0.48454  -0.47127
 Alpha  occ. eigenvalues --   -0.46463  -0.46068  -0.45460  -0.44664  -0.44248
 Alpha  occ. eigenvalues --   -0.43707  -0.43261  -0.43077  -0.42720  -0.42400
 Alpha  occ. eigenvalues --   -0.42236  -0.41823  -0.41220  -0.39567  -0.38261
 Alpha  occ. eigenvalues --   -0.37526  -0.37364  -0.36832  -0.36701  -0.36316
 Alpha  occ. eigenvalues --   -0.35953  -0.35262  -0.34675  -0.33714  -0.32715
 Alpha  occ. eigenvalues --   -0.30192  -0.29462  -0.28653  -0.28397  -0.26899
 Alpha  occ. eigenvalues --   -0.26544  -0.25651  -0.25585  -0.24917  -0.24540
 Alpha  occ. eigenvalues --   -0.24222  -0.21079  -0.20072
 Alpha virt. eigenvalues --   -0.07771  -0.04153  -0.03309  -0.01070  -0.00698
 Alpha virt. eigenvalues --   -0.00429   0.00223   0.00947   0.03306   0.04541
 Alpha virt. eigenvalues --    0.05185   0.08697   0.09122   0.09978   0.10423

 Mulliken charges:
               1
     1  C   -0.367004
     2  C    0.254709
     3  C    0.025489
     4  N   -0.336256
     5  C    0.181035
     6  N   -0.538191
     7  N   -0.734012
     8  C    0.338662
     9  C   -0.133010
    10  C   -0.165166
    11  C    0.032699
    12  N   -0.515780
    13  C    0.180460
    14  C    0.078495
    15  C   -0.012013
    16  N   -0.531427
    17  C    0.474259
    18  C    0.064128
    19  C    0.047875
    20  C   -0.196058
    21  C   -0.148740
    22  C   -0.140809
    23  C   -0.177056
    24  C    0.316900
    25  N   -0.702721
    26  C    0.274681
    27  C   -0.115146
    28  C   -0.146440
    29  C   -0.119726
    30  C   -0.144268
    31  C   -0.150346
    32  C    0.250500
    33  H    0.178397
    34  H    0.226560
    35  H    0.174353
    36  H    0.143750
    37  H    0.296223
    38  H    0.148530
    39  H    0.137484
    40  H    0.138038
    41  H    0.162433
    42  H    0.137616
    43  H    0.129534
    44  H    0.129645
    45  H    0.146016
    46  H    0.150894
    47  H    0.136565
    48  H    0.132910
    49  H    0.135555
    50  H    0.149776
 Sum of Mulliken charges =  -0.00000

 Dipole moment (field-independent basis, Debye):
    X=             -1.6082    Y=              1.7463    Z=              1.3914  Tot=              2.7517
 Quadrupole moment (field-independent basis, Debye-Ang):
   XX=           -142.5206   YY=           -188.7023   ZZ=           -179.2770
   XY=              2.4383   XZ=             -7.3116   YZ=              0.2952

 1\1\GINC-NODE93\FOpt\RB3LYP\6-31G(d)\C26H18N6\WYKGROUP\04-Nov-2022\0\\
 #p b3lyp/6-31g(d) opt SCF=XQC\\Gaussian input prepared by ASE\\0,1\C,-
 2.7033387267,-1.5676273641,-0.0497275766\C,-2.8276493564,-0.3922805645
 ,0.5882336914\C,-3.5841618338,-0.1665453129,1.8449331736\N,-4.65786978
 36,-0.7011785865,2.2841705548\C,-5.4324467776,-1.6958892295,1.70938504
 94\N,-5.0378659449,-2.8955111862,1.5103489639\N,-2.1387857844,0.769712
 9129,0.1246511907\C,-2.8220090631,1.8956341284,-0.3654542289\C,-4.1649
 80517,2.2521632147,-0.2978831328\C,-4.5117530461,3.4590108328,-0.90847

 Normal termination of Gaussian 16 at Fri Nov  4 09:39:03 2022.
