 Gaussian 16, Revision B.01,
 Gaussian 16:  ES64L-G16RevB.01 20-Dec-2017

 -------------------------------------------------------------------
 #p b3lyp/6-31g(d) 6D 10F nosymm GFInput td=(50-50,nstate=2) SCF=XQC
 -------------------------------------------------------------------

 ------------------------------
 Gaussian input prepared by ASE
 ------------------------------
 Symbolic Z-matrix:
 Charge =  0 Multiplicity = 1

                          Input orientation:
 ---------------------------------------------------------------------
 Center     Atomic      Atomic             Coordinates (Angstroms)
 Number     Number       Type             X           Y           Z
 ---------------------------------------------------------------------
      1          8           0      -11.869860    2.803886    2.856363
      2          6           0      -10.959386    3.135101    2.108732
      3          7           0       -9.933158    2.233432    1.794454
      4          6           0       -8.866878    2.502694    0.958355
      5          6           0       -7.867812    1.433243    0.748939
      6          6           0       -7.002856    1.518681   -0.351140
      7          6           0       -6.045691    0.540086   -0.600397
      8          6           0       -5.930186   -0.557823    0.265403
      9          8           0       -5.035343   -1.569122    0.121190
     10          6           0       -4.122170   -1.538357   -0.977710
     11          6           0       -3.243786   -2.777581   -0.881027
     12          6           0       -2.198401   -2.832819   -2.010825
     13          6           0       -1.375794   -4.085897   -1.971323
     14          6           0       -0.045153   -4.273998   -1.660164
     15          7           0        0.147045   -5.614833   -1.775063
     16          6           0        1.357285   -6.384431   -1.528294
     17          6           0        1.699949   -6.406091   -0.029445
     18          8           0        2.916773   -7.076325    0.249679
     19          6           0        4.123281   -6.452944   -0.174364
     20          6           0        4.316131   -5.006600    0.280929
     21          8           0        3.596998   -4.067550   -0.534671
     22          6           0        4.346672   -3.445933   -1.567123
     23          6           0        5.011741   -2.150584   -1.124615
     24          8           0        6.107211   -2.468865   -0.268559
     25          6           0        6.833946   -1.454640    0.279877
     26          6           0        7.897446   -1.855325    1.117798
     27          6           0        8.695992   -0.902616    1.716760
     28          6           0        8.470058    0.470363    1.507424
     29          6           0        9.309825    1.506056    2.141843
     30          8           0       10.254439    1.239394    2.885175
     31          6           0        8.908655    2.870635    1.812696
     32          6           0        7.872786    3.146556    0.980548
     33          6           0        7.402647    4.488847    0.589547
     34          6           0        6.099226    4.673236    0.098163
     35          6           0        5.649197    5.944493   -0.251901
     36          6           0        6.491663    7.049841   -0.123547
     37          6           0        7.792621    6.874985    0.354300
     38          6           0        8.246623    5.606759    0.705130
     39          8           0        7.121671    2.153792    0.412063
     40          6           0        7.410150    0.840030    0.675088
     41          6           0        6.583589   -0.102786    0.052472
     42          7           0       -1.002574   -6.230889   -2.130992
     43          7           0       -1.919067   -5.309408   -2.251203
     44          6           0       -6.781503   -0.650350    1.377815
     45          6           0       -7.733084    0.330282    1.612811
     46          7           0       -8.727439    3.650403    0.360205
     47          6           0       -9.685932    4.623736    0.584436
     48          6           0       -9.547834    5.868456   -0.064303
     49          6           0      -10.481566    6.871913    0.140996
     50          6           0      -11.580085    6.670074    0.996793
     51          6           0      -11.734475    5.453399    1.643227
     52          6           0      -10.795633    4.430099    1.444064
     53          1           0      -10.053396    1.310068    2.192317
     54          1           0       -7.096413    2.372118   -1.013465
     55          1           0       -5.401384    0.636736   -1.466375
     56          1           0       -3.516291   -0.621351   -0.930597
     57          1           0       -4.679336   -1.527460   -1.925590
     58          1           0       -2.742260   -2.785146    0.094069
     59          1           0       -3.873232   -3.672726   -0.925192
     60          1           0       -2.710433   -2.776678   -2.980655
     61          1           0       -1.535511   -1.960097   -1.952270
     62          1           0        0.751180   -3.603143   -1.373917
     63          1           0        1.171058   -7.393057   -1.901567
     64          1           0        2.173499   -5.939175   -2.103279
     65          1           0        1.709320   -5.379237    0.356481
     66          1           0        0.927096   -6.963137    0.508600
     67          1           0        4.240170   -6.505510   -1.269024
     68          1           0        4.913851   -7.070347    0.266321
     69          1           0        3.943457   -4.889228    1.304545
     70          1           0        5.383031   -4.761479    0.284587
     71          1           0        5.102559   -4.126735   -1.983586
     72          1           0        3.637599   -3.203133   -2.367492
     73          1           0        5.371317   -1.599662   -2.006336
     74          1           0        4.281926   -1.526825   -0.592012
     75          1           0        8.064078   -2.916449    1.271364
     76          1           0        9.520158   -1.181219    2.365671
     77          1           0        9.464034    3.675581    2.277712
     78          1           0        5.440331    3.817894    0.000858
     79          1           0        4.636242    6.071444   -0.623807
     80          1           0        6.139789    8.040239   -0.398568
     81          1           0        8.459780    7.727468    0.445424
     82          1           0        9.268022    5.480970    1.049704
     83          1           0        5.781600    0.247218   -0.584718
     84          1           0       -6.669822   -1.496824    2.047502
     85          1           0       -8.347874    0.239597    2.504538
     86          1           0       -8.694573    6.010595   -0.720010
     87          1           0      -10.363168    7.826623   -0.364987
     88          1           0      -12.303470    7.465879    1.149009
     89          1           0      -12.570895    5.261484    2.307927
 ---------------------------------------------------------------------

 SCF Done:  E(RB3LYP) =  -2346.83508559     A.U. after   17 cycles

 Excitation energies and oscillator strengths:

 Excited state symmetry could not be determined.
 Excited State   1:      Triplet-?Sym    2.8080 eV  441.54 nm  f=0.0000  <S**2>=2.000
     178 ->187         0.11924
     180 ->193        -0.11967
     184 ->186         0.66547
 This state for optimization and/or second-order correction.
 Total Energy, E(TD-HF/TD-DFT) =  -2346.73189395
 Copying the excited state density for this state as the 1-particle RhoCI density.

 Excited state symmetry could not be determined.
 Excited State   2:      Triplet-?Sym    2.8214 eV  439.44 nm  f=0.0000  <S**2>=2.000
     172 ->189         0.10161
     176 ->185         0.10507
     181 ->185         0.27269
     181 ->188         0.10180
     183 ->185         0.60050

 Excited state symmetry could not be determined.
 Excited State   3:      Singlet-?Sym    3.5140 eV  352.83 nm  f=0.0007  <S**2>=0.000
     181 ->185         0.21601
     182 ->185         0.62426
     182 ->188        -0.12361
     183 ->185        -0.17609

 Excited state symmetry could not be determined.
 Excited State   4:      Singlet-?Sym    3.7307 eV  332.33 nm  f=0.0000  <S**2>=0.000
     184 ->185         0.70696

 Alpha  occ. eigenvalues --  -19.23354 -19.20823 -19.18925 -19.17887 -19.16559
 Alpha  occ. eigenvalues --  -19.11575 -19.11457 -14.42661 -14.38775 -14.38564
 Alpha  occ. eigenvalues --  -14.34668 -14.32382 -10.29374 -10.28643 -10.28101
 Alpha  occ. eigenvalues --  -10.28042 -10.27893 -10.27072 -10.26781 -10.26611
 Alpha  occ. eigenvalues --  -10.26295 -10.25291 -10.25237 -10.25088 -10.24851
 Alpha  occ. eigenvalues --  -10.24328 -10.23122 -10.22956 -10.22251 -10.21740
 Alpha  occ. eigenvalues --  -10.21263 -10.21126 -10.21037 -10.21016 -10.20963
 Alpha  occ. eigenvalues --  -10.20939 -10.20801 -10.20800 -10.20784 -10.20632
 Alpha  occ. eigenvalues --  -10.20574 -10.20494 -10.20235 -10.19986 -10.19858
 Alpha  occ. eigenvalues --  -10.19820 -10.19796 -10.19773 -10.19619 -10.19475
 Alpha  occ. eigenvalues --  -10.19299 -10.19006  -1.12436  -1.09554  -1.09267
 Alpha  occ. eigenvalues --   -1.07637  -1.05888  -1.04296  -1.04093  -1.01436
 Alpha  occ. eigenvalues --   -0.98154  -0.91795  -0.90011  -0.88374  -0.87201
 Alpha  occ. eigenvalues --   -0.86778  -0.84757  -0.82821  -0.82153  -0.81076
 Alpha  occ. eigenvalues --   -0.79713  -0.78764  -0.77727  -0.77239  -0.77054
 Alpha  occ. eigenvalues --   -0.76225  -0.76150  -0.75846  -0.75386  -0.74141
 Alpha  occ. eigenvalues --   -0.73700  -0.70757  -0.69255  -0.67792  -0.66365
 Alpha  occ. eigenvalues --   -0.65960  -0.65677  -0.64300  -0.63872  -0.62165
 Alpha  occ. eigenvalues --   -0.61921  -0.61443  -0.60899  -0.60199  -0.59801
 Alpha  occ. eigenvalues --   -0.59636  -0.59346  -0.58606  -0.57356  -0.56602
 Alpha  occ. eigenvalues --   -0.54933  -0.54900  -0.54695  -0.53960  -0.53919
 Alpha  occ. eigenvalues --   -0.53298  -0.52546  -0.51984  -0.51607  -0.51277
 Alpha  occ. eigenvalues --   -0.50390  -0.50089  -0.49158  -0.48372  -0.48239
 Alpha  occ. eigenvalues --   -0.47930  -0.47612  -0.47517  -0.47197  -0.46989
 Alpha  occ. eigenvalues --   -0.46701  -0.46468  -0.45801  -0.45434  -0.45393
 Alpha  occ. eigenvalues --   -0.45208  -0.45002  -0.44655  -0.44203  -0.43948
 Alpha  occ. eigenvalues --   -0.43816  -0.43456  -0.43240  -0.43150  -0.42939
 Alpha  occ. eigenvalues --   -0.42518  -0.41659  -0.41362  -0.41229  -0.40810
 Alpha  occ. eigenvalues --   -0.40384  -0.39996  -0.39490  -0.39408  -0.39077
 Alpha  occ. eigenvalues --   -0.38919  -0.38671  -0.38511  -0.38243  -0.37840
 Alpha  occ. eigenvalues --   -0.37370  -0.37232  -0.36994  -0.36840  -0.36505
 Alpha  occ. eigenvalues --   -0.36113  -0.36075  -0.35841  -0.35342  -0.35164
 Alpha  occ. eigenvalues --   -0.34252  -0.33825  -0.33484  -0.33041  -0.32489
 Alpha  occ. eigenvalues --   -0.32364  -0.29991  -0.29757  -0.29003  -0.28189
 Alpha  occ. eigenvalues --   -0.27093  -0.26888  -0.26635  -0.26488  -0.26463
 Alpha  occ. eigenvalues --   -0.26286  -0.25766  -0.25513  -0.25057  -0.24332
 Alpha  occ. eigenvalues --   -0.24297  -0.24082  -0.23824  -0.21234
 Alpha virt. eigenvalues --   -0.06898  -0.05098  -0.03508  -0.03044  -0.01784
 Alpha virt. eigenvalues --   -0.01418  -0.01329  -0.00314   0.01191   0.02228
 Alpha virt. eigenvalues --    0.04236   0.04682   0.05496   0.07281   0.07692

 Mulliken charges:
               1
     1  O   -0.515517
     2  C    0.573905
     3  N   -0.715208
     4  C    0.507222
     5  C    0.093529
     6  C   -0.163676
     7  C   -0.199501
     8  C    0.394109
     9  O   -0.518465
    10  C   -0.033713
    11  C   -0.278489
    12  C   -0.341046
    13  C    0.259345
    14  C   -0.024653
    15  N   -0.237751
    16  C   -0.168529
    17  C   -0.030971
    18  O   -0.471566
    19  C   -0.032564
    20  C   -0.081655
    21  O   -0.482675
    22  C   -0.059344
    23  C   -0.037885
    24  O   -0.524524
    25  C    0.392843
    26  C   -0.173164
    27  C   -0.179868
    28  C    0.053444
    29  C    0.426763
    30  O   -0.523480
    31  C   -0.269388
    32  C    0.328978
    33  C    0.073804
    34  C   -0.158463
    35  C   -0.133257
    36  C   -0.119192
    37  C   -0.137652
    38  C   -0.163979
    39  O   -0.546006
    40  C    0.307616
    41  C   -0.267118
    42  N   -0.077516
    43  N   -0.336338
    44  C   -0.183741
    45  C   -0.190886
    46  N   -0.588964
    47  C    0.256859
    48  C   -0.163498
    49  C   -0.126792
    50  C   -0.136763
    51  C   -0.178423
    52  C    0.055308
    53  H    0.342941
    54  H    0.167073
    55  H    0.141145
    56  H    0.138619
    57  H    0.146126
    58  H    0.152253
    59  H    0.181535
    60  H    0.161907
    61  H    0.138238
    62  H    0.175897
    63  H    0.194808
    64  H    0.166678
    65  H    0.153065
    66  H    0.168126
    67  H    0.128851
    68  H    0.155312
    69  H    0.166018
    70  H    0.165133
    71  H    0.148550
    72  H    0.152321
    73  H    0.146106
    74  H    0.158261
    75  H    0.144771
    76  H    0.172382
    77  H    0.157998
    78  H    0.147956
    79  H    0.138467
    80  H    0.140052
    81  H    0.141688
    82  H    0.148345
    83  H    0.150265
    84  H    0.147736
    85  H    0.134058
    86  H    0.140186
    87  H    0.135675
    88  H    0.135915
    89  H    0.164041
 Sum of Mulliken charges =  -0.00000

 Dipole moment (field-independent basis, Debye):
    X=              5.5899    Y=              2.5508    Z=             -4.7497  Tot=              7.7662
 Quadrupole moment (field-independent basis, Debye-Ang):
   XX=           -401.4195   YY=           -289.4742   ZZ=           -312.1288
   XY=             -9.1644   XZ=            -15.6709   YZ=            -16.5773

 Normal termination of Gaussian 16 at Sat Nov  5 10:10:14 2022.
