 Gaussian 16, Revision B.01,
 Gaussian 16:  ES64L-G16RevB.01 20-Dec-2017

 -----------------------------
 #p b3lyp/6-31g(d) opt SCF=XQC
 -----------------------------

 ------------------------------
 Gaussian input prepared by ASE
 ------------------------------
 Symbolic Z-matrix:
 Charge =  0 Multiplicity = 1

 SCF Done:  E(RB3LYP) =  -2346.82435644     A.U. after   17 cycles
 SCF Done:  E(RB3LYP) =  -2346.83305211     A.U. after   12 cycles
 SCF Done:  E(RB3LYP) =  -2346.83387958     A.U. after   12 cycles
 SCF Done:  E(RB3LYP) =  -2346.83440611     A.U. after   14 cycles
 SCF Done:  E(RB3LYP) =  -2346.83463744     A.U. after   13 cycles
 SCF Done:  E(RB3LYP) =  -2346.83478354     A.U. after   12 cycles
 SCF Done:  E(RB3LYP) =  -2346.83486225     A.U. after   11 cycles
 SCF Done:  E(RB3LYP) =  -2346.83488131     A.U. after   10 cycles
 SCF Done:  E(RB3LYP) =  -2346.83489164     A.U. after   10 cycles
 SCF Done:  E(RB3LYP) =  -2346.83491699     A.U. after   10 cycles
 SCF Done:  E(RB3LYP) =  -2346.83508187     A.U. after    9 cycles
 SCF Done:  E(RB3LYP) =  -2346.83508207     A.U. after    9 cycles
 SCF Done:  E(RB3LYP) =  -2346.83508227     A.U. after   10 cycles
 SCF Done:  E(RB3LYP) =  -2346.83508284     A.U. after    8 cycles
 SCF Done:  E(RB3LYP) =  -2346.83508344     A.U. after    9 cycles
 SCF Done:  E(RB3LYP) =  -2346.83508370     A.U. after    9 cycles
 SCF Done:  E(RB3LYP) =  -2346.83508337     A.U. after   10 cycles
 SCF Done:  E(RB3LYP) =  -2346.83508387     A.U. after   10 cycles
 SCF Done:  E(RB3LYP) =  -2346.83508387     A.U. after    7 cycles
 SCF Done:  E(RB3LYP) =  -2346.83508388     A.U. after    6 cycles
 Optimization completed.
    -- Stationary point found.

                         Standard orientation:
 ---------------------------------------------------------------------
 Center     Atomic      Atomic             Coordinates (Angstroms)
 Number     Number       Type             X           Y           Z
 ---------------------------------------------------------------------
      1          8           0      -12.085230    1.012279    2.262522
      2          6           0      -11.230175    1.362569    1.460153
      3          7           0      -10.057921    0.611614    1.296412
      4          6           0       -9.036946    0.913573    0.416103
      5          6           0       -7.864731    0.013210    0.384882
      6          6           0       -7.005006    0.056728   -0.721735
      7          6           0       -5.888871   -0.769610   -0.807482
      8          6           0       -5.603999   -1.665718    0.233765
      9          8           0       -4.545772   -2.516510    0.257729
     10          6           0       -3.629178   -2.517474   -0.838751
     11          6           0       -2.552890   -3.550788   -0.537999
     12          6           0       -1.490656   -3.617601   -1.651335
     13          6           0       -0.465748   -4.683819   -1.403971
     14          6           0        0.870755   -4.582654   -1.077884
     15          7           0        1.293044   -5.869538   -0.961340
     16          6           0        2.612312   -6.364214   -0.597081
     17          6           0        2.922806   -6.068515    0.879601
     18          8           0        4.230803   -6.460128    1.258504
     19          6           0        5.320529   -5.719705    0.721525
     20          6           0        5.252342   -4.205431    0.918299
     21          8           0        4.399264   -3.559173   -0.040231
     22          6           0        5.051835   -3.003973   -1.171726
     23          6           0        5.474962   -1.556660   -0.966032
     24          8           0        6.591076   -1.528834   -0.078505
     25          6           0        7.121124   -0.325306    0.279474
     26          6           0        8.220298   -0.386043    1.163681
     27          6           0        8.830616    0.778923    1.581354
     28          6           0        8.376216    2.035456    1.140238
     29          6           0        9.012132    3.294123    1.578104
     30          8           0        9.973102    3.326558    2.347151
     31          6           0        8.389046    4.491622    1.022128
     32          6           0        7.338428    4.437128    0.164888
     33          6           0        6.652516    5.590459   -0.447493
     34          6           0        5.347154    5.459447   -0.950711
     35          6           0        4.692428    6.554395   -1.510699
     36          6           0        5.329391    7.794162   -1.583326
     37          6           0        6.630965    7.931669   -1.095063
     38          6           0        7.289067    6.840478   -0.534883
     39          8           0        6.781088    3.246754   -0.216309
     40          6           0        7.285802    2.067691    0.266855
     41          6           0        6.646674    0.903411   -0.175554
     42          7           0        0.274070   -6.726984   -1.194391
     43          7           0       -0.784611   -6.012462   -1.463072
     44          6           0       -6.449325   -1.711633    1.353620
     45          6           0       -7.560019   -0.884804    1.424916
     46          7           0       -9.084779    1.948045   -0.372594
     47          6           0      -10.200803    2.764751   -0.310574
     48          6           0      -10.265608    3.884386   -1.165839
     49          6           0      -11.362039    4.731339   -1.127908
     50          6           0      -12.426769    4.492577   -0.239529
     51          6           0      -12.382786    3.396927    0.608779
     52          6           0      -11.278035    2.532668    0.580269
     53          1           0      -10.025664   -0.236359    1.848910
     54          1           0       -7.230379    0.754481   -1.520563
     55          1           0       -5.253184   -0.713173   -1.683328
     56          1           0       -3.191162   -1.515242   -0.956579
     57          1           0       -4.160370   -2.766079   -1.768836
     58          1           0       -2.077628   -3.303901    0.418855
     59          1           0       -3.017938   -4.535388   -0.420815
     60          1           0       -1.984730   -3.818290   -2.611291
     61          1           0       -0.989109   -2.646492   -1.750797
     62          1           0        1.533786   -3.745134   -0.919512
     63          1           0        2.610048   -7.438739   -0.788731
     64          1           0        3.351379   -5.889973   -1.248190
     65          1           0        2.747493   -5.004727    1.082277
     66          1           0        2.246432   -6.650018    1.513215
     67          1           0        5.467126   -5.938484   -0.348685
     68          1           0        6.196318   -6.106056    1.254551
     69          1           0        4.844136   -3.980244    1.909819
     70          1           0        6.260872   -3.782543    0.869252
     71          1           0        5.921936   -3.605031   -1.471643
     72          1           0        4.328119   -3.028607   -1.995106
     73          1           0        5.752405   -1.111605   -1.933087
     74          1           0        4.637971   -0.986466   -0.542127
     75          1           0        8.563792   -1.359963    1.496582
     76          1           0        9.676948    0.762726    2.260630
     77          1           0        8.788036    5.448217    1.335746
     78          1           0        4.847345    4.499229   -0.892455
     79          1           0        3.680571    6.438439   -1.889128
     80          1           0        4.818110    8.646590   -2.021845
     81          1           0        7.139531    8.889482   -1.158992
     82          1           0        8.309600    6.954328   -0.183656
     83          1           0        5.809662    0.994704   -0.855831
     84          1           0       -6.207451   -2.398235    2.158323
     85          1           0       -8.168189   -0.925927    2.324808
     86          1           0       -9.436260    4.057196   -1.844462
     87          1           0      -11.399286    5.590824   -1.792292
     88          1           0      -13.279227    5.165405   -0.220052
     89          1           0      -13.187170    3.180300    1.304692
 ---------------------------------------------------------------------

 The electronic state is 1-A.
 Alpha  occ. eigenvalues --  -19.23353 -19.20823 -19.18925 -19.17888 -19.16559
 Alpha  occ. eigenvalues --  -19.11575 -19.11457 -14.42661 -14.38775 -14.38564
 Alpha  occ. eigenvalues --  -14.34668 -14.32382 -10.29374 -10.28643 -10.28101
 Alpha  occ. eigenvalues --  -10.28042 -10.27893 -10.27072 -10.26781 -10.26611
 Alpha  occ. eigenvalues --  -10.26295 -10.25291 -10.25237 -10.25088 -10.24851
 Alpha  occ. eigenvalues --  -10.24328 -10.23122 -10.22956 -10.22251 -10.21740
 Alpha  occ. eigenvalues --  -10.21263 -10.21126 -10.21037 -10.21017 -10.20963
 Alpha  occ. eigenvalues --  -10.20939 -10.20801 -10.20800 -10.20784 -10.20632
 Alpha  occ. eigenvalues --  -10.20574 -10.20494 -10.20236 -10.19986 -10.19858
 Alpha  occ. eigenvalues --  -10.19820 -10.19796 -10.19773 -10.19619 -10.19475
 Alpha  occ. eigenvalues --  -10.19299 -10.19006  -1.12436  -1.09554  -1.09267
 Alpha  occ. eigenvalues --   -1.07637  -1.05888  -1.04296  -1.04093  -1.01436
 Alpha  occ. eigenvalues --   -0.98154  -0.91794  -0.90011  -0.88374  -0.87200
 Alpha  occ. eigenvalues --   -0.86778  -0.84758  -0.82821  -0.82153  -0.81076
 Alpha  occ. eigenvalues --   -0.79713  -0.78764  -0.77727  -0.77239  -0.77054
 Alpha  occ. eigenvalues --   -0.76225  -0.76150  -0.75846  -0.75386  -0.74141
 Alpha  occ. eigenvalues --   -0.73700  -0.70757  -0.69255  -0.67792  -0.66365
 Alpha  occ. eigenvalues --   -0.65960  -0.65677  -0.64300  -0.63872  -0.62165
 Alpha  occ. eigenvalues --   -0.61921  -0.61443  -0.60899  -0.60199  -0.59801
 Alpha  occ. eigenvalues --   -0.59636  -0.59346  -0.58606  -0.57356  -0.56602
 Alpha  occ. eigenvalues --   -0.54933  -0.54900  -0.54695  -0.53960  -0.53919
 Alpha  occ. eigenvalues --   -0.53298  -0.52546  -0.51984  -0.51607  -0.51277
 Alpha  occ. eigenvalues --   -0.50390  -0.50089  -0.49158  -0.48372  -0.48239
 Alpha  occ. eigenvalues --   -0.47930  -0.47612  -0.47517  -0.47197  -0.46989
 Alpha  occ. eigenvalues --   -0.46701  -0.46468  -0.45801  -0.45434  -0.45393
 Alpha  occ. eigenvalues --   -0.45208  -0.45002  -0.44655  -0.44203  -0.43948
 Alpha  occ. eigenvalues --   -0.43816  -0.43456  -0.43240  -0.43150  -0.42939
 Alpha  occ. eigenvalues --   -0.42518  -0.41659  -0.41362  -0.41229  -0.40810
 Alpha  occ. eigenvalues --   -0.40384  -0.39996  -0.39490  -0.39408  -0.39077
 Alpha  occ. eigenvalues --   -0.38919  -0.38671  -0.38511  -0.38243  -0.37840
 Alpha  occ. eigenvalues --   -0.37370  -0.37232  -0.36994  -0.36840  -0.36505
 Alpha  occ. eigenvalues --   -0.36113  -0.36075  -0.35841  -0.35342  -0.35164
 Alpha  occ. eigenvalues --   -0.34252  -0.33825  -0.33484  -0.33041  -0.32489
 Alpha  occ. eigenvalues --   -0.32364  -0.29991  -0.29757  -0.29003  -0.28189
 Alpha  occ. eigenvalues --   -0.27093  -0.26889  -0.26635  -0.26488  -0.26463
 Alpha  occ. eigenvalues --   -0.26286  -0.25766  -0.25513  -0.25057  -0.24332
 Alpha  occ. eigenvalues --   -0.24297  -0.24082  -0.23824  -0.21234
 Alpha virt. eigenvalues --   -0.06898  -0.05098  -0.03508  -0.03044  -0.01784
 Alpha virt. eigenvalues --   -0.01418  -0.01329  -0.00314   0.01191   0.02228
 Alpha virt. eigenvalues --    0.04236   0.04682   0.05496   0.07280   0.07692

 Mulliken charges:
               1
     1  O   -0.515518
     2  C    0.573913
     3  N   -0.715207
     4  C    0.507227
     5  C    0.093498
     6  C   -0.163657
     7  C   -0.199495
     8  C    0.394093
     9  O   -0.518463
    10  C   -0.033714
    11  C   -0.278496
    12  C   -0.341042
    13  C    0.259342
    14  C   -0.024644
    15  N   -0.237763
    16  C   -0.168524
    17  C   -0.030970
    18  O   -0.471567
    19  C   -0.032570
    20  C   -0.081642
    21  O   -0.482677
    22  C   -0.059343
    23  C   -0.037894
    24  O   -0.524520
    25  C    0.392835
    26  C   -0.173160
    27  C   -0.179871
    28  C    0.053448
    29  C    0.426756
    30  O   -0.523481
    31  C   -0.269388
    32  C    0.328982
    33  C    0.073833
    34  C   -0.158477
    35  C   -0.133260
    36  C   -0.119185
    37  C   -0.137642
    38  C   -0.164010
    39  O   -0.546005
    40  C    0.307626
    41  C   -0.267119
    42  N   -0.077509
    43  N   -0.336339
    44  C   -0.183737
    45  C   -0.190869
    46  N   -0.588964
    47  C    0.256853
    48  C   -0.163505
    49  C   -0.126784
    50  C   -0.136763
    51  C   -0.178444
    52  C    0.055321
    53  H    0.342940
    54  H    0.167070
    55  H    0.141145
    56  H    0.138619
    57  H    0.146127
    58  H    0.152254
    59  H    0.181536
    60  H    0.161906
    61  H    0.138238
    62  H    0.175897
    63  H    0.194807
    64  H    0.166676
    65  H    0.153064
    66  H    0.168126
    67  H    0.128852
    68  H    0.155313
    69  H    0.166017
    70  H    0.165131
    71  H    0.148549
    72  H    0.152321
    73  H    0.146108
    74  H    0.158264
    75  H    0.144770
    76  H    0.172382
    77  H    0.157999
    78  H    0.147955
    79  H    0.138468
    80  H    0.140051
    81  H    0.141688
    82  H    0.148346
    83  H    0.150264
    84  H    0.147736
    85  H    0.134058
    86  H    0.140187
    87  H    0.135674
    88  H    0.135916
    89  H    0.164043
 Sum of Mulliken charges =  -0.00000

 Dipole moment (field-independent basis, Debye):
    X=              5.1639    Y=              2.6250    Z=             -5.1727  Tot=              7.7662
 Quadrupole moment (field-independent basis, Debye-Ang):
   XX=           -392.9405   YY=           -303.7789   ZZ=           -303.6780
   XY=            -29.6105   XZ=            -11.0794   YZ=            -21.0002

 Normal termination of Gaussian 16 at Fri Nov  4 23:35:56 2022.
