 Gaussian 16, Revision B.01,
 Gaussian 16:  ES64L-G16RevB.01 20-Dec-2017

 -----------------------------
 #p b3lyp/6-31g(d) opt SCF=XQC
 -----------------------------

 ------------------------------
 Gaussian input prepared by ASE
 ------------------------------
 Symbolic Z-matrix:
 Charge =  0 Multiplicity = 1

 SCF Done:  E(RB3LYP) =  -1670.24662560     A.U. after   16 cycles
 SCF Done:  E(RB3LYP) =  -1670.25953893     A.U. after   14 cycles
 SCF Done:  E(RB3LYP) =  -1670.25939622     A.U. after   13 cycles
 SCF Done:  E(RB3LYP) =  -1670.26091807     A.U. after   13 cycles
 SCF Done:  E(RB3LYP) =  -1670.26140088     A.U. after   12 cycles
 SCF Done:  E(RB3LYP) =  -1670.26156951     A.U. after   12 cycles
 SCF Done:  E(RB3LYP) =  -1670.26165708     A.U. after   11 cycles
 SCF Done:  E(RB3LYP) =  -1670.26167384     A.U. after   10 cycles
 SCF Done:  E(RB3LYP) =  -1670.26168302     A.U. after   10 cycles
 SCF Done:  E(RB3LYP) =  -1670.26169357     A.U. after   10 cycles
 SCF Done:  E(RB3LYP) =  -1670.26170068     A.U. after   10 cycles
 SCF Done:  E(RB3LYP) =  -1670.26170234     A.U. after    8 cycles
 SCF Done:  E(RB3LYP) =  -1670.26170257     A.U. after    8 cycles
 SCF Done:  E(RB3LYP) =  -1670.26170260     A.U. after    7 cycles
 Optimization completed.
    -- Stationary point found.

                         Standard orientation:
 ---------------------------------------------------------------------
 Center     Atomic      Atomic             Coordinates (Angstroms)
 Number     Number       Type             X           Y           Z
 ---------------------------------------------------------------------
      1          6           0       -7.398093   -0.108468    0.152660
      2          6           0       -6.005477   -0.610446   -0.151412
      3          6           0       -5.830531   -1.951346   -0.578137
      4          6           0       -4.585686   -2.460636   -0.871055
      5          6           0       -3.443503   -1.639415   -0.744537
      6          6           0       -2.129094   -2.086865   -1.041208
      7          6           0       -1.051444   -1.252274   -0.892410
      8          6           0       -1.305234    0.080510   -0.429109
      9          7           0       -2.516780    0.534644   -0.167574
     10          6           0       -3.597213   -0.285773   -0.309994
     11          6           0       -4.900529    0.228396   -0.016854
     12          6           0       -5.064244    1.659392    0.431302
     13          6           0       -0.152376    0.996701   -0.234129
     14          6           0       -0.451130    2.462785   -0.141429
     15          6           0       -0.073722    3.328594   -1.176298
     16          6           0       -0.353564    4.693983   -1.107111
     17          6           0       -1.016561    5.217296    0.002765
     18          6           0       -1.400952    4.364287    1.039567
     19          6           0       -1.126776    2.999152    0.964839
     20          6           0        1.113168    0.503068   -0.139651
     21          6           0        2.244014    1.442738    0.155661
     22          6           0        2.382597    1.999123    1.435775
     23          6           0        3.417753    2.890318    1.721132
     24          6           0        4.327607    3.249895    0.726998
     25          6           0        4.197709    2.707015   -0.552739
     26          6           0        3.170103    1.808374   -0.833391
     27          6           0        1.389745   -1.031610   -0.251772
     28          6           0        1.071686   -1.751391    1.102316
     29          6           0        0.342028   -1.162110    2.142542
     30          6           0        0.064505   -1.858763    3.322416
     31          6           0        0.506862   -3.168248    3.490307
     32          6           0        1.240602   -3.770682    2.466411
     33          6           0        1.525985   -3.070175    1.295635
     34          6           0        2.884793   -1.304091   -0.581931
     35          6           0        3.831403   -1.156182    0.448116
     36          6           0        5.191114   -1.361436    0.227744
     37          6           0        5.648589   -1.731068   -1.037793
     38          6           0        4.724866   -1.888722   -2.068180
     39          6           0        3.360158   -1.679384   -1.846372
     40          6           0        0.373324   -1.612792   -1.336208
     41          7           0        0.590625   -3.046235   -1.519297
     42          7           0        0.607518   -0.999642   -2.665891
     43          1           0       -8.143295   -0.896685    0.008809
     44          1           0       -7.674906    0.735090   -0.492890
     45          1           0       -7.483516    0.248335    1.187052
     46          1           0       -6.708384   -2.585850   -0.675057
     47          1           0       -4.469685   -3.490888   -1.199684
     48          1           0       -1.993393   -3.106238   -1.395306
     49          1           0       -5.493147    1.712705    1.441194
     50          1           0       -5.750216    2.205477   -0.229222
     51          1           0       -4.103480    2.174013    0.435406
     52          1           0        0.448660    2.930470   -2.041828
     53          1           0       -0.050033    5.347332   -1.921006
     54          1           0       -1.232844    6.280858    0.060347
     55          1           0       -1.918275    4.761911    1.909057
     56          1           0       -1.441722    2.340538    1.767955
     57          1           0        1.674602    1.730147    2.213788
     58          1           0        3.507596    3.306856    2.721056
     59          1           0        5.131951    3.946941    0.946760
     60          1           0        4.901270    2.978854   -1.335227
     61          1           0        3.092906    1.376839   -1.826942
     62          1           0       -0.020217   -0.146298    2.044511
     63          1           0       -0.501280   -1.366871    4.109559
     64          1           0        0.291458   -3.710395    4.407273
     65          1           0        1.605307   -4.788415    2.581207
     66          1           0        2.115657   -3.544853    0.520311
     67          1           0        3.502168   -0.873051    1.442151
     68          1           0        5.891210   -1.232387    1.049222
     69          1           0        6.708440   -1.896324   -1.214797
     70          1           0        5.059594   -2.183172   -3.060093
     71          1           0        2.662223   -1.807616   -2.661565
     72          1           0        0.092260   -3.591116   -0.821990
     73          1           0        0.279656   -3.331612   -2.443796
     74          1           0        0.766530   -0.000628   -2.553883
     75          1           0       -0.251526   -1.083839   -3.209828
 ---------------------------------------------------------------------

 The electronic state is 1-A.
 Alpha  occ. eigenvalues --  -14.32374 -14.32204 -14.31610 -10.26205 -10.22939
 Alpha  occ. eigenvalues --  -10.22017 -10.21856 -10.20766 -10.20152 -10.20050
 Alpha  occ. eigenvalues --  -10.19827 -10.19684 -10.19616 -10.19553 -10.19259
 Alpha  occ. eigenvalues --  -10.19249 -10.19146 -10.19023 -10.18956 -10.18475
 Alpha  occ. eigenvalues --  -10.18421 -10.18381 -10.18381 -10.18328 -10.18293
 Alpha  occ. eigenvalues --  -10.18286 -10.18247 -10.18233 -10.18232 -10.18213
 Alpha  occ. eigenvalues --  -10.18211 -10.18181 -10.18170 -10.18141 -10.18063
 Alpha  occ. eigenvalues --  -10.17900 -10.17319 -10.17167 -10.17075 -10.16976
 Alpha  occ. eigenvalues --  -10.16927 -10.16363  -0.94764  -0.93000  -0.86582
 Alpha  occ. eigenvalues --   -0.85308  -0.84846  -0.84441  -0.84248  -0.83381
 Alpha  occ. eigenvalues --   -0.81562  -0.80715  -0.77661  -0.76625  -0.75526
 Alpha  occ. eigenvalues --   -0.74259  -0.73798  -0.73622  -0.73490  -0.72738
 Alpha  occ. eigenvalues --   -0.72381  -0.72064  -0.69764  -0.68831  -0.66965
 Alpha  occ. eigenvalues --   -0.64311  -0.62557  -0.61009  -0.60049  -0.59731
 Alpha  occ. eigenvalues --   -0.59596  -0.59300  -0.58854  -0.58214  -0.57954
 Alpha  occ. eigenvalues --   -0.57417  -0.55705  -0.54084  -0.52142  -0.51843
 Alpha  occ. eigenvalues --   -0.50990  -0.50862  -0.50137  -0.49577  -0.49039
 Alpha  occ. eigenvalues --   -0.47970  -0.46783  -0.46161  -0.45704  -0.45002
 Alpha  occ. eigenvalues --   -0.44738  -0.44204  -0.43984  -0.43790  -0.43324
 Alpha  occ. eigenvalues --   -0.43266  -0.43048  -0.42781  -0.42294  -0.41962
 Alpha  occ. eigenvalues --   -0.41429  -0.41323  -0.41207  -0.40974  -0.40840
 Alpha  occ. eigenvalues --   -0.40196  -0.40075  -0.39898  -0.39271  -0.38921
 Alpha  occ. eigenvalues --   -0.38453  -0.38182  -0.37877  -0.36848  -0.35934
 Alpha  occ. eigenvalues --   -0.35498  -0.35108  -0.34731  -0.34414  -0.34306
 Alpha  occ. eigenvalues --   -0.34142  -0.33924  -0.33800  -0.33632  -0.33329
 Alpha  occ. eigenvalues --   -0.33271  -0.32286  -0.31827  -0.31726  -0.29752
 Alpha  occ. eigenvalues --   -0.27620  -0.26260  -0.25523  -0.24979  -0.24500
 Alpha  occ. eigenvalues --   -0.24455  -0.24326  -0.23547  -0.23220  -0.22962
 Alpha  occ. eigenvalues --   -0.22443  -0.21957  -0.21679  -0.21321
 Alpha virt. eigenvalues --   -0.05672  -0.03096  -0.00479  -0.00035   0.00236
 Alpha virt. eigenvalues --    0.00304   0.01220   0.01413   0.01577   0.02277
 Alpha virt. eigenvalues --    0.02579   0.03651   0.06772   0.08777   0.09563

 Mulliken charges:
               1
     1  C   -0.532605
     2  C    0.110487
     3  C   -0.181538
     4  C   -0.207328
     5  C    0.190328
     6  C   -0.255916
     7  C    0.128335
     8  C    0.262419
     9  N   -0.610325
    10  C    0.190304
    11  C    0.103584
    12  C   -0.544595
    13  C   -0.027603
    14  C    0.100725
    15  C   -0.148232
    16  C   -0.133074
    17  C   -0.124892
    18  C   -0.140149
    19  C   -0.135075
    20  C   -0.058214
    21  C    0.076720
    22  C   -0.151492
    23  C   -0.131713
    24  C   -0.125206
    25  C   -0.130353
    26  C   -0.148730
    27  C   -0.059487
    28  C    0.111912
    29  C   -0.190285
    30  C   -0.134220
    31  C   -0.125541
    32  C   -0.137393
    33  C   -0.178275
    34  C    0.086204
    35  C   -0.152659
    36  C   -0.136867
    37  C   -0.125898
    38  C   -0.146014
    39  C   -0.162081
    40  C    0.182234
    41  N   -0.714383
    42  N   -0.724325
    43  H    0.153062
    44  H    0.163780
    45  H    0.163200
    46  H    0.124019
    47  H    0.126457
    48  H    0.112874
    49  H    0.150862
    50  H    0.152403
    51  H    0.203786
    52  H    0.119493
    53  H    0.126448
    54  H    0.125456
    55  H    0.125667
    56  H    0.131964
    57  H    0.130764
    58  H    0.128167
    59  H    0.126873
    60  H    0.128998
    61  H    0.133979
    62  H    0.142232
    63  H    0.127056
    64  H    0.126911
    65  H    0.128774
    66  H    0.169372
    67  H    0.136557
    68  H    0.122703
    69  H    0.119860
    70  H    0.119594
    71  H    0.176407
    72  H    0.311789
    73  H    0.305592
    74  H    0.315734
    75  H    0.300385
 Sum of Mulliken charges =  -0.00000

 Dipole moment (field-independent basis, Debye):
    X=             -2.2270    Y=             -0.4362    Z=             -0.2116  Tot=              2.2792
 Quadrupole moment (field-independent basis, Debye-Ang):
   XX=           -229.4678   YY=           -229.2688   ZZ=           -229.6033
   XY=              8.9951   XZ=              0.0594   YZ=              2.6700

 1\1\GINC-NODE83\FOpt\RB3LYP\6-31G(d)\C39H33N3\WYKGROUP\04-Nov-2022\0\\
 #p b3lyp/6-31g(d) opt SCF=XQC\\Gaussian input prepared by ASE\\0,1\C,6
 .6738184442,0.0594395692,-2.9522084468\C,5.4574569095,-0.5390019264,-2
 .284260595\C,5.3356064936,-1.9494189375,-2.2030813163\C,4.2507904898,-
 2.5484224926,-1.6037623923\C,3.2229124004,-1.7506423716,-1.0542115144\
 C,2.0808438594,-2.2929798114,-0.4081101535\C,1.1053781384,-1.474622931
 ,0.1005840132\C,1.2855688496,-0.0598446466,-0.0453830473\N,2.346461612
 ,0.4766355903,-0.6191218458\C,3.3233787783,-0.3262615736,-1.1306813203

 Normal termination of Gaussian 16 at Fri Nov  4 23:23:22 2022.
