 Gaussian 16, Revision B.01,
 Gaussian 16:  ES64L-G16RevB.01 20-Dec-2017

 -------------------------------------------------------------------
 #p b3lyp/6-31g(d) 6D 10F nosymm GFInput td=(50-50,nstate=2) SCF=XQC
 -------------------------------------------------------------------

 ------------------------------
 Gaussian input prepared by ASE
 ------------------------------
 Symbolic Z-matrix:
 Charge =  0 Multiplicity = 1

                          Input orientation:
 ---------------------------------------------------------------------
 Center     Atomic      Atomic             Coordinates (Angstroms)
 Number     Number       Type             X           Y           Z
 ---------------------------------------------------------------------
      1          6           0        6.673818    0.059440   -2.952208
      2          6           0        5.457457   -0.539002   -2.284261
      3          6           0        5.335606   -1.949419   -2.203081
      4          6           0        4.250790   -2.548422   -1.603762
      5          6           0        3.222912   -1.750642   -1.054212
      6          6           0        2.080844   -2.292980   -0.408110
      7          6           0        1.105378   -1.474623    0.100584
      8          6           0        1.285569   -0.059845   -0.045383
      9          7           0        2.346462    0.476636   -0.619122
     10          6           0        3.323379   -0.326262   -1.130681
     11          6           0        4.462511    0.278779   -1.751353
     12          6           0        4.574048    1.781395   -1.822760
     13          6           0        0.230714    0.848181    0.473534
     14          6           0        0.603133    2.286440    0.673446
     15          6           0        0.719972    2.813970    1.966148
     16          6           0        1.074718    4.148609    2.166846
     17          6           0        1.317873    4.980249    1.073915
     18          6           0        1.207901    4.465693   -0.219715
     19          6           0        0.860483    3.129849   -0.417631
     20          6           0       -1.016875    0.373786    0.743115
     21          6           0       -2.086883    1.333310    1.171364
     22          6           0       -2.644284    2.227237    0.245265
     23          6           0       -3.626598    3.139591    0.632403
     24          6           0       -4.061780    3.181640    1.956895
     25          6           0       -3.511324    2.300573    2.889654
     26          6           0       -2.538407    1.382253    2.499251
     27          6           0       -1.367703   -1.135249    0.533264
     28          6           0       -1.645767   -1.433430   -0.978876
     29          6           0       -1.309094   -0.556866   -2.018112
     30          6           0       -1.557257   -0.883272   -3.354646
     31          6           0       -2.145755   -2.100576   -3.687001
     32          6           0       -2.493489   -2.985198   -2.664167
     33          6           0       -2.255643   -2.652688   -1.331601
     34          6           0       -2.648257   -1.523392    1.325694
     35          6           0       -3.894350   -1.109973    0.820441
     36          6           0       -5.085090   -1.399485    1.482127
     37          6           0       -5.066503   -2.123481    2.675014
     38          6           0       -3.842278   -2.546845    3.186729
     39          6           0       -2.647099   -2.252900    2.522960
     40          6           0       -0.075652   -1.977879    0.942485
     41          7           0       -0.336123   -3.408724    0.799870
     42          7           0        0.261114   -1.773114    2.372001
     43          1           0        7.344774   -0.720434   -3.324926
     44          1           0        7.246646    0.690758   -2.260650
     45          1           0        6.397278    0.697217   -3.801524
     46          1           0        6.125190   -2.565678   -2.626636
     47          1           0        4.174450   -3.631895   -1.547795
     48          1           0        1.996835   -3.373697   -0.319147
     49          1           0        4.596473    2.128925   -2.864587
     50          1           0        5.503429    2.132397   -1.355740
     51          1           0        3.731959    2.254534   -1.317840
     52          1           0        0.526308    2.174866    2.823218
     53          1           0        1.157944    4.536906    3.178636
     54          1           0        1.591250    6.020869    1.227644
     55          1           0        1.395369    5.105329   -1.078470
     56          1           0        0.791357    2.733695   -1.425720
     57          1           0       -2.306343    2.206153   -0.786366
     58          1           0       -4.046628    3.820946   -0.102956
     59          1           0       -4.823918    3.894379    2.260684
     60          1           0       -3.843241    2.323229    3.924304
     61          1           0       -2.133779    0.688051    3.229790
     62          1           0       -0.847017    0.397011   -1.796060
     63          1           0       -1.285776   -0.175596   -4.133849
     64          1           0       -2.338943   -2.354953   -4.725808
     65          1           0       -2.964288   -3.936209   -2.900591
     66          1           0       -2.552051   -3.341036   -0.548990
     67          1           0       -3.937369   -0.548871   -0.106909
     68          1           0       -6.027262   -1.057930    1.061099
     69          1           0       -5.993160   -2.355681    3.193970
     70          1           0       -3.806138   -3.118316    4.111257
     71          1           0       -1.709201   -2.591933    2.939492
     72          1           0       -0.186155   -3.721852   -0.154572
     73          1           0        0.271495   -3.938024    1.419130
     74          1           0        0.161967   -0.787227    2.604502
     75          1           0        1.250066   -1.989300    2.499091
 ---------------------------------------------------------------------

 SCF Done:  E(RB3LYP) =  -1670.26170921     A.U. after   16 cycles

 Excitation energies and oscillator strengths:

 Excited state symmetry could not be determined.
 Excited State   1:      Triplet-?Sym    2.5108 eV  493.79 nm  f=0.0000  <S**2>=2.000
     142 ->145         0.24563
     142 ->146         0.11061
     143 ->145         0.20037
     143 ->146        -0.21593
     144 ->145         0.53424
 This state for optimization and/or second-order correction.
 Total Energy, E(TD-HF/TD-DFT) =  -1670.16943741
 Copying the excited state density for this state as the 1-particle RhoCI density.

 Excited state symmetry could not be determined.
 Excited State   2:      Triplet-?Sym    2.9764 eV  416.55 nm  f=0.0000  <S**2>=2.000
     131 ->145        -0.11529
     140 ->145        -0.10777
     142 ->145        -0.26986
     143 ->145         0.50157
     143 ->146        -0.16379
     144 ->145        -0.10076
     144 ->146        -0.23312

 Excited state symmetry could not be determined.
 Excited State   3:      Singlet-?Sym    3.6855 eV  336.41 nm  f=0.0419  <S**2>=0.000
     133 ->145        -0.13408
     140 ->145         0.18931
     141 ->145        -0.31465
     142 ->145         0.14478
     143 ->145         0.45284
     144 ->145        -0.29301

 Excited state symmetry could not be determined.
 Excited State   4:      Singlet-?Sym    3.7353 eV  331.93 nm  f=0.0101  <S**2>=0.000
     140 ->145        -0.11186
     142 ->145        -0.37366
     143 ->145         0.42655
     144 ->145         0.32335
     144 ->146         0.17360

 Alpha  occ. eigenvalues --  -14.32374 -14.32204 -14.31610 -10.26205 -10.22939
 Alpha  occ. eigenvalues --  -10.22018 -10.21856 -10.20766 -10.20152 -10.20050
 Alpha  occ. eigenvalues --  -10.19827 -10.19684 -10.19616 -10.19553 -10.19259
 Alpha  occ. eigenvalues --  -10.19249 -10.19146 -10.19023 -10.18956 -10.18475
 Alpha  occ. eigenvalues --  -10.18421 -10.18381 -10.18381 -10.18328 -10.18293
 Alpha  occ. eigenvalues --  -10.18286 -10.18247 -10.18233 -10.18232 -10.18213
 Alpha  occ. eigenvalues --  -10.18211 -10.18181 -10.18170 -10.18141 -10.18063
 Alpha  occ. eigenvalues --  -10.17901 -10.17319 -10.17167 -10.17075 -10.16976
 Alpha  occ. eigenvalues --  -10.16927 -10.16363  -0.94764  -0.93000  -0.86582
 Alpha  occ. eigenvalues --   -0.85308  -0.84846  -0.84441  -0.84248  -0.83381
 Alpha  occ. eigenvalues --   -0.81562  -0.80715  -0.77661  -0.76625  -0.75526
 Alpha  occ. eigenvalues --   -0.74259  -0.73798  -0.73622  -0.73490  -0.72738
 Alpha  occ. eigenvalues --   -0.72381  -0.72064  -0.69764  -0.68831  -0.66965
 Alpha  occ. eigenvalues --   -0.64311  -0.62557  -0.61009  -0.60049  -0.59731
 Alpha  occ. eigenvalues --   -0.59596  -0.59300  -0.58854  -0.58214  -0.57954
 Alpha  occ. eigenvalues --   -0.57417  -0.55705  -0.54084  -0.52142  -0.51843
 Alpha  occ. eigenvalues --   -0.50990  -0.50862  -0.50137  -0.49577  -0.49039
 Alpha  occ. eigenvalues --   -0.47970  -0.46783  -0.46161  -0.45704  -0.45002
 Alpha  occ. eigenvalues --   -0.44738  -0.44204  -0.43984  -0.43790  -0.43324
 Alpha  occ. eigenvalues --   -0.43266  -0.43048  -0.42781  -0.42294  -0.41962
 Alpha  occ. eigenvalues --   -0.41429  -0.41323  -0.41207  -0.40974  -0.40840
 Alpha  occ. eigenvalues --   -0.40196  -0.40075  -0.39898  -0.39271  -0.38921
 Alpha  occ. eigenvalues --   -0.38453  -0.38182  -0.37877  -0.36848  -0.35934
 Alpha  occ. eigenvalues --   -0.35498  -0.35108  -0.34731  -0.34414  -0.34306
 Alpha  occ. eigenvalues --   -0.34142  -0.33924  -0.33800  -0.33632  -0.33329
 Alpha  occ. eigenvalues --   -0.33271  -0.32286  -0.31827  -0.31726  -0.29752
 Alpha  occ. eigenvalues --   -0.27620  -0.26260  -0.25523  -0.24979  -0.24500
 Alpha  occ. eigenvalues --   -0.24455  -0.24326  -0.23547  -0.23220  -0.22963
 Alpha  occ. eigenvalues --   -0.22443  -0.21957  -0.21679  -0.21321
 Alpha virt. eigenvalues --   -0.05672  -0.03097  -0.00479  -0.00035   0.00236
 Alpha virt. eigenvalues --    0.00304   0.01220   0.01413   0.01577   0.02277
 Alpha virt. eigenvalues --    0.02579   0.03651   0.06772   0.08777   0.09563

 Mulliken charges:
               1
     1  C   -0.532610
     2  C    0.110500
     3  C   -0.181536
     4  C   -0.207331
     5  C    0.190345
     6  C   -0.255911
     7  C    0.128316
     8  C    0.262398
     9  N   -0.610296
    10  C    0.190280
    11  C    0.103581
    12  C   -0.544604
    13  C   -0.027581
    14  C    0.100741
    15  C   -0.148232
    16  C   -0.133083
    17  C   -0.124892
    18  C   -0.140145
    19  C   -0.135085
    20  C   -0.058235
    21  C    0.076732
    22  C   -0.151477
    23  C   -0.131730
    24  C   -0.125204
    25  C   -0.130349
    26  C   -0.148740
    27  C   -0.059497
    28  C    0.111920
    29  C   -0.190303
    30  C   -0.134218
    31  C   -0.125543
    32  C   -0.137391
    33  C   -0.178276
    34  C    0.086194
    35  C   -0.152645
    36  C   -0.136888
    37  C   -0.125888
    38  C   -0.146018
    39  C   -0.162077
    40  C    0.182246
    41  N   -0.714381
    42  N   -0.724321
    43  H    0.153062
    44  H    0.163780
    45  H    0.163200
    46  H    0.124020
    47  H    0.126458
    48  H    0.112873
    49  H    0.150864
    50  H    0.152405
    51  H    0.203787
    52  H    0.119493
    53  H    0.126448
    54  H    0.125457
    55  H    0.125667
    56  H    0.131962
    57  H    0.130763
    58  H    0.128170
    59  H    0.126873
    60  H    0.128996
    61  H    0.133982
    62  H    0.142237
    63  H    0.127054
    64  H    0.126911
    65  H    0.128774
    66  H    0.169373
    67  H    0.136557
    68  H    0.122703
    69  H    0.119861
    70  H    0.119594
    71  H    0.176411
    72  H    0.311790
    73  H    0.305593
    74  H    0.315733
    75  H    0.300385
 Sum of Mulliken charges =  -0.00000

 Dipole moment (field-independent basis, Debye):
    X=              2.0954    Y=             -0.4288    Z=             -0.7873  Tot=              2.2792
 Quadrupole moment (field-independent basis, Debye-Ang):
   XX=           -231.4758   YY=           -228.1873   ZZ=           -229.0913
   XY=             -8.9042   XZ=             -2.2319   YZ=              1.3108

 Normal termination of Gaussian 16 at Sat Nov  5 10:36:45 2022.
