 Gaussian 16, Revision B.01,
 Gaussian 16:  ES64L-G16RevB.01 20-Dec-2017

 -------------------------------------------------------------------
 #p b3lyp/6-31g(d) 6D 10F nosymm GFInput td=(50-50,nstate=2) SCF=XQC
 -------------------------------------------------------------------

 ------------------------------
 Gaussian input prepared by ASE
 ------------------------------
 Symbolic Z-matrix:
 Charge =  0 Multiplicity = 1

                          Input orientation:
 ---------------------------------------------------------------------
 Center     Atomic      Atomic             Coordinates (Angstroms)
 Number     Number       Type             X           Y           Z
 ---------------------------------------------------------------------
      1          6           0       -2.990572    3.017121    0.312932
      2          6           0       -2.212312    1.742451    0.249999
      3          7           0       -0.804671    1.788088    0.294433
      4          6           0       -0.353755    0.499224    0.211158
      5          6           0       -1.419902   -0.372507    0.158277
      6          6           0       -2.618775    0.422528    0.186163
      7          6           0       -4.026208   -0.095966    0.161311
      8          6           0       -0.853464   -1.695052    0.031663
      9          6           0       -1.394635   -2.982768   -0.051677
     10          6           0       -0.539463   -4.077116   -0.165456
     11          6           0        0.850321   -3.899012   -0.196741
     12          6           0        1.421947   -2.626809   -0.119593
     13          6           0        0.566040   -1.533413   -0.006637
     14          7           0        0.877075   -0.145287    0.118472
     15          6           0        2.135377    0.454271    0.241303
     16          6           0        2.271787    1.685052    0.915821
     17          6           0        3.530449    2.269186    0.974954
     18          6           0        4.618915    1.618020    0.390061
     19          6           0        4.381951    0.385520   -0.214241
     20          7           0        3.177063   -0.187295   -0.302142
     21          1           0       -4.060936    2.813830    0.225747
     22          1           0       -2.724912    3.706163   -0.501721
     23          1           0       -2.835102    3.554961    1.258784
     24          1           0       -0.262408    2.618937    0.114055
     25          1           0       -4.205384   -0.718634   -0.724811
     26          1           0       -4.761514    0.714680    0.146452
     27          1           0       -4.242575   -0.719336    1.038919
     28          1           0       -2.471636   -3.124224   -0.024363
     29          1           0       -0.955187   -5.079065   -0.232851
     30          1           0        1.501939   -4.763559   -0.290083
     31          1           0        2.492996   -2.485842   -0.166353
     32          1           0        1.426073    2.135206    1.422972
     33          1           0        3.663144    3.215712    1.492337
     34          1           0        5.617720    2.041017    0.415836
     35          1           0        5.200615   -0.176086   -0.661435
 ---------------------------------------------------------------------

 SCF Done:  E(RB3LYP) =  -821.098509600     A.U. after   15 cycles

 Excitation energies and oscillator strengths:

 Excited state symmetry could not be determined.
 Excited State   1:      Triplet-?Sym    3.0287 eV  409.36 nm  f=0.0000  <S**2>=2.000
      69 -> 70         0.56759
      69 -> 71        -0.36038
 This state for optimization and/or second-order correction.
 Total Energy, E(TD-HF/TD-DFT) =  -820.987205189
 Copying the excited state density for this state as the 1-particle RhoCI density.

 Excited state symmetry could not be determined.
 Excited State   2:      Triplet-?Sym    3.2003 eV  387.41 nm  f=0.0000  <S**2>=2.000
      66 -> 71         0.12407
      68 -> 70        -0.14745
      69 -> 70         0.37043
      69 -> 71         0.52483

 Excited state symmetry could not be determined.
 Excited State   3:      Singlet-?Sym    3.2997 eV  375.75 nm  f=0.0162  <S**2>=0.000
      69 -> 70         0.70355

 Excited state symmetry could not be determined.
 Excited State   4:      Singlet-?Sym    3.6557 eV  339.16 nm  f=0.1102  <S**2>=0.000
      68 -> 70        -0.12158
      69 -> 71         0.68733

 Alpha  occ. eigenvalues --  -14.38940 -14.37932 -14.33417 -10.27405 -10.23763
 Alpha  occ. eigenvalues --  -10.23110 -10.21735 -10.21239 -10.20907 -10.20697
 Alpha  occ. eigenvalues --  -10.20019 -10.19179 -10.18099 -10.17768 -10.17706
 Alpha  occ. eigenvalues --  -10.17151 -10.17090 -10.16894 -10.16841 -10.16158
 Alpha  occ. eigenvalues --   -1.00811  -0.96608  -0.93186  -0.83658  -0.81162
 Alpha  occ. eigenvalues --   -0.79869  -0.77965  -0.75437  -0.72951  -0.72132
 Alpha  occ. eigenvalues --   -0.69856  -0.67243  -0.64306  -0.63235  -0.60649
 Alpha  occ. eigenvalues --   -0.58160  -0.56628  -0.54592  -0.53904  -0.51089
 Alpha  occ. eigenvalues --   -0.50619  -0.48348  -0.47472  -0.45464  -0.45109
 Alpha  occ. eigenvalues --   -0.44445  -0.42732  -0.42271  -0.42216  -0.41071
 Alpha  occ. eigenvalues --   -0.40493  -0.40179  -0.39885  -0.39406  -0.39065
 Alpha  occ. eigenvalues --   -0.38385  -0.36955  -0.35832  -0.35279  -0.33941
 Alpha  occ. eigenvalues --   -0.32596  -0.32262  -0.29301  -0.27194  -0.26519
 Alpha  occ. eigenvalues --   -0.25552  -0.22549  -0.19675  -0.17357
 Alpha virt. eigenvalues --   -0.03029  -0.01923   0.01364   0.03209   0.05623
 Alpha virt. eigenvalues --    0.07409   0.09259   0.09813   0.11185   0.11823
 Alpha virt. eigenvalues --    0.13095   0.13906   0.14434   0.14534   0.15473

 Mulliken charges:
               1
     1  C   -0.537600
     2  C    0.270663
     3  N   -0.742513
     4  C    0.550055
     5  C   -0.000475
     6  C    0.050180
     7  C   -0.534091
     8  C    0.041014
     9  C   -0.208399
    10  C   -0.141998
    11  C   -0.150609
    12  C   -0.157256
    13  C    0.294818
    14  N   -0.706341
    15  C    0.496249
    16  C   -0.201326
    17  C   -0.105206
    18  C   -0.151976
    19  C    0.047442
    20  N   -0.482433
    21  H    0.170954
    22  H    0.151885
    23  H    0.159240
    24  H    0.323555
    25  H    0.159805
    26  H    0.146937
    27  H    0.159560
    28  H    0.122073
    29  H    0.117447
    30  H    0.118718
    31  H    0.158416
    32  H    0.150289
    33  H    0.145251
    34  H    0.139643
    35  H    0.146031
 Sum of Mulliken charges =  -0.00000

 Dipole moment (field-independent basis, Debye):
    X=              0.8677    Y=              4.1595    Z=              0.7046  Tot=              4.3071
 Quadrupole moment (field-independent basis, Debye-Ang):
   XX=            -99.7407   YY=           -103.5886   ZZ=           -119.6936
   XY=              4.1936   XZ=              1.7126   YZ=              2.5766

 Normal termination of Gaussian 16 at Sat Nov  5 09:52:46 2022.
