 Gaussian 16, Revision B.01,
 Gaussian 16:  ES64L-G16RevB.01 20-Dec-2017

 -----------------------------
 #p b3lyp/6-31g(d) opt SCF=XQC
 -----------------------------

 ------------------------------
 Gaussian input prepared by ASE
 ------------------------------
 Symbolic Z-matrix:
 Charge =  0 Multiplicity = 1

 SCF Done:  E(RB3LYP) =  -821.092370175     A.U. after   15 cycles
 SCF Done:  E(RB3LYP) =  -821.096539330     A.U. after   12 cycles
 SCF Done:  E(RB3LYP) =  -821.096952788     A.U. after   12 cycles
 SCF Done:  E(RB3LYP) =  -821.097152058     A.U. after   11 cycles
 SCF Done:  E(RB3LYP) =  -821.097186307     A.U. after   10 cycles
 SCF Done:  E(RB3LYP) =  -821.097209677     A.U. after   10 cycles
 SCF Done:  E(RB3LYP) =  -821.097224267     A.U. after   10 cycles
 SCF Done:  E(RB3LYP) =  -821.097234135     A.U. after   10 cycles
 SCF Done:  E(RB3LYP) =  -821.097246439     A.U. after   10 cycles
 SCF Done:  E(RB3LYP) =  -821.097254936     A.U. after   10 cycles
 SCF Done:  E(RB3LYP) =  -821.098297206     A.U. after   11 cycles
 SCF Done:  E(RB3LYP) =  -821.098427180     A.U. after   11 cycles
 SCF Done:  E(RB3LYP) =  -821.098473971     A.U. after   11 cycles
 SCF Done:  E(RB3LYP) =  -821.098493301     A.U. after   10 cycles
 SCF Done:  E(RB3LYP) =  -821.098500255     A.U. after   10 cycles
 SCF Done:  E(RB3LYP) =  -821.098504028     A.U. after    9 cycles
 SCF Done:  E(RB3LYP) =  -821.098507976     A.U. after    9 cycles
 SCF Done:  E(RB3LYP) =  -821.098509641     A.U. after    8 cycles
 SCF Done:  E(RB3LYP) =  -821.098510515     A.U. after    8 cycles
 SCF Done:  E(RB3LYP) =  -821.098510604     A.U. after    7 cycles
 Optimization completed.
    -- Stationary point found.

                         Standard orientation:
 ---------------------------------------------------------------------
 Center     Atomic      Atomic             Coordinates (Angstroms)
 Number     Number       Type             X           Y           Z
 ---------------------------------------------------------------------
      1          6           0       -2.830437   -3.525909    0.193442
      2          6           0       -2.219634   -2.163879    0.114545
      3          7           0       -0.816769   -2.035193    0.084206
      4          6           0       -0.532854   -0.698428    0.021894
      5          6           0       -1.700764    0.031268   -0.032016
      6          6           0       -2.789641   -0.907533    0.024143
      7          6           0       -4.251197   -0.572424   -0.019188
      8          6           0       -1.307378    1.420783   -0.054433
      9          6           0       -2.007363    2.630494   -0.122587
     10          6           0       -1.298703    3.830332   -0.129832
     11          6           0        0.101506    3.834763   -0.069873
     12          6           0        0.829626    2.644905    0.002839
     13          6           0        0.120100    1.446006    0.010788
     14          7           0        0.605267    0.103415    0.047561
     15          6           0        1.931080   -0.341578    0.001947
     16          6           0        2.234597   -1.613343   -0.526159
     17          6           0        3.557524   -2.035894   -0.510263
     18          6           0        4.543483   -1.189961    0.002726
     19          6           0        4.141456    0.062802    0.460271
     20          7           0        2.872694    0.484276    0.474578
     21          1           0       -3.919409   -3.451592    0.250226
     22          1           0       -2.497264   -4.079181    1.083330
     23          1           0       -2.589338   -4.143042   -0.683540
     24          1           0       -0.178414   -2.764751    0.361956
     25          1           0       -4.525220    0.118547    0.788588
     26          1           0       -4.879186   -1.462938    0.084044
     27          1           0       -4.525948   -0.084725   -0.963784
     28          1           0       -3.092811    2.630098   -0.172496
     29          1           0       -1.838094    4.772553   -0.180297
     30          1           0        0.637502    4.779994   -0.072309
     31          1           0        1.908709    2.647224    0.071973
     32          1           0        1.462615   -2.221591   -0.983489
     33          1           0        3.818478   -3.010258   -0.914887
     34          1           0        5.587766   -1.482935    0.031702
     35          1           0        4.873861    0.770676    0.845098
 ---------------------------------------------------------------------

 The electronic state is 1-A.
 Alpha  occ. eigenvalues --  -14.38940 -14.37932 -14.33417 -10.27405 -10.23763
 Alpha  occ. eigenvalues --  -10.23110 -10.21735 -10.21239 -10.20907 -10.20697
 Alpha  occ. eigenvalues --  -10.20019 -10.19179 -10.18099 -10.17768 -10.17706
 Alpha  occ. eigenvalues --  -10.17151 -10.17090 -10.16894 -10.16841 -10.16158
 Alpha  occ. eigenvalues --   -1.00811  -0.96608  -0.93186  -0.83658  -0.81162
 Alpha  occ. eigenvalues --   -0.79869  -0.77965  -0.75437  -0.72951  -0.72132
 Alpha  occ. eigenvalues --   -0.69856  -0.67243  -0.64306  -0.63235  -0.60649
 Alpha  occ. eigenvalues --   -0.58160  -0.56628  -0.54592  -0.53904  -0.51089
 Alpha  occ. eigenvalues --   -0.50619  -0.48348  -0.47472  -0.45464  -0.45109
 Alpha  occ. eigenvalues --   -0.44445  -0.42732  -0.42271  -0.42216  -0.41071
 Alpha  occ. eigenvalues --   -0.40493  -0.40179  -0.39885  -0.39406  -0.39066
 Alpha  occ. eigenvalues --   -0.38385  -0.36955  -0.35832  -0.35279  -0.33941
 Alpha  occ. eigenvalues --   -0.32596  -0.32262  -0.29301  -0.27194  -0.26519
 Alpha  occ. eigenvalues --   -0.25552  -0.22549  -0.19675  -0.17357
 Alpha virt. eigenvalues --   -0.03029  -0.01923   0.01364   0.03209   0.05623
 Alpha virt. eigenvalues --    0.07409   0.09259   0.09813   0.11185   0.11823
 Alpha virt. eigenvalues --    0.13095   0.13906   0.14434   0.14534   0.15473

 Mulliken charges:
               1
     1  C   -0.537599
     2  C    0.270652
     3  N   -0.742504
     4  C    0.550033
     5  C   -0.000473
     6  C    0.050187
     7  C   -0.534093
     8  C    0.041016
     9  C   -0.208400
    10  C   -0.141997
    11  C   -0.150611
    12  C   -0.157258
    13  C    0.294829
    14  N   -0.706330
    15  C    0.496228
    16  C   -0.201321
    17  C   -0.105208
    18  C   -0.151974
    19  C    0.047444
    20  N   -0.482427
    21  H    0.170954
    22  H    0.151885
    23  H    0.159240
    24  H    0.323554
    25  H    0.159805
    26  H    0.146937
    27  H    0.159561
    28  H    0.122073
    29  H    0.117447
    30  H    0.118717
    31  H    0.158417
    32  H    0.150289
    33  H    0.145251
    34  H    0.139642
    35  H    0.146031
 Sum of Mulliken charges =  -0.00000

 Dipole moment (field-independent basis, Debye):
    X=              1.3968    Y=             -4.0685    Z=             -0.2178  Tot=              4.3071
 Quadrupole moment (field-independent basis, Debye-Ang):
   XX=            -99.3785   YY=           -103.1362   ZZ=           -120.1599
   XY=             -2.9663   XZ=             -0.8692   YZ=             -0.1849

 1\1\GINC-NODE93\FOpt\RB3LYP\6-31G(d)\C17H15N3\WYKGROUP\04-Nov-2022\0\\
 #p b3lyp/6-31g(d) opt SCF=XQC\\Gaussian input prepared by ASE\\0,1\C,-
 2.9905718652,3.0171209483,0.3129321295\C,-2.2123124086,1.742451332,0.2
 499986752\N,-0.8046709617,1.7880880983,0.2944329493\C,-0.3537554118,0.
 499223816,0.2111583624\C,-1.4199018065,-0.3725070067,0.1582765814\C,-2
 .618774925,0.4225278931,0.1861625357\C,-4.0262076484,-0.0959661174,0.1
 61311179\C,-0.8534640742,-1.6950516811,0.0316628477\C,-1.3946346244,-2
 .9827682282,-0.0516774418\C,-0.5394634054,-4.0771164322,-0.1654564846\

 Normal termination of Gaussian 16 at Fri Nov  4 09:39:40 2022.
