 Gaussian 16, Revision B.01,
 Gaussian 16:  ES64L-G16RevB.01 20-Dec-2017

 -----------------------------
 #p b3lyp/6-31g(d) opt SCF=XQC
 -----------------------------

 ------------------------------
 Gaussian input prepared by ASE
 ------------------------------
 Symbolic Z-matrix:
 Charge =  0 Multiplicity = 1

 SCF Done:  E(RB3LYP) =  -2678.21505290     A.U. after   16 cycles
 SCF Done:  E(RB3LYP) =  -2678.23206174     A.U. after   13 cycles
 SCF Done:  E(RB3LYP) =  -2678.23037242     A.U. after   13 cycles
 SCF Done:  E(RB3LYP) =  -2678.23372869     A.U. after   13 cycles
 SCF Done:  E(RB3LYP) =  -2678.23554504     A.U. after   13 cycles
 SCF Done:  E(RB3LYP) =  -2678.23629095     A.U. after   12 cycles
 SCF Done:  E(RB3LYP) =  -2678.23651961     A.U. after   11 cycles
 SCF Done:  E(RB3LYP) =  -2678.23659695     A.U. after   11 cycles
 SCF Done:  E(RB3LYP) =  -2678.23666893     A.U. after   10 cycles
 SCF Done:  E(RB3LYP) =  -2678.23668565     A.U. after   10 cycles
 SCF Done:  E(RB3LYP) =  -2678.23669636     A.U. after   10 cycles
 SCF Done:  E(RB3LYP) =  -2678.23670398     A.U. after   10 cycles
 SCF Done:  E(RB3LYP) =  -2678.23670757     A.U. after    9 cycles
 SCF Done:  E(RB3LYP) =  -2678.23670990     A.U. after    9 cycles
 SCF Done:  E(RB3LYP) =  -2678.23671172     A.U. after    9 cycles
 SCF Done:  E(RB3LYP) =  -2678.23671243     A.U. after    9 cycles
 SCF Done:  E(RB3LYP) =  -2678.23671273     A.U. after    7 cycles
 SCF Done:  E(RB3LYP) =  -2678.23671283     A.U. after    7 cycles
 SCF Done:  E(RB3LYP) =  -2678.23671286     A.U. after    6 cycles
 Optimization completed.
    -- Stationary point found.

                         Standard orientation:
 ---------------------------------------------------------------------
 Center     Atomic      Atomic             Coordinates (Angstroms)
 Number     Number       Type             X           Y           Z
 ---------------------------------------------------------------------
      1          6           0        9.408489   -1.910995   -2.492339
      2          6           0        9.473282   -2.794439   -1.239195
      3          6           0        9.739362   -1.957417    0.019396
      4          6           0        8.228887   -3.715477   -1.090927
      5          6           0        6.898085   -3.028748   -0.855227
      6          6           0        6.090551   -2.611650   -1.923656
      7          6           0        4.853667   -2.018150   -1.688509
      8          6           0        4.398741   -1.810581   -0.382937
      9          7           0        3.060623   -1.323461   -0.197813
     10          6           0        2.508008   -0.048494   -0.319587
     11          6           0        3.208944    1.222368   -0.542508
     12          6           0        4.612435    1.319351   -0.560893
     13          6           0        5.274531    2.527430   -0.758209
     14          6           0        6.815017    2.567776   -0.782924
     15          6           0        7.380009    1.968262    0.526507
     16          6           0        7.326109    1.740951   -1.986566
     17          6           0        7.363909    4.001034   -0.920591
     18          6           0        4.480131    3.668931   -0.947552
     19          6           0        3.083826    3.656781   -0.941213
     20          6           0        2.268306    4.953035   -1.150061
     21          6           0        1.367601    4.821022   -2.403441
     22          6           0        3.178100    6.179623   -1.369495
     23          6           0        1.398633    5.244576    0.098392
     24          6           0        2.437171    2.412559   -0.728075
     25          8           0        1.091924    2.393997   -0.706282
     26          7           0        1.186881   -0.098976   -0.184134
     27          6           0        0.832356   -1.413965    0.027247
     28          6           0       -0.440349   -2.002363    0.203244
     29          6           0       -1.699209   -1.216284    0.219835
     30          6           0       -1.763850    0.043837    0.835124
     31          6           0       -2.957210    0.778549    0.865942
     32          6           0       -3.009233    2.116187    1.513375
     33          6           0       -2.314550    2.367386    2.708382
     34          6           0       -2.364618    3.620749    3.316812
     35          6           0       -3.112272    4.651460    2.744586
     36          6           0       -3.807453    4.417109    1.556960
     37          6           0       -3.755508    3.163925    0.948284
     38          6           0       -4.102326    0.227002    0.274280
     39          6           0       -4.069770   -1.030893   -0.341774
     40          6           0       -5.281167   -1.631269   -0.967584
     41          6           0       -6.576617   -1.213345   -0.627088
     42          6           0       -7.694798   -1.794049   -1.239647
     43          6           0       -9.072958   -1.365388   -0.897409
     44          6           0       -9.365460   -0.021384   -0.610554
     45          6           0      -10.659311    0.379635   -0.291158
     46          6           0      -11.715980   -0.541967   -0.240915
     47          6           0      -13.133620   -0.111679    0.109209
     48          6           0      -13.221452    0.467358    1.534135
     49          6           0      -13.704137    0.876769   -0.925759
     50          6           0      -11.421663   -1.880922   -0.526242
     51          6           0      -10.128823   -2.288116   -0.850172
     52          6           0       -7.450756   -2.804677   -2.181471
     53          6           0       -6.133822   -3.175465   -2.441276
     54          7           0       -5.069135   -2.616124   -1.862811
     55          6           0       -2.859039   -1.735598   -0.370670
     56          6           0       -0.452182   -3.394541    0.357704
     57          6           0        0.720044   -4.168563    0.338530
     58          6           0        1.974415   -3.589902    0.165868
     59          6           0        1.998466   -2.204180    0.015337
     60          6           0        5.183474   -2.211477    0.718052
     61          6           0        4.748488   -2.055766    2.134608
     62          6           0        4.823984   -3.152499    3.009085
     63          6           0        4.453156   -3.027457    4.347282
     64          6           0        4.003744   -1.800496    4.837305
     65          6           0        3.929551   -0.701673    3.979632
     66          6           0        4.296907   -0.826134    2.640276
     67          6           0        6.422224   -2.815996    0.443600
     68          1           0       10.340369   -1.346845   -2.615475
     69          1           0        9.260822   -2.510542   -3.399139
     70          1           0        8.590055   -1.184999   -2.431062
     71          1           0       10.323100   -3.481386   -1.365094
     72          1           0       10.673314   -1.392631   -0.082848
     73          1           0        9.829101   -2.589584    0.911378
     74          1           0        8.934093   -1.236017    0.199627
     75          1           0        8.153256   -4.331369   -1.996647
     76          1           0        8.418215   -4.407452   -0.260308
     77          1           0        6.417240   -2.777944   -2.946578
     78          1           0        4.214731   -1.726516   -2.516621
     79          1           0        5.196206    0.421032   -0.416888
     80          1           0        7.037886    2.538743    1.397693
     81          1           0        7.072063    0.926874    0.668976
     82          1           0        8.476934    1.990566    0.515657
     83          1           0        8.423114    1.737919   -2.016716
     84          1           0        6.961063    2.160632   -2.931142
     85          1           0        6.987415    0.700682   -1.932441
     86          1           0        7.042490    4.642199   -0.091747
     87          1           0        8.459685    3.977813   -0.915822
     88          1           0        7.050199    4.472231   -1.858900
     89          1           0        4.976206    4.615876   -1.104140
     90          1           0        0.796851    5.746558   -2.551178
     91          1           0        0.663084    3.993955   -2.307145
     92          1           0        1.976527    4.655892   -3.300707
     93          1           0        3.826715    6.375353   -0.507526
     94          1           0        2.552256    7.067126   -1.515635
     95          1           0        3.809620    6.074276   -2.259528
     96          1           0        0.693271    4.436803    0.297248
     97          1           0        2.030353    5.380276    0.984841
     98          1           0        0.829412    6.170600   -0.052189
     99          1           0        0.794086    1.455179   -0.512988
    100          1           0       -0.868061    0.466194    1.275939
    101          1           0       -1.748706    1.565533    3.174423
    102          1           0       -1.823616    3.789850    4.244291
    103          1           0       -3.150707    5.628711    3.218335
    104          1           0       -4.383320    5.215362    1.095688
    105          1           0       -4.275300    3.001495    0.008014
    106          1           0       -5.025310    0.797151    0.298313
    107          1           0       -6.721824   -0.468701    0.147456
    108          1           0       -8.574705    0.721772   -0.664553
    109          1           0      -10.847861    1.430352   -0.085093
    110          1           0      -13.759727   -1.013973    0.081740
    111          1           0      -12.850836   -0.247663    2.276588
    112          1           0      -14.259383    0.715225    1.786129
    113          1           0      -12.628278    1.384691    1.628735
    114          1           0      -13.132814    1.812548   -0.940085
    115          1           0      -14.744868    1.126335   -0.687371
    116          1           0      -13.676834    0.453625   -1.935758
    117          1           0      -12.217901   -2.621208   -0.487205
    118          1           0       -9.932243   -3.339420   -1.041711
    119          1           0       -8.267640   -3.280687   -2.714725
    120          1           0       -5.922598   -3.962701   -3.164102
    121          1           0       -2.834255   -2.689646   -0.884115
    122          1           0       -1.403886   -3.891304    0.519667
    123          1           0        0.643367   -5.244156    0.470169
    124          1           0        2.881720   -4.184013    0.150673
    125          1           0        5.158783   -4.114246    2.629486
    126          1           0        4.510294   -3.890893    5.004743
    127          1           0        3.713261   -1.701209    5.879661
    128          1           0        3.588418    0.259987    4.353272
    129          1           0        4.253194    0.042750    1.991733
    130          1           0        7.033085   -3.129122    1.286051
 ---------------------------------------------------------------------

 The electronic state is 1-A.
 Alpha  occ. eigenvalues --  -19.14189 -14.39529 -14.32545 -14.32027 -10.26697
 Alpha  occ. eigenvalues --  -10.24418 -10.24141 -10.22579 -10.22143 -10.21715
 Alpha  occ. eigenvalues --  -10.21695 -10.21156 -10.21056 -10.21046 -10.20688
 Alpha  occ. eigenvalues --  -10.20524 -10.20267 -10.20143 -10.20110 -10.19859
 Alpha  occ. eigenvalues --  -10.19804 -10.19775 -10.19772 -10.19659 -10.19539
 Alpha  occ. eigenvalues --  -10.19456 -10.19443 -10.19322 -10.19316 -10.19294
 Alpha  occ. eigenvalues --  -10.19262 -10.19203 -10.19148 -10.19146 -10.19111
 Alpha  occ. eigenvalues --  -10.19105 -10.19102 -10.19083 -10.19021 -10.19013
 Alpha  occ. eigenvalues --  -10.19005 -10.18959 -10.18778 -10.18526 -10.18297
 Alpha  occ. eigenvalues --  -10.18296 -10.18270 -10.18196 -10.18137 -10.18101
 Alpha  occ. eigenvalues --  -10.18072 -10.18040 -10.17934 -10.17863 -10.17791
 Alpha  occ. eigenvalues --  -10.17773 -10.17772 -10.17686 -10.17658 -10.17623
 Alpha  occ. eigenvalues --  -10.17488 -10.16955 -10.16925 -10.16918 -10.16085
 Alpha  occ. eigenvalues --  -10.14976 -10.14930  -1.03648  -1.01977  -0.93604
 Alpha  occ. eigenvalues --   -0.91066  -0.86851  -0.86491  -0.86190  -0.85350
 Alpha  occ. eigenvalues --   -0.85259  -0.84539  -0.83487  -0.82071  -0.81350
 Alpha  occ. eigenvalues --   -0.81029  -0.79628  -0.78888  -0.78413  -0.78261
 Alpha  occ. eigenvalues --   -0.77686  -0.76168  -0.75427  -0.74769  -0.74661
 Alpha  occ. eigenvalues --   -0.73994  -0.73639  -0.72943  -0.72867  -0.71925
 Alpha  occ. eigenvalues --   -0.71500  -0.71101  -0.70733  -0.69306  -0.68608
 Alpha  occ. eigenvalues --   -0.68463  -0.68070  -0.67852  -0.66817  -0.66090
 Alpha  occ. eigenvalues --   -0.64447  -0.64144  -0.63702  -0.63434  -0.63134
 Alpha  occ. eigenvalues --   -0.62008  -0.61357  -0.61109  -0.60647  -0.60114
 Alpha  occ. eigenvalues --   -0.59625  -0.59513  -0.59204  -0.59088  -0.57943
 Alpha  occ. eigenvalues --   -0.56992  -0.56385  -0.55786  -0.55724  -0.55063
 Alpha  occ. eigenvalues --   -0.53442  -0.52530  -0.51743  -0.51585  -0.51237
 Alpha  occ. eigenvalues --   -0.50679  -0.49862  -0.49417  -0.48831  -0.48736
 Alpha  occ. eigenvalues --   -0.48130  -0.47712  -0.47341  -0.47112  -0.46854
 Alpha  occ. eigenvalues --   -0.46693  -0.46013  -0.45812  -0.45598  -0.45425
 Alpha  occ. eigenvalues --   -0.45009  -0.44944  -0.44705  -0.44312  -0.44192
 Alpha  occ. eigenvalues --   -0.43953  -0.43547  -0.43323  -0.43101  -0.42873
 Alpha  occ. eigenvalues --   -0.42819  -0.42779  -0.42533  -0.42377  -0.42225
 Alpha  occ. eigenvalues --   -0.42171  -0.42043  -0.41993  -0.41926  -0.41779
 Alpha  occ. eigenvalues --   -0.41564  -0.41364  -0.41095  -0.40915  -0.40762
 Alpha  occ. eigenvalues --   -0.40213  -0.39910  -0.39643  -0.38772  -0.38681
 Alpha  occ. eigenvalues --   -0.38609  -0.38429  -0.38018  -0.37780  -0.37589
 Alpha  occ. eigenvalues --   -0.37315  -0.37150  -0.36798  -0.36667  -0.36467
 Alpha  occ. eigenvalues --   -0.36375  -0.36329  -0.36161  -0.36094  -0.36054
 Alpha  occ. eigenvalues --   -0.35961  -0.35899  -0.35475  -0.35300  -0.35126
 Alpha  occ. eigenvalues --   -0.34868  -0.34652  -0.34522  -0.34407  -0.34135
 Alpha  occ. eigenvalues --   -0.33938  -0.33609  -0.33389  -0.33277  -0.33071
 Alpha  occ. eigenvalues --   -0.33013  -0.32834  -0.32740  -0.32515  -0.32464
 Alpha  occ. eigenvalues --   -0.32320  -0.31687  -0.31377  -0.30605  -0.30390
 Alpha  occ. eigenvalues --   -0.30225  -0.29717  -0.29163  -0.27770  -0.27687
 Alpha  occ. eigenvalues --   -0.27330  -0.26463  -0.25720  -0.25377  -0.25292
 Alpha  occ. eigenvalues --   -0.25192  -0.24781  -0.24200  -0.23639  -0.23356
 Alpha  occ. eigenvalues --   -0.23099  -0.21633  -0.21330  -0.20687  -0.19280
 Alpha virt. eigenvalues --   -0.04375  -0.04171  -0.03566  -0.02587  -0.02224
 Alpha virt. eigenvalues --   -0.01680  -0.00453  -0.00346   0.00499   0.00709
 Alpha virt. eigenvalues --    0.01133   0.01872   0.02008   0.02707   0.04518

 Mulliken charges:
               1
     1  C   -0.456740
     2  C   -0.060335
     3  C   -0.452104
     4  C   -0.356763
     5  C    0.198025
     6  C   -0.200483
     7  C   -0.118220
     8  C    0.137490
     9  N   -0.692781
    10  C    0.538245
    11  C    0.112399
    12  C   -0.301448
    13  C    0.189332
    14  C    0.020744
    15  C   -0.448757
    16  C   -0.448318
    17  C   -0.456708
    18  C   -0.295483
    19  C    0.144805
    20  C    0.038906
    21  C   -0.451036
    22  C   -0.456102
    23  C   -0.451082
    24  C    0.221232
    25  O   -0.664824
    26  N   -0.722296
    27  C    0.203870
    28  C    0.065236
    29  C    0.109730
    30  C   -0.220296
    31  C    0.089143
    32  C    0.087756
    33  C   -0.169600
    34  C   -0.133469
    35  C   -0.125660
    36  C   -0.134386
    37  C   -0.171774
    38  C   -0.239989
    39  C    0.109627
    40  C    0.245054
    41  C   -0.222191
    42  C    0.116837
    43  C    0.089126
    44  C   -0.171344
    45  C   -0.191816
    46  C    0.194514
    47  C   -0.162216
    48  C   -0.439372
    49  C   -0.439262
    50  C   -0.203739
    51  C   -0.169517
    52  C   -0.195272
    53  C    0.042479
    54  N   -0.483522
    55  C   -0.225037
    56  C   -0.198661
    57  C   -0.150561
    58  C   -0.166708
    59  C    0.331411
    60  C    0.094791
    61  C    0.075347
    62  C   -0.160915
    63  C   -0.133913
    64  C   -0.122010
    65  C   -0.138353
    66  C   -0.162401
    67  C   -0.264938
    68  H    0.144762
    69  H    0.137036
    70  H    0.160254
    71  H    0.128497
    72  H    0.144190
    73  H    0.138010
    74  H    0.156934
    75  H    0.143591
    76  H    0.142771
    77  H    0.139005
    78  H    0.155681
    79  H    0.147863
    80  H    0.146142
    81  H    0.148983
    82  H    0.135589
    83  H    0.135193
    84  H    0.144967
    85  H    0.150719
    86  H    0.145785
    87  H    0.138458
    88  H    0.145580
    89  H    0.126770
    90  H    0.127762
    91  H    0.180685
    92  H    0.131370
    93  H    0.139438
    94  H    0.139226
    95  H    0.139394
    96  H    0.184140
    97  H    0.129733
    98  H    0.127802
    99  H    0.451531
   100  H    0.151659
   101  H    0.133495
   102  H    0.128115
   103  H    0.126935
   104  H    0.127647
   105  H    0.131863
   106  H    0.127533
   107  H    0.146463
   108  H    0.134147
   109  H    0.129046
   110  H    0.130023
   111  H    0.151306
   112  H    0.143191
   113  H    0.144626
   114  H    0.144579
   115  H    0.143313
   116  H    0.150749
   117  H    0.126701
   118  H    0.134047
   119  H    0.136572
   120  H    0.137312
   121  H    0.159777
   122  H    0.133533
   123  H    0.128221
   124  H    0.139207
   125  H    0.131102
   126  H    0.132350
   127  H    0.132800
   128  H    0.137457
   129  H    0.151964
   130  H    0.140709
 Sum of Mulliken charges =  -0.00000

 Dipole moment (field-independent basis, Debye):
    X=              1.2827    Y=             -2.4674    Z=              1.0092  Tot=              2.9584
 Quadrupole moment (field-independent basis, Debye-Ang):
   XX=           -311.1925   YY=           -374.9323   ZZ=           -387.1216
   XY=            -16.9641   XZ=             -1.7324   YZ=              4.8702

 Normal termination of Gaussian 16 at Sat Nov  5 00:40:22 2022.
