 Gaussian 16, Revision B.01,
 Gaussian 16:  ES64L-G16RevB.01 20-Dec-2017

 -------------------------------------------------------------------
 #p b3lyp/6-31g(d) 6D 10F nosymm GFInput td=(50-50,nstate=2) SCF=XQC
 -------------------------------------------------------------------

 ------------------------------
 Gaussian input prepared by ASE
 ------------------------------
 Symbolic Z-matrix:
 Charge =  0 Multiplicity = 1

                          Input orientation:
 ---------------------------------------------------------------------
 Center     Atomic      Atomic             Coordinates (Angstroms)
 Number     Number       Type             X           Y           Z
 ---------------------------------------------------------------------
      1          6           0       -9.368238    1.534592   -2.156684
      2          6           0       -9.198555    2.953792   -1.598007
      3          6           0       -9.276961    2.962234   -0.065285
      4          6           0       -7.920262    3.659307   -2.133759
      5          6           0       -6.589572    3.059113   -1.724840
      6          6           0       -5.982795    2.043108   -2.477952
      7          6           0       -4.742034    1.531305   -2.109183
      8          6           0       -4.083426    2.007601   -0.971670
      9          7           0       -2.748034    1.546073   -0.715082
     10          6           0       -2.260946    0.352065   -0.183256
     11          6           0       -3.026175   -0.748408    0.416311
     12          6           0       -4.415557   -0.677505    0.626359
     13          6           0       -5.136414   -1.716251    1.207853
     14          6           0       -6.660222   -1.585659    1.398350
     15          6           0       -6.982631   -0.315661    2.220785
     16          6           0       -7.339108   -1.483479    0.011886
     17          6           0       -7.266226   -2.793440    2.138949
     18          6           0       -4.418255   -2.863000    1.580895
     19          6           0       -3.040446   -3.010403    1.408361
     20          6           0       -2.309249   -4.299322    1.847682
     21          6           0       -1.625124   -4.966924    0.628691
     22          6           0       -3.278481   -5.336866    2.451410
     23          6           0       -1.253736   -3.971683    2.933273
     24          6           0       -2.331127   -1.931183    0.821989
     25          8           0       -1.000899   -2.059034    0.664964
     26          7           0       -0.934727    0.314776   -0.260896
     27          6           0       -0.511586    1.485828   -0.851788
     28          6           0        0.789427    1.925178   -1.185402
     29          6           0        2.009986    1.132472   -0.894234
     30          6           0        2.138587    0.403482    0.298536
     31          6           0        3.298445   -0.331122    0.581280
     32          6           0        3.417655   -1.106113    1.844741
     33          6           0        2.923442   -0.593192    3.055688
     34          6           0        3.036740   -1.318547    4.240861
     35          6           0        3.648651   -2.573281    4.242273
     36          6           0        4.144081   -3.096361    3.046618
     37          6           0        4.028887   -2.371071    1.861570
     38          6           0        4.345443   -0.320663   -0.351053
     39          6           0        4.248278    0.402358   -1.547164
     40          6           0        5.356390    0.427594   -2.542664
     41          6           0        6.677494    0.112329   -2.190410
     42          6           0        7.695337    0.139007   -3.152730
     43          6           0        9.097944   -0.193822   -2.803275
     44          6           0        9.394287   -1.195757   -1.863862
     45          6           0       10.710816   -1.508066   -1.538139
     46          6           0       11.787836   -0.833155   -2.132230
     47          6           0       13.230620   -1.167653   -1.780199
     48          6           0       13.536219   -0.895095   -0.295028
     49          6           0       13.592508   -2.615519   -2.162823
     50          6           0       11.489809    0.165595   -3.067385
     51          6           0       10.173708    0.480505   -3.400371
     52          6           0        7.328468    0.504707   -4.456428
     53          6           0        5.998166    0.826474   -4.713458
     54          7           0        5.028036    0.793138   -3.797610
     55          6           0        3.070732    1.114937   -1.809711
     56          6           0        0.867602    3.169591   -1.823747
     57          6           0       -0.268340    3.940852   -2.121046
     58          6           0       -1.550442    3.509313   -1.792269
     59          6           0       -1.639819    2.273814   -1.152724
     60          6           0       -4.662810    3.024956   -0.185538
     61          6           0       -4.003949    3.606545    1.017685
     62          6           0       -3.901273    5.001478    1.147507
     63          6           0       -3.317733    5.573938    2.276973
     64          6           0       -2.829621    4.760924    3.300828
     65          6           0       -2.930859    3.373433    3.186204
     66          6           0       -3.511186    2.799464    2.055675
     67          6           0       -5.911597    3.525040   -0.592622
     68          1           0      -10.323816    1.104632   -1.834454
     69          1           0       -9.355263    1.530649   -3.253664
     70          1           0       -8.572660    0.866866   -1.807604
     71          1           0      -10.036922    3.557771   -1.975216
     72          1           0      -10.231139    2.543217    0.274819
     73          1           0       -9.199082    3.980228    0.335892
     74          1           0       -8.474520    2.363834    0.381219
     75          1           0       -7.977638    3.677899   -3.229995
     76          1           0       -7.948959    4.705733   -1.803951
     77          1           0       -6.469386    1.669557   -3.374856
     78          1           0       -4.257955    0.768754   -2.711881
     79          1           0       -4.940747    0.217483    0.323582
     80          1           0       -6.517840   -0.363054    3.212343
     81          1           0       -6.624861    0.595198    1.728895
     82          1           0       -8.066373   -0.213676    2.358481
     83          1           0       -8.425382   -1.370704    0.119723
     84          1           0       -7.148071   -2.384029   -0.583201
     85          1           0       -6.965696   -0.624609   -0.556188
     86          1           0       -6.830937   -2.920251    3.136861
     87          1           0       -8.344910   -2.645167    2.264414
     88          1           0       -7.126269   -3.727727    1.583626
     89          1           0       -4.961034   -3.680889    2.032300
     90          1           0       -1.114188   -5.885150    0.944926
     91          1           0       -0.890386   -4.305606    0.167740
     92          1           0       -2.369149   -5.241338   -0.129115
     93          1           0       -3.780818   -4.962028    3.350940
     94          1           0       -2.711853   -6.228820    2.741326
     95          1           0       -4.045336   -5.654716    1.735185
     96          1           0       -0.501742   -3.271423    2.567597
     97          1           0       -1.733599   -3.535491    3.818000
     98          1           0       -0.744792   -4.891670    3.247612
     99          1           0       -0.647691   -1.205342    0.272659
    100          1           0        1.316172    0.391058    1.004667
    101          1           0        2.466434    0.392344    3.069907
    102          1           0        2.652116   -0.898644    5.166734
    103          1           0        3.736288   -3.139121    5.165896
    104          1           0        4.611865   -4.077482    3.033137
    105          1           0        4.390288   -2.800980    0.931385
    106          1           0        5.242493   -0.890310   -0.131162
    107          1           0        6.927046   -0.109793   -1.158962
    108          1           0        8.584013   -1.754308   -1.403463
    109          1           0       10.899927   -2.296518   -0.813847
    110          1           0       13.869776   -0.501025   -2.375169
    111          1           0       13.314891    0.144062   -0.028546
    112          1           0       14.593813   -1.086241   -0.077775
    113          1           0       12.940205   -1.541979    0.359658
    114          1           0       12.999447   -3.338903   -1.590729
    115          1           0       14.650557   -2.815722   -1.956227
    116          1           0       13.410725   -2.802117   -3.226792
    117          1           0       12.302925    0.713069   -3.539248
    118          1           0        9.979105    1.278186   -4.111994
    119          1           0        8.059366    0.521326   -5.258772
    120          1           0        5.693358    1.119590   -5.717455
    121          1           0        2.989294    1.638477   -2.755080
    122          1           0        1.847173    3.561866   -2.079302
    123          1           0       -0.139332    4.901113   -2.612335
    124          1           0       -2.429868    4.101917   -2.019935
    125          1           0       -4.265910    5.639163    0.346545
    126          1           0       -3.239768    6.655207    2.353272
    127          1           0       -2.373532    5.205062    4.181434
    128          1           0       -2.560964    2.731886    3.981417
    129          1           0       -3.601067    1.719989    1.991384
    130          1           0       -6.364995    4.310015    0.006684
 ---------------------------------------------------------------------

 SCF Done:  E(RB3LYP) =  -2678.23671011     A.U. after   16 cycles

 Excitation energies and oscillator strengths:

 Excited state symmetry could not be determined.
 Excited State   1:      Triplet-?Sym    2.7878 eV  444.74 nm  f=0.0000  <S**2>=2.000
     233 -> 236        0.16074
     234 -> 236        0.20946
     234 -> 237        0.24042
     235 -> 236        0.31009
     235 -> 237        0.39347
 This state for optimization and/or second-order correction.
 Total Energy, E(TD-HF/TD-DFT) =  -2678.13426102
 Copying the excited state density for this state as the 1-particle RhoCI density.

 Excited state symmetry could not be determined.
 Excited State   2:      Triplet-?Sym    2.9654 eV  418.10 nm  f=0.0000  <S**2>=2.000
     230 -> 239        0.11918
     231 -> 236        0.12746
     232 -> 236       -0.16546
     233 -> 236       -0.24345
     233 -> 237        0.14708
     233 -> 239        0.19699
     233 -> 241        0.11740
     234 -> 236       -0.15059
     234 -> 237       -0.14749
     234 -> 241       -0.12221
     235 -> 236        0.17765
     235 -> 237        0.29120
     235 -> 239        0.12429
     235 -> 241       -0.14709

 Excited state symmetry could not be determined.
 Excited State   3:      Singlet-?Sym    3.5878 eV  345.57 nm  f=0.2641  <S**2>=0.000
     235 -> 236        0.52305
     235 -> 237        0.45883

 Excited state symmetry could not be determined.
 Excited State   4:      Singlet-?Sym    3.7353 eV  331.93 nm  f=0.0237  <S**2>=0.000
     234 -> 236       -0.12183
     235 -> 236       -0.42863
     235 -> 237        0.48500
     235 -> 238        0.20348

 Alpha  occ. eigenvalues --  -19.14189 -14.39529 -14.32544 -14.32027 -10.26697
 Alpha  occ. eigenvalues --  -10.24418 -10.24141 -10.22579 -10.22143 -10.21715
 Alpha  occ. eigenvalues --  -10.21695 -10.21156 -10.21056 -10.21046 -10.20688
 Alpha  occ. eigenvalues --  -10.20524 -10.20267 -10.20143 -10.20109 -10.19859
 Alpha  occ. eigenvalues --  -10.19804 -10.19775 -10.19772 -10.19659 -10.19539
 Alpha  occ. eigenvalues --  -10.19456 -10.19443 -10.19323 -10.19316 -10.19294
 Alpha  occ. eigenvalues --  -10.19262 -10.19203 -10.19148 -10.19147 -10.19111
 Alpha  occ. eigenvalues --  -10.19105 -10.19102 -10.19083 -10.19021 -10.19013
 Alpha  occ. eigenvalues --  -10.19005 -10.18959 -10.18778 -10.18526 -10.18297
 Alpha  occ. eigenvalues --  -10.18296 -10.18270 -10.18196 -10.18137 -10.18101
 Alpha  occ. eigenvalues --  -10.18072 -10.18040 -10.17934 -10.17863 -10.17791
 Alpha  occ. eigenvalues --  -10.17773 -10.17772 -10.17686 -10.17658 -10.17623
 Alpha  occ. eigenvalues --  -10.17488 -10.16955 -10.16925 -10.16918 -10.16085
 Alpha  occ. eigenvalues --  -10.14977 -10.14930  -1.03648  -1.01977  -0.93604
 Alpha  occ. eigenvalues --   -0.91066  -0.86851  -0.86491  -0.86190  -0.85350
 Alpha  occ. eigenvalues --   -0.85259  -0.84539  -0.83487  -0.82071  -0.81350
 Alpha  occ. eigenvalues --   -0.81029  -0.79628  -0.78888  -0.78413  -0.78261
 Alpha  occ. eigenvalues --   -0.77686  -0.76168  -0.75427  -0.74769  -0.74661
 Alpha  occ. eigenvalues --   -0.73994  -0.73639  -0.72943  -0.72867  -0.71925
 Alpha  occ. eigenvalues --   -0.71500  -0.71101  -0.70733  -0.69306  -0.68608
 Alpha  occ. eigenvalues --   -0.68463  -0.68070  -0.67852  -0.66817  -0.66090
 Alpha  occ. eigenvalues --   -0.64447  -0.64144  -0.63702  -0.63434  -0.63134
 Alpha  occ. eigenvalues --   -0.62008  -0.61357  -0.61109  -0.60647  -0.60114
 Alpha  occ. eigenvalues --   -0.59625  -0.59513  -0.59204  -0.59088  -0.57943
 Alpha  occ. eigenvalues --   -0.56992  -0.56385  -0.55786  -0.55724  -0.55063
 Alpha  occ. eigenvalues --   -0.53442  -0.52530  -0.51743  -0.51585  -0.51237
 Alpha  occ. eigenvalues --   -0.50679  -0.49862  -0.49417  -0.48831  -0.48736
 Alpha  occ. eigenvalues --   -0.48130  -0.47712  -0.47341  -0.47112  -0.46854
 Alpha  occ. eigenvalues --   -0.46693  -0.46013  -0.45812  -0.45598  -0.45425
 Alpha  occ. eigenvalues --   -0.45009  -0.44944  -0.44705  -0.44312  -0.44192
 Alpha  occ. eigenvalues --   -0.43953  -0.43547  -0.43323  -0.43101  -0.42873
 Alpha  occ. eigenvalues --   -0.42819  -0.42779  -0.42533  -0.42377  -0.42225
 Alpha  occ. eigenvalues --   -0.42171  -0.42043  -0.41993  -0.41926  -0.41779
 Alpha  occ. eigenvalues --   -0.41564  -0.41364  -0.41095  -0.40915  -0.40762
 Alpha  occ. eigenvalues --   -0.40213  -0.39910  -0.39643  -0.38772  -0.38681
 Alpha  occ. eigenvalues --   -0.38609  -0.38429  -0.38018  -0.37780  -0.37589
 Alpha  occ. eigenvalues --   -0.37315  -0.37150  -0.36798  -0.36667  -0.36467
 Alpha  occ. eigenvalues --   -0.36375  -0.36329  -0.36161  -0.36094  -0.36054
 Alpha  occ. eigenvalues --   -0.35961  -0.35899  -0.35475  -0.35300  -0.35126
 Alpha  occ. eigenvalues --   -0.34868  -0.34652  -0.34522  -0.34407  -0.34135
 Alpha  occ. eigenvalues --   -0.33938  -0.33609  -0.33389  -0.33277  -0.33071
 Alpha  occ. eigenvalues --   -0.33013  -0.32834  -0.32740  -0.32515  -0.32464
 Alpha  occ. eigenvalues --   -0.32320  -0.31687  -0.31377  -0.30605  -0.30390
 Alpha  occ. eigenvalues --   -0.30225  -0.29717  -0.29163  -0.27770  -0.27687
 Alpha  occ. eigenvalues --   -0.27330  -0.26463  -0.25720  -0.25377  -0.25292
 Alpha  occ. eigenvalues --   -0.25192  -0.24781  -0.24200  -0.23639  -0.23356
 Alpha  occ. eigenvalues --   -0.23098  -0.21633  -0.21330  -0.20687  -0.19280
 Alpha virt. eigenvalues --   -0.04375  -0.04171  -0.03566  -0.02587  -0.02224
 Alpha virt. eigenvalues --   -0.01680  -0.00453  -0.00346   0.00499   0.00709
 Alpha virt. eigenvalues --    0.01133   0.01872   0.02008   0.02707   0.04518

 Mulliken charges:
               1
     1  C   -0.456748
     2  C   -0.060346
     3  C   -0.452107
     4  C   -0.356735
     5  C    0.198024
     6  C   -0.200488
     7  C   -0.118201
     8  C    0.137490
     9  N   -0.692751
    10  C    0.538255
    11  C    0.112387
    12  C   -0.301457
    13  C    0.189338
    14  C    0.020713
    15  C   -0.448735
    16  C   -0.448304
    17  C   -0.456706
    18  C   -0.295490
    19  C    0.144835
    20  C    0.038860
    21  C   -0.451036
    22  C   -0.456109
    23  C   -0.451044
    24  C    0.221221
    25  O   -0.664810
    26  N   -0.722324
    27  C    0.203898
    28  C    0.065240
    29  C    0.109711
    30  C   -0.220275
    31  C    0.089113
    32  C    0.087776
    33  C   -0.169610
    34  C   -0.133460
    35  C   -0.125671
    36  C   -0.134386
    37  C   -0.171767
    38  C   -0.239977
    39  C    0.109616
    40  C    0.245067
    41  C   -0.222210
    42  C    0.116847
    43  C    0.089118
    44  C   -0.171336
    45  C   -0.191818
    46  C    0.194519
    47  C   -0.162227
    48  C   -0.439383
    49  C   -0.439253
    50  C   -0.203741
    51  C   -0.169508
    52  C   -0.195287
    53  C    0.042492
    54  N   -0.483530
    55  C   -0.225019
    56  C   -0.198662
    57  C   -0.150561
    58  C   -0.166713
    59  C    0.331387
    60  C    0.094777
    61  C    0.075327
    62  C   -0.160915
    63  C   -0.133910
    64  C   -0.122017
    65  C   -0.138340
    66  C   -0.162405
    67  C   -0.264937
    68  H    0.144763
    69  H    0.137038
    70  H    0.160256
    71  H    0.128498
    72  H    0.144192
    73  H    0.138011
    74  H    0.156935
    75  H    0.143588
    76  H    0.142768
    77  H    0.139002
    78  H    0.155680
    79  H    0.147868
    80  H    0.146140
    81  H    0.148980
    82  H    0.135586
    83  H    0.135191
    84  H    0.144966
    85  H    0.150720
    86  H    0.145786
    87  H    0.138459
    88  H    0.145580
    89  H    0.126770
    90  H    0.127765
    91  H    0.180687
    92  H    0.131371
    93  H    0.139439
    94  H    0.139229
    95  H    0.139399
    96  H    0.184124
    97  H    0.129732
    98  H    0.127799
    99  H    0.451528
   100  H    0.151654
   101  H    0.133497
   102  H    0.128113
   103  H    0.126935
   104  H    0.127647
   105  H    0.131860
   106  H    0.127534
   107  H    0.146463
   108  H    0.134147
   109  H    0.129046
   110  H    0.130024
   111  H    0.151309
   112  H    0.143194
   113  H    0.144629
   114  H    0.144578
   115  H    0.143311
   116  H    0.150748
   117  H    0.126701
   118  H    0.134047
   119  H    0.136572
   120  H    0.137312
   121  H    0.159778
   122  H    0.133533
   123  H    0.128221
   124  H    0.139204
   125  H    0.131101
   126  H    0.132351
   127  H    0.132801
   128  H    0.137458
   129  H    0.151968
   130  H    0.140709
 Sum of Mulliken charges =  -0.00000

 Dipole moment (field-independent basis, Debye):
    X=             -1.0249    Y=              2.7513    Z=             -0.3636  Tot=              2.9584
 Quadrupole moment (field-independent basis, Debye-Ang):
   XX=           -314.3336   YY=           -377.8640   ZZ=           -380.3719
   XY=            -21.5785   XZ=              1.6866   YZ=             -6.6796

 Normal termination of Gaussian 16 at Sat Nov  5 11:35:26 2022.
