 Gaussian 16, Revision B.01,
 Gaussian 16:  ES64L-G16RevB.01 20-Dec-2017

 -------------------------------------------------------------------
 #p b3lyp/6-31g(d) 6D 10F nosymm GFInput td=(50-50,nstate=2) SCF=XQC
 -------------------------------------------------------------------

 ------------------------------
 Gaussian input prepared by ASE
 ------------------------------
 Symbolic Z-matrix:
 Charge =  0 Multiplicity = 1

                          Input orientation:
 ---------------------------------------------------------------------
 Center     Atomic      Atomic             Coordinates (Angstroms)
 Number     Number       Type             X           Y           Z
 ---------------------------------------------------------------------
      1          6           0       -2.900163    1.154242   -1.553153
      2          6           0       -2.966821    0.393985   -0.250208
      3          6           0       -3.921409   -0.627149   -0.112383
      4          6           0       -4.064125   -1.367387    1.058815
      5          6           0       -3.249676   -1.100726    2.159123
      6          6           0       -2.294829   -0.093860    2.064415
      7          6           0       -2.149793    0.632431    0.875337
      8         16           0       -0.866262    1.903315    0.931153
      9          8           0       -0.801048    2.397543    2.320578
     10          8           0       -1.031408    2.853066   -0.173793
     11          6           0        0.687333    1.013681    0.685539
     12          6           0        1.612897    1.143923    1.665050
     13          8           0        2.847283    0.620176    1.619275
     14          6           0        3.225735   -0.098836    0.505079
     15          6           0        4.524338   -0.611596    0.503504
     16          6           0        4.947494   -1.344303   -0.598249
     17          6           0        4.086077   -1.564780   -1.685928
     18          6           0        2.798894   -1.049177   -1.667480
     19          6           0        2.346195   -0.303766   -0.565936
     20          6           0        0.972676    0.253503   -0.537228
     21          8           0        0.168052    0.072017   -1.446082
     22          1           0       -1.899827    1.097197   -1.987003
     23          1           0       -3.129229    2.213512   -1.409840
     24          1           0       -3.620516    0.732636   -2.260884
     25          1           0       -4.570616   -0.837709   -0.958170
     26          1           0       -4.818096   -2.148234    1.112801
     27          1           0       -3.360078   -1.661763    3.082390
     28          1           0       -1.667919    0.150435    2.915091
     29          1           0        1.430162    1.693711    2.580886
     30          1           0        5.170334   -0.427336    1.355446
     31          1           0        5.955454   -1.748584   -0.614395
     32          1           0        4.430650   -2.139185   -2.540503
     33          1           0        2.108243   -1.200982   -2.490551
 ---------------------------------------------------------------------

 SCF Done:  E(RB3LYP) =  -1315.94115239     A.U. after   15 cycles

 Excitation energies and oscillator strengths:

 Excited state symmetry could not be determined.
 Excited State   1:      Triplet-?Sym    3.3606 eV  368.94 nm  f=0.0000  <S**2>=2.000
      72 -> 79         0.14861
      75 -> 79        -0.25446
      76 -> 79        -0.23263
      77 -> 79         0.53905
 This state for optimization and/or second-order correction.
 Total Energy, E(TD-HF/TD-DFT) =  -1315.81765391
 Copying the excited state density for this state as the 1-particle RhoCI density.

 Excited state symmetry could not be determined.
 Excited State   2:      Triplet-?Sym    3.3840 eV  366.38 nm  f=0.0000  <S**2>=2.000
      71 -> 79        -0.11317
      76 -> 79         0.62098
      77 -> 79         0.20649

 Excited state symmetry could not be determined.
 Excited State   3:      Singlet-?Sym    3.7975 eV  326.49 nm  f=0.0002  <S**2>=0.000
      75 -> 79         0.12425
      76 -> 79         0.66047
      77 -> 79        -0.14154

 Excited state symmetry could not be determined.
 Excited State   4:      Singlet-?Sym    4.3106 eV  287.63 nm  f=0.0015  <S**2>=0.000
      78 -> 79         0.70024

 Alpha  occ. eigenvalues --  -89.09718 -19.25489 -19.14049 -19.13639 -19.13620
 Alpha  occ. eigenvalues --  -10.30035 -10.29297 -10.28878 -10.23336 -10.22501
 Alpha  occ. eigenvalues --  -10.22457 -10.22347 -10.22198 -10.21813 -10.21748
 Alpha  occ. eigenvalues --  -10.21610 -10.20731 -10.20352 -10.19982 -10.19674
 Alpha  occ. eigenvalues --  -10.16820  -8.12464  -6.08893  -6.08873  -6.08786
 Alpha  occ. eigenvalues --   -1.14503  -1.09598  -1.04154  -0.99208  -0.88781
 Alpha  occ. eigenvalues --   -0.87022  -0.83746  -0.79325  -0.78273  -0.77740
 Alpha  occ. eigenvalues --   -0.76793  -0.70494  -0.68585  -0.67478  -0.65128
 Alpha  occ. eigenvalues --   -0.62225  -0.60781  -0.59093  -0.57728  -0.54710
 Alpha  occ. eigenvalues --   -0.54312  -0.51610  -0.49887  -0.49237  -0.47950
 Alpha  occ. eigenvalues --   -0.47430  -0.46945  -0.46512  -0.45754  -0.44528
 Alpha  occ. eigenvalues --   -0.44169  -0.43917  -0.41551  -0.41537  -0.41122
 Alpha  occ. eigenvalues --   -0.40494  -0.39287  -0.38502  -0.38041  -0.37020
 Alpha  occ. eigenvalues --   -0.36503  -0.36123  -0.35376  -0.32425  -0.31559
 Alpha  occ. eigenvalues --   -0.30415  -0.29211  -0.28814  -0.27978  -0.26763
 Alpha  occ. eigenvalues --   -0.26181  -0.25629  -0.25153
 Alpha virt. eigenvalues --   -0.07295  -0.04912  -0.02804  -0.01507  -0.00703
 Alpha virt. eigenvalues --    0.05093   0.05395   0.07183   0.08670   0.08915
 Alpha virt. eigenvalues --    0.10958   0.12380   0.12850   0.13296   0.13679

 Mulliken charges:
               1
     1  C   -0.527824
     2  C    0.176167
     3  C   -0.177320
     4  C   -0.113167
     5  C   -0.130518
     6  C   -0.144293
     7  C   -0.212170
     8  S    1.172426
     9  O   -0.571608
    10  O   -0.522945
    11  C   -0.278013
    12  C    0.112347
    13  O   -0.471046
    14  C    0.289079
    15  C   -0.168344
    16  C   -0.128595
    17  C   -0.128281
    18  C   -0.172164
    19  C    0.066854
    20  C    0.438686
    21  O   -0.497993
    22  H    0.216797
    23  H    0.186727
    24  H    0.138986
    25  H    0.136025
    26  H    0.139879
    27  H    0.139376
    28  H    0.171111
    29  H    0.223555
    30  H    0.160583
    31  H    0.151153
    32  H    0.148733
    33  H    0.175797
 Sum of Mulliken charges =  -0.00000

 Dipole moment (field-independent basis, Debye):
    X=              3.2761    Y=             -4.9647    Z=              0.5155  Tot=              5.9705
 Quadrupole moment (field-independent basis, Debye-Ang):
   XX=            -98.4509   YY=           -136.4583   ZZ=           -123.1100
   XY=              3.4126   XZ=              0.6947   YZ=             -2.4429

 Normal termination of Gaussian 16 at Sat Nov  5 09:44:24 2022.
