 Gaussian 16, Revision B.01,
 Gaussian 16:  ES64L-G16RevB.01 20-Dec-2017

 -----------------------------
 #p b3lyp/6-31g(d) opt SCF=XQC
 -----------------------------

 ------------------------------
 Gaussian input prepared by ASE
 ------------------------------
 Symbolic Z-matrix:
 Charge =  0 Multiplicity = 1

 SCF Done:  E(RB3LYP) =  -1315.93186503     A.U. after   15 cycles
 SCF Done:  E(RB3LYP) =  -1315.93955804     A.U. after   14 cycles
 SCF Done:  E(RB3LYP) =  -1315.93912960     A.U. after   13 cycles
 SCF Done:  E(RB3LYP) =  -1315.93959628     A.U. after   13 cycles
 SCF Done:  E(RB3LYP) =  -1315.94080013     A.U. after   13 cycles
 SCF Done:  E(RB3LYP) =  -1315.94099111     A.U. after   12 cycles
 SCF Done:  E(RB3LYP) =  -1315.94107601     A.U. after   12 cycles
 SCF Done:  E(RB3LYP) =  -1315.94113041     A.U. after   11 cycles
 SCF Done:  E(RB3LYP) =  -1315.94115441     A.U. after   11 cycles
 SCF Done:  E(RB3LYP) =  -1315.94115805     A.U. after    9 cycles
 SCF Done:  E(RB3LYP) =  -1315.94115853     A.U. after    8 cycles
 Optimization completed.
    -- Stationary point found.

                         Standard orientation:
 ---------------------------------------------------------------------
 Center     Atomic      Atomic             Coordinates (Angstroms)
 Number     Number       Type             X           Y           Z
 ---------------------------------------------------------------------
      1          6           0       -2.773829   -1.436561   -1.812991
      2          6           0       -2.917273   -0.991962   -0.377075
      3          6           0       -3.723470   -1.750751    0.487353
      4          6           0       -3.925207   -1.405031    1.821446
      5          6           0       -3.325842   -0.260303    2.346304
      6          6           0       -2.523559    0.520788    1.521246
      7          6           0       -2.314942    0.153390    0.185605
      8         16           0       -1.251003    1.283555   -0.739856
      9          8           0       -1.459809    2.634591   -0.182973
     10          8           0       -1.390568    1.059656   -2.182283
     11          6           0        0.434197    0.842757   -0.258993
     12          6           0        1.179577    1.833100    0.285713
     13          8           0        2.470370    1.711246    0.630852
     14          6           0        3.106226    0.505956    0.419664
     15          6           0        4.451888    0.436706    0.785305
     16          6           0        5.131687   -0.759254    0.592084
     17          6           0        4.477825   -1.874298    0.041779
     18          6           0        3.140488   -1.788524   -0.314873
     19          6           0        2.429961   -0.590492   -0.130907
     20          6           0        1.000592   -0.487758   -0.510746
     21          8           0        0.370800   -1.435039   -0.971607
     22          1           0       -1.723676   -1.586425   -2.071590
     23          1           0       -3.172385   -0.689377   -2.504318
     24          1           0       -3.315403   -2.375757   -1.961822
     25          1           0       -4.206044   -2.639048    0.088342
     26          1           0       -4.557760   -2.027770    2.448486
     27          1           0       -3.486079    0.027301    3.381186
     28          1           0       -2.068407    1.430051    1.898637
     29          1           0        0.788520    2.823235    0.488494
     30          1           0        4.934243    1.311736    1.208061
     31          1           0        6.179242   -0.828007    0.870626
     32          1           0        5.021998   -2.802558   -0.103757
     33          1           0        2.605542   -2.630454   -0.742045
 ---------------------------------------------------------------------

 The electronic state is 1-A.
 Alpha  occ. eigenvalues --  -89.09718 -19.25489 -19.14049 -19.13640 -19.13620
 Alpha  occ. eigenvalues --  -10.30035 -10.29296 -10.28878 -10.23336 -10.22501
 Alpha  occ. eigenvalues --  -10.22457 -10.22347 -10.22198 -10.21813 -10.21748
 Alpha  occ. eigenvalues --  -10.21610 -10.20731 -10.20353 -10.19983 -10.19674
 Alpha  occ. eigenvalues --  -10.16820  -8.12464  -6.08893  -6.08873  -6.08786
 Alpha  occ. eigenvalues --   -1.14503  -1.09598  -1.04153  -0.99208  -0.88781
 Alpha  occ. eigenvalues --   -0.87022  -0.83746  -0.79325  -0.78273  -0.77740
 Alpha  occ. eigenvalues --   -0.76793  -0.70494  -0.68585  -0.67478  -0.65128
 Alpha  occ. eigenvalues --   -0.62225  -0.60781  -0.59093  -0.57728  -0.54710
 Alpha  occ. eigenvalues --   -0.54312  -0.51610  -0.49887  -0.49237  -0.47950
 Alpha  occ. eigenvalues --   -0.47431  -0.46945  -0.46512  -0.45754  -0.44528
 Alpha  occ. eigenvalues --   -0.44169  -0.43917  -0.41551  -0.41537  -0.41122
 Alpha  occ. eigenvalues --   -0.40494  -0.39287  -0.38502  -0.38041  -0.37020
 Alpha  occ. eigenvalues --   -0.36503  -0.36123  -0.35376  -0.32425  -0.31559
 Alpha  occ. eigenvalues --   -0.30415  -0.29211  -0.28814  -0.27978  -0.26763
 Alpha  occ. eigenvalues --   -0.26181  -0.25628  -0.25154
 Alpha virt. eigenvalues --   -0.07295  -0.04912  -0.02804  -0.01506  -0.00703
 Alpha virt. eigenvalues --    0.05093   0.05395   0.07183   0.08670   0.08915
 Alpha virt. eigenvalues --    0.10958   0.12380   0.12850   0.13296   0.13679

 Mulliken charges:
               1
     1  C   -0.527810
     2  C    0.176171
     3  C   -0.177323
     4  C   -0.113168
     5  C   -0.130517
     6  C   -0.144285
     7  C   -0.212158
     8  S    1.172320
     9  O   -0.571601
    10  O   -0.522914
    11  C   -0.277996
    12  C    0.112357
    13  O   -0.471046
    14  C    0.289057
    15  C   -0.168342
    16  C   -0.128592
    17  C   -0.128284
    18  C   -0.172164
    19  C    0.066876
    20  C    0.438702
    21  O   -0.498006
    22  H    0.216799
    23  H    0.186726
    24  H    0.138985
    25  H    0.136026
    26  H    0.139879
    27  H    0.139376
    28  H    0.171114
    29  H    0.223554
    30  H    0.160582
    31  H    0.151152
    32  H    0.148733
    33  H    0.175797
 Sum of Mulliken charges =  -0.00000

 Dipole moment (field-independent basis, Debye):
    X=              3.8520    Y=             -2.1833    Z=              4.0051  Tot=              5.9704
 Quadrupole moment (field-independent basis, Debye-Ang):
   XX=           -100.9754   YY=           -126.9359   ZZ=           -127.6621
   XY=              7.4491   XZ=             -3.5734   YZ=              4.2861

 Normal termination of Gaussian 16 at Fri Nov  4 22:23:37 2022.
