 Gaussian 16, Revision B.01,
 Gaussian 16:  ES64L-G16RevB.01 20-Dec-2017

 -----------------------------
 #p b3lyp/6-31g(d) opt SCF=XQC
 -----------------------------

 ------------------------------
 Gaussian input prepared by ASE
 ------------------------------
 Symbolic Z-matrix:
 Charge =  0 Multiplicity = 1

 SCF Done:  E(RB3LYP) =  -1928.05626448     A.U. after   15 cycles
 SCF Done:  E(RB3LYP) =  -1928.06596120     A.U. after   13 cycles
 SCF Done:  E(RB3LYP) =  -1928.06731124     A.U. after   13 cycles
 SCF Done:  E(RB3LYP) =  -1928.06786077     A.U. after   12 cycles
 SCF Done:  E(RB3LYP) =  -1928.06820804     A.U. after   12 cycles
 SCF Done:  E(RB3LYP) =  -1928.06846977     A.U. after   12 cycles
 SCF Done:  E(RB3LYP) =  -1928.06867945     A.U. after   12 cycles
 SCF Done:  E(RB3LYP) =  -1928.06902606     A.U. after   14 cycles
 SCF Done:  E(RB3LYP) =  -1928.06936982     A.U. after   12 cycles
 SCF Done:  E(RB3LYP) =  -1928.06961751     A.U. after   12 cycles
 SCF Done:  E(RB3LYP) =  -1928.06953610     A.U. after   13 cycles
 SCF Done:  E(RB3LYP) =  -1928.06975197     A.U. after   12 cycles
 SCF Done:  E(RB3LYP) =  -1928.06975096     A.U. after   11 cycles
 SCF Done:  E(RB3LYP) =  -1928.06978286     A.U. after   11 cycles
 SCF Done:  E(RB3LYP) =  -1928.06978343     A.U. after   10 cycles
 SCF Done:  E(RB3LYP) =  -1928.06978226     A.U. after    9 cycles
 SCF Done:  E(RB3LYP) =  -1928.06978881     A.U. after   10 cycles
 SCF Done:  E(RB3LYP) =  -1928.06978895     A.U. after    7 cycles
 SCF Done:  E(RB3LYP) =  -1928.06978897     A.U. after    7 cycles
 SCF Done:  E(RB3LYP) =  -1928.06978900     A.U. after    7 cycles
 Optimization completed.
    -- Stationary point found.

                         Standard orientation:
 ---------------------------------------------------------------------
 Center     Atomic      Atomic             Coordinates (Angstroms)
 Number     Number       Type             X           Y           Z
 ---------------------------------------------------------------------
      1          8           0       -5.784744    1.116003    2.606519
      2          6           0       -5.343451    0.574060    1.601717
      3          6           0       -6.166960   -0.437448    0.865470
      4          6           0       -7.524213   -0.547054    1.200002
      5          6           0       -8.360170   -1.413542    0.501383
      6          6           0       -7.855862   -2.179295   -0.553525
      7          6           0       -6.507819   -2.090923   -0.900444
      8          6           0       -5.678076   -1.227853   -0.187209
      9         16           0       -3.927352   -1.287912   -0.560807
     10          8           0       -3.750455   -1.368937   -2.019039
     11          8           0       -3.308230   -2.313798    0.295174
     12          6           0       -3.360929    0.314606    0.005238
     13          6           0       -2.166916    0.784516   -0.536895
     14          6           0       -1.596119    1.960118   -0.038526
     15          6           0       -0.364072    2.595450   -0.636666
     16          8           0       -0.336072    3.816081   -0.789691
     17          7           0        0.675880    1.796780   -1.027317
     18          6           0        0.925941    0.420116   -0.569283
     19          6           0        2.390023    0.261916   -0.161425
     20          7           0        3.286979    0.473246   -1.302482
     21          6           0        4.664436    0.713537   -0.881443
     22          6           0        5.394126   -0.548494   -0.432793
     23          6           0        4.935760   -1.789782   -0.824420
     24          6           0        5.600805   -2.979613   -0.446164
     25          6           0        6.736188   -2.922138    0.324935
     26          6           0        7.260172   -1.668967    0.740607
     27          6           0        8.442600   -1.590804    1.524047
     28          6           0        8.960516   -0.376832    1.912826
     29          6           0        8.310797    0.818802    1.528930
     30          6           0        7.159178    0.778159    0.773248
     31          6           0        6.588499   -0.458142    0.357153
     32          6           0        2.743408    1.423914   -2.286249
     33          6           0        1.806312    2.473313   -1.684679
     34          6           0       -2.253236    2.657239    0.986979
     35          6           0       -3.440883    2.177132    1.523281
     36          6           0       -4.019376    0.993031    1.041139
     37          1           0       -7.898836    0.069943    2.009695
     38          1           0       -9.409528   -1.485756    0.771784
     39          1           0       -8.511120   -2.844416   -1.108310
     40          1           0       -6.098962   -2.675340   -1.718325
     41          1           0       -1.710072    0.243502   -1.358664
     42          1           0        0.289609    0.200530    0.289366
     43          1           0        0.683642   -0.305423   -1.357437
     44          1           0        2.542630   -0.744117    0.245767
     45          1           0        2.603590    0.973436    0.659391
     46          1           0        4.703353    1.466692   -0.072681
     47          1           0        5.209315    1.146838   -1.730447
     48          1           0        4.042264   -1.837820   -1.439112
     49          1           0        5.204779   -3.938454   -0.770042
     50          1           0        7.253044   -3.831076    0.623608
     51          1           0        8.936749   -2.516859    1.809038
     52          1           0        9.866854   -0.333048    2.510602
     53          1           0        8.723974    1.777282    1.831782
     54          1           0        6.687320    1.712280    0.487321
     55          1           0        3.570462    1.933065   -2.789764
     56          1           0        2.196955    0.871939   -3.064111
     57          1           0        1.410951    3.134071   -2.461174
     58          1           0        2.334917    3.112510   -0.964094
     59          1           0       -1.824838    3.590535    1.336698
     60          1           0       -3.957500    2.711175    2.313492
 ---------------------------------------------------------------------

 The electronic state is 1-A.
 Alpha  occ. eigenvalues --  -89.10750 -19.16113 -19.15151 -19.14833 -19.12137
 Alpha  occ. eigenvalues --  -14.37503 -14.33714 -10.30394 -10.29723 -10.24932
 Alpha  occ. eigenvalues --  -10.24854 -10.23915 -10.23748 -10.23625 -10.23314
 Alpha  occ. eigenvalues --  -10.23147 -10.22867 -10.22739 -10.22695 -10.22504
 Alpha  occ. eigenvalues --  -10.22386 -10.22380 -10.22313 -10.22307 -10.22259
 Alpha  occ. eigenvalues --  -10.22123 -10.19868 -10.19734 -10.19680 -10.19157
 Alpha  occ. eigenvalues --  -10.19076 -10.19055 -10.19011 -10.18865 -10.18778
 Alpha  occ. eigenvalues --  -10.18375  -8.13611  -6.10021  -6.09980  -6.09966
 Alpha  occ. eigenvalues --   -1.10891  -1.06133  -1.04225  -1.00248  -0.95903
 Alpha  occ. eigenvalues --   -0.91931  -0.90135  -0.89193  -0.87035  -0.82086
 Alpha  occ. eigenvalues --   -0.81877  -0.79468  -0.78808  -0.78580  -0.78383
 Alpha  occ. eigenvalues --   -0.78022  -0.74710  -0.73758  -0.71815  -0.70938
 Alpha  occ. eigenvalues --   -0.68857  -0.67220  -0.66915  -0.65234  -0.63294
 Alpha  occ. eigenvalues --   -0.61991  -0.61297  -0.61048  -0.60182  -0.57937
 Alpha  occ. eigenvalues --   -0.57449  -0.57156  -0.54427  -0.52781  -0.52221
 Alpha  occ. eigenvalues --   -0.51226  -0.51149  -0.50350  -0.50236  -0.49994
 Alpha  occ. eigenvalues --   -0.49135  -0.48734  -0.47974  -0.47226  -0.46781
 Alpha  occ. eigenvalues --   -0.46227  -0.46126  -0.45931  -0.44910  -0.44646
 Alpha  occ. eigenvalues --   -0.44102  -0.43736  -0.43494  -0.42846  -0.42665
 Alpha  occ. eigenvalues --   -0.42602  -0.41286  -0.40924  -0.40560  -0.40410
 Alpha  occ. eigenvalues --   -0.40038  -0.39449  -0.39202  -0.38995  -0.38640
 Alpha  occ. eigenvalues --   -0.38300  -0.38189  -0.38097  -0.37436  -0.36810
 Alpha  occ. eigenvalues --   -0.36147  -0.35657  -0.33409  -0.33384  -0.33137
 Alpha  occ. eigenvalues --   -0.32538  -0.32206  -0.32072  -0.30563  -0.28561
 Alpha  occ. eigenvalues --   -0.28457  -0.28062  -0.27853  -0.27708  -0.27642
 Alpha  occ. eigenvalues --   -0.25920  -0.24808  -0.24155  -0.22033  -0.21209
 Alpha virt. eigenvalues --   -0.10451  -0.05260  -0.04612  -0.03819  -0.03215
 Alpha virt. eigenvalues --   -0.00763   0.01290   0.03306   0.04570   0.05286
 Alpha virt. eigenvalues --    0.05988   0.06953   0.07723   0.09069   0.09465

 Mulliken charges:
               1
     1  O   -0.465151
     2  C    0.334556
     3  C    0.090223
     4  C   -0.143438
     5  C   -0.127398
     6  C   -0.111865
     7  C   -0.157069
     8  C   -0.204108
     9  S    1.120686
    10  O   -0.533111
    11  O   -0.487081
    12  C   -0.211988
    13  C   -0.197991
    14  C    0.072207
    15  C    0.533745
    16  O   -0.513561
    17  N   -0.442573
    18  C   -0.173398
    19  C   -0.131482
    20  N   -0.402797
    21  C   -0.193737
    22  C    0.082357
    23  C   -0.189747
    24  C   -0.134305
    25  C   -0.189943
    26  C    0.135210
    27  C   -0.194033
    28  C   -0.133233
    29  C   -0.133670
    30  C   -0.201875
    31  C    0.080406
    32  C   -0.163461
    33  C   -0.125433
    34  C   -0.147241
    35  C   -0.155005
    36  C    0.097871
    37  H    0.177715
    38  H    0.154258
    39  H    0.156442
    40  H    0.186876
    41  H    0.191521
    42  H    0.178622
    43  H    0.169784
    44  H    0.163775
    45  H    0.129670
    46  H    0.131566
    47  H    0.158758
    48  H    0.144678
    49  H    0.130597
    50  H    0.128513
    51  H    0.130152
    52  H    0.130213
    53  H    0.129147
    54  H    0.127147
    55  H    0.151924
    56  H    0.156021
    57  H    0.176001
    58  H    0.160803
    59  H    0.174147
    60  H    0.179100
 Sum of Mulliken charges =  -0.00000

 Dipole moment (field-independent basis, Debye):
    X=             -0.5545    Y=             -0.2302    Z=             -0.1393  Tot=              0.6164
 Quadrupole moment (field-independent basis, Debye-Ang):
   XX=           -165.3988   YY=           -220.6364   ZZ=           -218.8111
   XY=             11.9611   XZ=              6.2456   YZ=              2.6564

 Normal termination of Gaussian 16 at Fri Nov  4 22:39:17 2022.
