 Gaussian 16, Revision B.01,
 Gaussian 16:  ES64L-G16RevB.01 20-Dec-2017

 -------------------------------------------------------------------
 #p b3lyp/6-31g(d) 6D 10F nosymm GFInput td=(50-50,nstate=2) SCF=XQC
 -------------------------------------------------------------------

 ------------------------------
 Gaussian input prepared by ASE
 ------------------------------
 Symbolic Z-matrix:
 Charge =  0 Multiplicity = 1

                          Input orientation:
 ---------------------------------------------------------------------
 Center     Atomic      Atomic             Coordinates (Angstroms)
 Number     Number       Type             X           Y           Z
 ---------------------------------------------------------------------
      1          8           0       -6.017210   -2.383849   -2.826948
      2          6           0       -5.728823   -1.479062   -2.054769
      3          6           0       -6.660487   -0.321641   -1.865677
      4          6           0       -7.958260   -0.432791   -2.384802
      5          6           0       -8.895130    0.575558   -2.176952
      6          6           0       -8.554223    1.710278   -1.435515
      7          6           0       -7.267578    1.845103   -0.914217
      8          6           0       -6.334841    0.834068   -1.137547
      9         16           0       -4.655186    1.142317   -0.597216
     10          8           0       -4.686726    1.772342    0.731833
     11          8           0       -3.934388    1.812973   -1.692263
     12          6           0       -3.994648   -0.515389   -0.439088
     13          6           0       -2.883250   -0.670949    0.386132
     14          6           0       -2.233252   -1.907964    0.445447
     15          6           0       -1.090039   -2.193309    1.389375
     16          8           0       -1.068670   -3.264352    1.994811
     17          7           0       -0.125618   -1.241033    1.576573
     18          6           0        0.169341   -0.121240    0.667400
     19          6           0        1.674219   -0.032004    0.417823
     20          7           0        2.403863    0.255807    1.657173
     21          6           0        3.829820   -0.034349    1.535286
     22          6           0        4.599683    1.013894    0.738446
     23          6           0        4.075217    2.279205    0.570548
     24          6           0        4.772059    3.282668   -0.142566
     25          6           0        6.005466    3.015572   -0.685114
     26          6           0        6.598428    1.734549   -0.526515
     27          6           0        7.880405    1.446749   -1.066637
     28          6           0        8.463079    0.211641   -0.898960
     29          6           0        7.780684   -0.794098   -0.176549
     30          6           0        6.533589   -0.549381    0.356181
     31          6           0        5.894553    0.713159    0.198470
     32          6           0        1.738895   -0.292695    2.850488
     33          6           0        0.909167   -1.549023    2.577603
     34          6           0       -2.730433   -2.978090   -0.314212
     35          6           0       -3.836477   -2.810505   -1.137139
     36          6           0       -4.491911   -1.572170   -1.215520
     37          1           0       -8.207227   -1.330006   -2.941265
     38          1           0       -9.896687    0.473644   -2.584359
     39          1           0       -9.289417    2.490316   -1.260688
     40          1           0       -6.985471    2.717430   -0.333616
     41          1           0       -2.553647    0.165759    0.992753
     42          1           0       -0.342234   -0.279259   -0.283251
     43          1           0       -0.190719    0.828462    1.085401
     44          1           0        1.870160    0.757347   -0.316839
     45          1           0        2.010266   -0.982765   -0.039051
     46          1           0        3.991796   -1.030470    1.083224
     47          1           0        4.254889   -0.083678    2.546391
     48          1           0        3.103435    2.494932    1.003667
     49          1           0        4.322384    4.265313   -0.257949
     50          1           0        6.547895    3.779089   -1.237678
     51          1           0        8.398212    2.229739   -1.615983
     52          1           0        9.445133    0.006990   -1.316556
     53          1           0        8.244368   -1.767460   -0.039860
     54          1           0        6.037818   -1.338047    0.912242
     55          1           0        2.492965   -0.522742    3.608932
     56          1           0        1.081363    0.472810    3.286390
     57          1           0        0.416530   -1.896827    3.489851
     58          1           0        1.542042   -2.375071    2.224967
     59          1           0       -2.245386   -3.944624   -0.228114
     60          1           0       -4.229789   -3.632868   -1.724977
 ---------------------------------------------------------------------

 SCF Done:  E(RB3LYP) =  -1928.06978448     A.U. after   15 cycles

 Excitation energies and oscillator strengths:

 Excited state symmetry could not be determined.
 Excited State   1:      Triplet-?Sym    2.6716 eV  464.08 nm  f=0.0000  <S**2>=2.000
     129 ->131        -0.10209
     130 ->131         0.69492
 This state for optimization and/or second-order correction.
 Total Energy, E(TD-HF/TD-DFT) =  -1927.97160513
 Copying the excited state density for this state as the 1-particle RhoCI density.

 Excited state symmetry could not be determined.
 Excited State   2:      Singlet-?Sym    2.6726 eV  463.91 nm  f=0.0001  <S**2>=0.000
     130 ->131         0.70045

 Excited state symmetry could not be determined.
 Excited State   3:      Triplet-?Sym    2.6948 eV  460.09 nm  f=0.0000  <S**2>=2.000
     124 ->138        -0.13681
     128 ->136        -0.16945
     130 ->134         0.66825
     130 <-134         0.10544

 Excited state symmetry could not be determined.
 Excited State   4:      Singlet-?Sym    2.7914 eV  444.16 nm  f=0.0008  <S**2>=0.000
     129 ->131         0.69942

 Alpha  occ. eigenvalues --  -89.10750 -19.16113 -19.15151 -19.14833 -19.12137
 Alpha  occ. eigenvalues --  -14.37503 -14.33714 -10.30394 -10.29723 -10.24932
 Alpha  occ. eigenvalues --  -10.24854 -10.23915 -10.23748 -10.23624 -10.23314
 Alpha  occ. eigenvalues --  -10.23147 -10.22867 -10.22739 -10.22695 -10.22504
 Alpha  occ. eigenvalues --  -10.22386 -10.22380 -10.22313 -10.22307 -10.22259
 Alpha  occ. eigenvalues --  -10.22123 -10.19868 -10.19734 -10.19680 -10.19157
 Alpha  occ. eigenvalues --  -10.19076 -10.19055 -10.19011 -10.18865 -10.18778
 Alpha  occ. eigenvalues --  -10.18376  -8.13611  -6.10021  -6.09980  -6.09966
 Alpha  occ. eigenvalues --   -1.10891  -1.06133  -1.04225  -1.00248  -0.95903
 Alpha  occ. eigenvalues --   -0.91931  -0.90135  -0.89193  -0.87035  -0.82086
 Alpha  occ. eigenvalues --   -0.81877  -0.79468  -0.78808  -0.78580  -0.78383
 Alpha  occ. eigenvalues --   -0.78022  -0.74710  -0.73758  -0.71815  -0.70938
 Alpha  occ. eigenvalues --   -0.68856  -0.67220  -0.66915  -0.65234  -0.63294
 Alpha  occ. eigenvalues --   -0.61991  -0.61297  -0.61048  -0.60182  -0.57937
 Alpha  occ. eigenvalues --   -0.57449  -0.57156  -0.54427  -0.52781  -0.52222
 Alpha  occ. eigenvalues --   -0.51226  -0.51149  -0.50350  -0.50236  -0.49994
 Alpha  occ. eigenvalues --   -0.49135  -0.48734  -0.47974  -0.47226  -0.46781
 Alpha  occ. eigenvalues --   -0.46227  -0.46126  -0.45931  -0.44910  -0.44646
 Alpha  occ. eigenvalues --   -0.44102  -0.43736  -0.43494  -0.42846  -0.42665
 Alpha  occ. eigenvalues --   -0.42602  -0.41286  -0.40924  -0.40560  -0.40410
 Alpha  occ. eigenvalues --   -0.40038  -0.39449  -0.39202  -0.38995  -0.38640
 Alpha  occ. eigenvalues --   -0.38300  -0.38189  -0.38097  -0.37436  -0.36810
 Alpha  occ. eigenvalues --   -0.36147  -0.35657  -0.33409  -0.33384  -0.33137
 Alpha  occ. eigenvalues --   -0.32538  -0.32206  -0.32072  -0.30563  -0.28561
 Alpha  occ. eigenvalues --   -0.28457  -0.28062  -0.27853  -0.27708  -0.27642
 Alpha  occ. eigenvalues --   -0.25920  -0.24809  -0.24155  -0.22033  -0.21209
 Alpha virt. eigenvalues --   -0.10451  -0.05260  -0.04612  -0.03819  -0.03215
 Alpha virt. eigenvalues --   -0.00763   0.01290   0.03306   0.04570   0.05286
 Alpha virt. eigenvalues --    0.05988   0.06953   0.07723   0.09069   0.09465

 Mulliken charges:
               1
     1  O   -0.465151
     2  C    0.334574
     3  C    0.090214
     4  C   -0.143444
     5  C   -0.127393
     6  C   -0.111865
     7  C   -0.157071
     8  C   -0.204113
     9  S    1.120719
    10  O   -0.533112
    11  O   -0.487079
    12  C   -0.211998
    13  C   -0.197977
    14  C    0.072208
    15  C    0.533724
    16  O   -0.513558
    17  N   -0.442573
    18  C   -0.173399
    19  C   -0.131491
    20  N   -0.402789
    21  C   -0.193761
    22  C    0.082345
    23  C   -0.189743
    24  C   -0.134308
    25  C   -0.189944
    26  C    0.135210
    27  C   -0.194036
    28  C   -0.133231
    29  C   -0.133672
    30  C   -0.201880
    31  C    0.080428
    32  C   -0.163450
    33  C   -0.125424
    34  C   -0.147234
    35  C   -0.154998
    36  C    0.097838
    37  H    0.177714
    38  H    0.154257
    39  H    0.156442
    40  H    0.186877
    41  H    0.191516
    42  H    0.178621
    43  H    0.169785
    44  H    0.163778
    45  H    0.129673
    46  H    0.131571
    47  H    0.158763
    48  H    0.144678
    49  H    0.130599
    50  H    0.128512
    51  H    0.130152
    52  H    0.130214
    53  H    0.129148
    54  H    0.127146
    55  H    0.151922
    56  H    0.156020
    57  H    0.176000
    58  H    0.160801
    59  H    0.174145
    60  H    0.179100
 Sum of Mulliken charges =  -0.00000

 Dipole moment (field-independent basis, Debye):
    X=             -0.5714    Y=              0.2292    Z=             -0.0291  Tot=              0.6164
 Quadrupole moment (field-independent basis, Debye-Ang):
   XX=           -163.6534   YY=           -220.0559   ZZ=           -220.3641
   XY=            -10.2632   XZ=              5.7891   YZ=              1.1605

 Normal termination of Gaussian 16 at Fri Nov  4 21:01:11 2022.
