 Gaussian 16, Revision B.01,
 Gaussian 16:  ES64L-G16RevB.01 20-Dec-2017

 -------------------------------------------------------------------
 #p b3lyp/6-31g(d) 6D 10F nosymm GFInput td=(50-50,nstate=2) SCF=XQC
 -------------------------------------------------------------------

 ------------------------------
 Gaussian input prepared by ASE
 ------------------------------
 Symbolic Z-matrix:
 Charge =  0 Multiplicity = 1

                          Input orientation:
 ---------------------------------------------------------------------
 Center     Atomic      Atomic             Coordinates (Angstroms)
 Number     Number       Type             X           Y           Z
 ---------------------------------------------------------------------
      1          9           0       10.130007    1.238178    0.238316
      2          6           0        9.496824    0.325688   -0.528913
      3          9           0       10.215478   -0.822087   -0.418521
      4          9           0        9.660873    0.765587   -1.803234
      5          6           0        8.027320    0.097694   -0.215066
      6          6           0        7.376269    0.654663    0.915171
      7          6           0        8.034562    1.389359    1.962243
      8          6           0        7.344896    1.914802    3.022126
      9          6           0        5.938097    1.762671    3.128602
     10          6           0        5.264892    1.055940    2.172377
     11          6           0        5.942294    0.467373    1.054362
     12          6           0        5.222831   -0.288221    0.106706
     13          6           0        3.739746   -0.453994    0.251077
     14          6           0        3.213001   -1.520376    1.009012
     15          6           0        1.840133   -1.695490    1.154356
     16          6           0        0.977479   -0.790252    0.532423
     17         16           0       -0.786427   -0.824503    0.585873
     18          6           0       -0.870413    0.621848   -0.428996
     19          6           0       -2.052922    1.250317   -0.850642
     20          6           0       -3.402814    0.730511   -0.462252
     21          6           0       -4.021816    1.193783    0.719459
     22          6           0       -3.392449    2.154759    1.575485
     23          6           0       -4.000935    2.597279    2.719441
     24          6           0       -5.284838    2.106714    3.086009
     25          6           0       -5.923960    1.187669    2.297539
     26          6           0       -5.327628    0.695315    1.091112
     27          6           0       -5.980940   -0.250821    0.271614
     28          6           0       -7.333021   -0.768317    0.658469
     29          6           0       -7.458656   -1.916629    1.454640
     30          6           0       -8.717689   -2.399364    1.815485
     31          6           0       -9.871134   -1.740883    1.385460
     32          6           0       -9.758527   -0.597269    0.592772
     33          6           0       -8.499156   -0.115059    0.232307
     34          6           0       -5.362560   -0.710523   -0.911537
     35          6           0       -5.995522   -1.666753   -1.770886
     36          6           0       -5.390104   -2.106339   -2.917638
     37          6           0       -4.105655   -1.616925   -3.283831
     38          6           0       -3.463189   -0.702059   -2.493277
     39          6           0       -4.056659   -0.213244   -1.284470
     40          6           0       -1.916869    2.388794   -1.653070
     41          6           0       -0.656756    2.881927   -2.020980
     42          6           0        0.504054    2.247452   -1.594625
     43          6           0        0.409430    1.103603   -0.789082
     44          6           0        1.477111    0.286913   -0.232909
     45          6           0        2.864669    0.442347   -0.365267
     46          6           0        5.893172   -0.905673   -0.969315
     47          6           0        5.181265   -1.719089   -1.909747
     48          6           0        5.822746   -2.340471   -2.945200
     49          6           0        7.225384   -2.184420   -3.097420
     50          6           0        7.944486   -1.405697   -2.230164
     51          6           0        7.317601   -0.722610   -1.132867
     52          1           0        9.103494    1.516524    1.935261
     53          1           0        7.888288    2.452652    3.794416
     54          1           0        5.404433    2.195219    3.970175
     55          1           0        4.192820    0.919841    2.251438
     56          1           0        3.895856   -2.216784    1.487296
     57          1           0        1.451401   -2.522360    1.741566
     58          1           0       -2.414008    2.532779    1.299798
     59          1           0       -3.502337    3.326393    3.352455
     60          1           0       -5.758136    2.464740    3.996334
     61          1           0       -6.902690    0.816175    2.580098
     62          1           0       -6.561863   -2.430537    1.790367
     63          1           0       -8.796398   -3.290378    2.432956
     64          1           0      -10.851465   -2.116536    1.666266
     65          1           0      -10.651449   -0.078589    0.253583
     66          1           0       -8.413618    0.775348   -0.384927
     67          1           0       -6.974957   -2.041663   -1.495351
     68          1           0       -5.890843   -2.832027   -3.552874
     69          1           0       -3.633926   -1.972668   -4.195879
     70          1           0       -2.484681   -0.330757   -2.777715
     71          1           0       -2.815637    2.895206   -1.993703
     72          1           0       -0.590657    3.768447   -2.645194
     73          1           0        1.477936    2.633791   -1.882628
     74          1           0        3.267223    1.264836   -0.950429
     75          1           0        4.112320   -1.840861   -1.779821
     76          1           0        5.265327   -2.957269   -3.644507
     77          1           0        7.738534   -2.692147   -3.909572
     78          1           0        9.011047   -1.323492   -2.376272
 ---------------------------------------------------------------------

 SCF Done:  E(RB3LYP) =  -2505.04425565     A.U. after   16 cycles

 Excitation energies and oscillator strengths:

 Excited state symmetry could not be determined.
 Excited State   1:      Triplet-?Sym    1.7135 eV  723.59 nm  f=0.0000  <S**2>=2.000
     167 ->186         0.10274
     175 ->177         0.70009
     175 <-177         0.13890
 This state for optimization and/or second-order correction.
 Total Energy, E(TD-HF/TD-DFT) =  -2504.98128744
 Copying the excited state density for this state as the 1-particle RhoCI density.

 Excited state symmetry could not be determined.
 Excited State   2:      Triplet-?Sym    1.7347 eV  714.74 nm  f=0.0000  <S**2>=2.000
     176 ->178         0.69975
     176 <-178         0.13893

 Excited state symmetry could not be determined.
 Excited State   3:      Singlet-?Sym    2.9333 eV  422.67 nm  f=0.0010  <S**2>=0.000
     176 ->177         0.70703

 Excited state symmetry could not be determined.
 Excited State   4:      Singlet-?Sym    3.1247 eV  396.78 nm  f=0.3071  <S**2>=0.000
     175 ->177         0.62541
     176 ->178         0.31438

 Alpha  occ. eigenvalues --  -88.90449 -24.72620 -24.71695 -24.71637 -10.43189
 Alpha  occ. eigenvalues --  -10.22947 -10.22907 -10.21842 -10.21762 -10.21514
 Alpha  occ. eigenvalues --  -10.21332 -10.21014 -10.20935 -10.20933 -10.20868
 Alpha  occ. eigenvalues --  -10.20828 -10.20798 -10.20573 -10.20344 -10.20287
 Alpha  occ. eigenvalues --  -10.20209 -10.20167 -10.20150 -10.20147 -10.20140
 Alpha  occ. eigenvalues --  -10.20036 -10.20020 -10.20011 -10.19886 -10.19718
 Alpha  occ. eigenvalues --  -10.19564 -10.19535 -10.19456 -10.19419 -10.19356
 Alpha  occ. eigenvalues --  -10.19331 -10.19320 -10.19305 -10.19273 -10.19226
 Alpha  occ. eigenvalues --  -10.19210 -10.19207 -10.19067 -10.18968 -10.18967
 Alpha  occ. eigenvalues --  -10.18902 -10.18901 -10.18715 -10.18715 -10.18682
 Alpha  occ. eigenvalues --  -10.18681  -7.96507  -5.92962  -5.92606  -5.92101
 Alpha  occ. eigenvalues --   -1.29889  -1.21206  -1.20601  -0.90516  -0.89248
 Alpha  occ. eigenvalues --   -0.88502  -0.86220  -0.85401  -0.85339  -0.84611
 Alpha  occ. eigenvalues --   -0.82727  -0.81151  -0.80646  -0.80124  -0.79683
 Alpha  occ. eigenvalues --   -0.77545  -0.75513  -0.75355  -0.74829  -0.74605
 Alpha  occ. eigenvalues --   -0.74505  -0.74054  -0.73655  -0.72946  -0.72788
 Alpha  occ. eigenvalues --   -0.71534  -0.69430  -0.67994  -0.65010  -0.64718
 Alpha  occ. eigenvalues --   -0.63995  -0.62730  -0.62311  -0.61864  -0.61593
 Alpha  occ. eigenvalues --   -0.60595  -0.59535  -0.59530  -0.59167  -0.58753
 Alpha  occ. eigenvalues --   -0.58635  -0.57708  -0.57479  -0.56209  -0.54778
 Alpha  occ. eigenvalues --   -0.53787  -0.53500  -0.52756  -0.52359  -0.51912
 Alpha  occ. eigenvalues --   -0.51571  -0.50469  -0.49141  -0.48659  -0.47284
 Alpha  occ. eigenvalues --   -0.47069  -0.46606  -0.46328  -0.46198  -0.45968
 Alpha  occ. eigenvalues --   -0.45735  -0.45606  -0.45313  -0.45246  -0.44959
 Alpha  occ. eigenvalues --   -0.44663  -0.44426  -0.44022  -0.43769  -0.43053
 Alpha  occ. eigenvalues --   -0.42954  -0.42445  -0.42164  -0.42137  -0.41813
 Alpha  occ. eigenvalues --   -0.41647  -0.41442  -0.41049  -0.40514  -0.40233
 Alpha  occ. eigenvalues --   -0.40021  -0.39730  -0.39441  -0.39331  -0.39097
 Alpha  occ. eigenvalues --   -0.38808  -0.38050  -0.37630  -0.36986  -0.36509
 Alpha  occ. eigenvalues --   -0.36348  -0.36309  -0.36274  -0.35849  -0.35565
 Alpha  occ. eigenvalues --   -0.35147  -0.34694  -0.34670  -0.34354  -0.34230
 Alpha  occ. eigenvalues --   -0.33901  -0.33433  -0.32326  -0.31519  -0.31437
 Alpha  occ. eigenvalues --   -0.30778  -0.29929  -0.29880  -0.28986  -0.28978
 Alpha  occ. eigenvalues --   -0.26286  -0.25852  -0.25710  -0.24939  -0.24880
 Alpha  occ. eigenvalues --   -0.24704  -0.23908  -0.22881  -0.21766  -0.20222
 Alpha  occ. eigenvalues --   -0.19209
 Alpha virt. eigenvalues --   -0.07506  -0.06373  -0.04362  -0.02002  -0.01655
 Alpha virt. eigenvalues --   -0.01202  -0.00869  -0.00518  -0.00158   0.00331
 Alpha virt. eigenvalues --    0.01175   0.01774   0.02471   0.02923   0.04285

 Mulliken charges:
               1
     1  F   -0.265554
     2  C    0.805286
     3  F   -0.274230
     4  F   -0.274521
     5  C   -0.131985
     6  C    0.088187
     7  C   -0.206380
     8  C   -0.131168
     9  C   -0.133276
    10  C   -0.195493
    11  C    0.100851
    12  C   -0.067647
    13  C   -0.019911
    14  C   -0.134250
    15  C   -0.188646
    16  C   -0.135234
    17  S    0.235144
    18  C   -0.189348
    19  C   -0.026706
    20  C   -0.110509
    21  C    0.115493
    22  C   -0.194013
    23  C   -0.133955
    24  C   -0.134301
    25  C   -0.197538
    26  C    0.104151
    27  C   -0.076512
    28  C    0.002340
    29  C   -0.147001
    30  C   -0.132573
    31  C   -0.126218
    32  C   -0.132530
    33  C   -0.147219
    34  C    0.104126
    35  C   -0.197537
    36  C   -0.134287
    37  C   -0.133961
    38  C   -0.194027
    39  C    0.115501
    40  C   -0.134365
    41  C   -0.149903
    42  C   -0.167353
    43  C    0.116231
    44  C    0.103648
    45  C   -0.194672
    46  C    0.101993
    47  C   -0.192221
    48  C   -0.133021
    49  C   -0.134804
    50  C   -0.181770
    51  C    0.072172
    52  H    0.159085
    53  H    0.134564
    54  H    0.134638
    55  H    0.152094
    56  H    0.143756
    57  H    0.147947
    58  H    0.146168
    59  H    0.130236
    60  H    0.129960
    61  H    0.147757
    62  H    0.139441
    63  H    0.132979
    64  H    0.131355
    65  H    0.132727
    66  H    0.137813
    67  H    0.147758
    68  H    0.129972
    69  H    0.130259
    70  H    0.146160
    71  H    0.141326
    72  H    0.136359
    73  H    0.138328
    74  H    0.143151
    75  H    0.151531
    76  H    0.134639
    77  H    0.135509
    78  H    0.154007
 Sum of Mulliken charges =  -0.00000

 Dipole moment (field-independent basis, Debye):
    X=             -3.2445    Y=             -0.0712    Z=              0.3019  Tot=              3.2593
 Quadrupole moment (field-independent basis, Debye-Ang):
   XX=           -301.0889   YY=           -280.3868   ZZ=           -276.4688
   XY=              1.9615   XZ=              1.3415   YZ=              4.7075

 Normal termination of Gaussian 16 at Sat Nov  5 10:02:20 2022.
