 Gaussian 16, Revision B.01,
 Gaussian 16:  ES64L-G16RevB.01 20-Dec-2017

 -----------------------------
 #p b3lyp/6-31g(d) opt SCF=XQC
 -----------------------------

 ------------------------------
 Gaussian input prepared by ASE
 ------------------------------
 Symbolic Z-matrix:
 Charge =  0 Multiplicity = 1

 SCF Done:  E(RB3LYP) =  -2505.03369233     A.U. after   16 cycles
 SCF Done:  E(RB3LYP) =  -2505.04320752     A.U. after   13 cycles
 SCF Done:  E(RB3LYP) =  -2505.04351939     A.U. after   12 cycles
 SCF Done:  E(RB3LYP) =  -2505.04364410     A.U. after   11 cycles
 SCF Done:  E(RB3LYP) =  -2505.04361033     A.U. after   11 cycles
 SCF Done:  E(RB3LYP) =  -2505.04367230     A.U. after   11 cycles
 SCF Done:  E(RB3LYP) =  -2505.04370506     A.U. after   10 cycles
 SCF Done:  E(RB3LYP) =  -2505.04370094     A.U. after    8 cycles
 SCF Done:  E(RB3LYP) =  -2505.04376698     A.U. after   11 cycles
 SCF Done:  E(RB3LYP) =  -2504.97779060     A.U. after   14 cycles
 SCF Done:  E(RB3LYP) =  -2505.04385755     A.U. after   13 cycles
 SCF Done:  E(RB3LYP) =  -2505.04406029     A.U. after   13 cycles
 SCF Done:  E(RB3LYP) =  -2505.04418161     A.U. after   11 cycles
 SCF Done:  E(RB3LYP) =  -2505.04423448     A.U. after   11 cycles
 SCF Done:  E(RB3LYP) =  -2505.04425247     A.U. after   10 cycles
 SCF Done:  E(RB3LYP) =  -2505.04425463     A.U. after    9 cycles
 SCF Done:  E(RB3LYP) =  -2505.04425513     A.U. after    8 cycles
 SCF Done:  E(RB3LYP) =  -2505.04425555     A.U. after    9 cycles
 SCF Done:  E(RB3LYP) =  -2505.04425566     A.U. after    7 cycles
 SCF Done:  E(RB3LYP) =  -2505.04425567     A.U. after    7 cycles
 Optimization completed.
    -- Stationary point found.

                         Standard orientation:
 ---------------------------------------------------------------------
 Center     Atomic      Atomic             Coordinates (Angstroms)
 Number     Number       Type             X           Y           Z
 ---------------------------------------------------------------------
      1          9           0       -9.573938    1.098661    0.448654
      2          6           0       -8.948541   -0.059595    0.149460
      3          9           0       -9.632020   -0.597208   -0.894508
      4          9           0       -9.175089   -0.865935    1.218482
      5          6           0       -7.462167    0.045244   -0.149912
      6          6           0       -6.780947    1.281146   -0.291342
      7          6           0       -7.415543    2.572170   -0.296846
      8          6           0       -6.697761    3.731420   -0.423380
      9          6           0       -5.284332    3.708112   -0.546834
     10          6           0       -4.631918    2.507721   -0.568265
     11          6           0       -5.338143    1.264749   -0.460994
     12          6           0       -4.637906    0.043237   -0.525641
     13          6           0       -3.146400    0.042256   -0.678200
     14          6           0       -2.562001    0.063314   -1.961607
     15          6           0       -1.180304    0.059975   -2.127306
     16          6           0       -0.367232    0.035350   -0.992081
     17         16           0        1.397690    0.027414   -0.972534
     18          6           0        1.403090   -0.005226    0.796039
     19          6           0        2.550914   -0.024856    1.604247
     20          6           0        3.928415   -0.019380    1.016273
     21          6           0        4.582133    1.207312    0.767071
     22          6           0        3.962853    2.466201    1.056984
     23          6           0        4.605090    3.650198    0.811223
     24          6           0        5.915039    3.655201    0.256748
     25          6           0        6.545685    2.475567   -0.035747
     26          6           0        5.914376    1.211694    0.204177
     27          6           0        6.558656   -0.009075   -0.092796
     28          6           0        7.938221   -0.003619   -0.677904
     29          6           0        8.125643    0.010763   -2.068212
     30          6           0        9.410315    0.015874   -2.614101
     31          6           0       10.527990    0.006647   -1.777636
     32          6           0       10.353843   -0.007724   -0.392589
     33          6           0        9.068862   -0.012808    0.152638
     34          6           0        5.905408   -1.234975    0.160194
     35          6           0        6.528021   -2.494027   -0.123772
     36          6           0        5.888660   -3.678755    0.126116
     37          6           0        4.578210   -3.684081    0.679404
     38          6           0        3.944416   -2.504998    0.967126
     39          6           0        4.573055   -1.241081    0.722816
     40          6           0        2.353091   -0.049732    2.989448
     41          6           0        1.066785   -0.054856    3.547848
     42          6           0       -0.059020   -0.035092    2.732990
     43          6           0        0.097687   -0.009866    1.339774
     44          6           0       -0.925128    0.013692    0.305584
     45          6           0       -2.320463    0.017047    0.447081
     46          6           0       -5.334637   -1.181249   -0.465444
     47          6           0       -4.640151   -2.429003   -0.582349
     48          6           0       -5.306322   -3.622623   -0.546798
     49          6           0       -6.717535   -3.635094   -0.394359
     50          6           0       -7.421246   -2.467247   -0.265622
     51          6           0       -6.768776   -1.187578   -0.285263
     52          1           0       -8.487648    2.641027   -0.223584
     53          1           0       -7.223502    4.682464   -0.433337
     54          1           0       -4.728726    4.637428   -0.635221
     55          1           0       -3.554352    2.476947   -0.677883
     56          1           0       -3.206697    0.082475   -2.835696
     57          1           0       -0.746864    0.076266   -3.123051
     58          1           0        2.964601    2.467761    1.480943
     59          1           0        4.113507    4.592094    1.039459
     60          1           0        6.415055    4.600886    0.065571
     61          1           0        7.544332    2.483348   -0.458128
     62          1           0        7.256768    0.017997   -2.720941
     63          1           0        9.536976    0.027133   -3.693546
     64          1           0       11.528273    0.010618   -2.202411
     65          1           0       11.218588   -0.015082    0.265856
     66          1           0        8.935406   -0.024083    1.231147
     67          1           0        7.527178   -2.493991   -0.545026
     68          1           0        6.382202   -4.620614   -0.097946
     69          1           0        4.079634   -4.629946    0.873505
     70          1           0        2.945922   -2.514448    1.390407
     71          1           0        3.223937   -0.065265    3.638797
     72          1           0        0.952565   -0.074453    4.627894
     73          1           0       -1.053428   -0.039164    3.170921
     74          1           0       -2.767512    0.000259    1.437444
     75          1           0       -3.564037   -2.409561   -0.708657
     76          1           0       -4.761578   -4.557665   -0.642381
     77          1           0       -7.249509   -4.582507   -0.383769
     78          1           0       -8.494599   -2.522288   -0.162940
 ---------------------------------------------------------------------

 The electronic state is 1-A.
 Alpha  occ. eigenvalues --  -88.90449 -24.72620 -24.71695 -24.71637 -10.43189
 Alpha  occ. eigenvalues --  -10.22947 -10.22907 -10.21843 -10.21762 -10.21514
 Alpha  occ. eigenvalues --  -10.21332 -10.21014 -10.20935 -10.20933 -10.20868
 Alpha  occ. eigenvalues --  -10.20828 -10.20798 -10.20573 -10.20344 -10.20287
 Alpha  occ. eigenvalues --  -10.20210 -10.20167 -10.20150 -10.20147 -10.20140
 Alpha  occ. eigenvalues --  -10.20035 -10.20019 -10.20011 -10.19886 -10.19719
 Alpha  occ. eigenvalues --  -10.19564 -10.19535 -10.19456 -10.19419 -10.19356
 Alpha  occ. eigenvalues --  -10.19331 -10.19320 -10.19305 -10.19273 -10.19226
 Alpha  occ. eigenvalues --  -10.19210 -10.19207 -10.19067 -10.18968 -10.18967
 Alpha  occ. eigenvalues --  -10.18902 -10.18901 -10.18715 -10.18715 -10.18682
 Alpha  occ. eigenvalues --  -10.18681  -7.96507  -5.92963  -5.92607  -5.92101
 Alpha  occ. eigenvalues --   -1.29889  -1.21206  -1.20601  -0.90516  -0.89248
 Alpha  occ. eigenvalues --   -0.88502  -0.86220  -0.85401  -0.85339  -0.84611
 Alpha  occ. eigenvalues --   -0.82728  -0.81151  -0.80646  -0.80124  -0.79683
 Alpha  occ. eigenvalues --   -0.77545  -0.75513  -0.75355  -0.74829  -0.74604
 Alpha  occ. eigenvalues --   -0.74505  -0.74054  -0.73655  -0.72946  -0.72788
 Alpha  occ. eigenvalues --   -0.71534  -0.69430  -0.67994  -0.65010  -0.64718
 Alpha  occ. eigenvalues --   -0.63995  -0.62730  -0.62311  -0.61864  -0.61593
 Alpha  occ. eigenvalues --   -0.60595  -0.59535  -0.59530  -0.59167  -0.58753
 Alpha  occ. eigenvalues --   -0.58635  -0.57708  -0.57479  -0.56209  -0.54778
 Alpha  occ. eigenvalues --   -0.53787  -0.53500  -0.52756  -0.52359  -0.51912
 Alpha  occ. eigenvalues --   -0.51572  -0.50469  -0.49142  -0.48659  -0.47284
 Alpha  occ. eigenvalues --   -0.47069  -0.46606  -0.46328  -0.46198  -0.45968
 Alpha  occ. eigenvalues --   -0.45735  -0.45606  -0.45313  -0.45246  -0.44959
 Alpha  occ. eigenvalues --   -0.44663  -0.44426  -0.44022  -0.43769  -0.43053
 Alpha  occ. eigenvalues --   -0.42954  -0.42445  -0.42163  -0.42137  -0.41813
 Alpha  occ. eigenvalues --   -0.41646  -0.41442  -0.41049  -0.40514  -0.40233
 Alpha  occ. eigenvalues --   -0.40021  -0.39730  -0.39441  -0.39331  -0.39097
 Alpha  occ. eigenvalues --   -0.38808  -0.38050  -0.37630  -0.36986  -0.36509
 Alpha  occ. eigenvalues --   -0.36348  -0.36309  -0.36274  -0.35849  -0.35565
 Alpha  occ. eigenvalues --   -0.35147  -0.34694  -0.34670  -0.34354  -0.34230
 Alpha  occ. eigenvalues --   -0.33901  -0.33433  -0.32326  -0.31519  -0.31437
 Alpha  occ. eigenvalues --   -0.30778  -0.29929  -0.29880  -0.28986  -0.28978
 Alpha  occ. eigenvalues --   -0.26286  -0.25852  -0.25710  -0.24939  -0.24880
 Alpha  occ. eigenvalues --   -0.24704  -0.23908  -0.22881  -0.21766  -0.20222
 Alpha  occ. eigenvalues --   -0.19209
 Alpha virt. eigenvalues --   -0.07506  -0.06373  -0.04362  -0.02002  -0.01655
 Alpha virt. eigenvalues --   -0.01202  -0.00869  -0.00518  -0.00158   0.00331
 Alpha virt. eigenvalues --    0.01175   0.01774   0.02471   0.02923   0.04285

 Mulliken charges:
               1
     1  F   -0.265551
     2  C    0.805280
     3  F   -0.274231
     4  F   -0.274520
     5  C   -0.131979
     6  C    0.088184
     7  C   -0.206377
     8  C   -0.131172
     9  C   -0.133276
    10  C   -0.195492
    11  C    0.100850
    12  C   -0.067638
    13  C   -0.019954
    14  C   -0.134242
    15  C   -0.188644
    16  C   -0.135226
    17  S    0.235110
    18  C   -0.189335
    19  C   -0.026692
    20  C   -0.110526
    21  C    0.115507
    22  C   -0.194019
    23  C   -0.133958
    24  C   -0.134300
    25  C   -0.197539
    26  C    0.104157
    27  C   -0.076523
    28  C    0.002349
    29  C   -0.147009
    30  C   -0.132571
    31  C   -0.126217
    32  C   -0.132532
    33  C   -0.147221
    34  C    0.104147
    35  C   -0.197546
    36  C   -0.134290
    37  C   -0.133959
    38  C   -0.194028
    39  C    0.115505
    40  C   -0.134371
    41  C   -0.149906
    42  C   -0.167340
    43  C    0.116216
    44  C    0.103636
    45  C   -0.194634
    46  C    0.101984
    47  C   -0.192221
    48  C   -0.133021
    49  C   -0.134805
    50  C   -0.181775
    51  C    0.072190
    52  H    0.159084
    53  H    0.134565
    54  H    0.134638
    55  H    0.152095
    56  H    0.143758
    57  H    0.147948
    58  H    0.146167
    59  H    0.130237
    60  H    0.129960
    61  H    0.147757
    62  H    0.139445
    63  H    0.132979
    64  H    0.131355
    65  H    0.132728
    66  H    0.137810
    67  H    0.147759
    68  H    0.129973
    69  H    0.130259
    70  H    0.146159
    71  H    0.141329
    72  H    0.136360
    73  H    0.138327
    74  H    0.143152
    75  H    0.151529
    76  H    0.134639
    77  H    0.135509
    78  H    0.154004
 Sum of Mulliken charges =  -0.00000

 Dipole moment (field-independent basis, Debye):
    X=              3.2547    Y=              0.1495    Z=             -0.0845  Tot=              3.2592
 Quadrupole moment (field-independent basis, Debye-Ang):
   XX=           -297.3598   YY=           -273.2509   ZZ=           -283.6380
   XY=             -1.5402   XZ=             -1.6869   YZ=             -0.1207

 Normal termination of Gaussian 16 at Fri Nov  4 23:55:50 2022.
