 Gaussian 16, Revision B.01,
 Gaussian 16:  ES64L-G16RevB.01 20-Dec-2017

 -----------------------------
 #p b3lyp/6-31g(d) opt SCF=XQC
 -----------------------------

 ------------------------------
 Gaussian input prepared by ASE
 ------------------------------
 Symbolic Z-matrix:
 Charge =  0 Multiplicity = 1

 SCF Done:  E(RB3LYP) =  -1473.75348299     A.U. after   15 cycles
 SCF Done:  E(RB3LYP) =  -1473.76160513     A.U. after   12 cycles
 SCF Done:  E(RB3LYP) =  -1473.76181139     A.U. after   12 cycles
 SCF Done:  E(RB3LYP) =  -1473.76223892     A.U. after   10 cycles
 SCF Done:  E(RB3LYP) =  -1473.76230715     A.U. after   10 cycles
 SCF Done:  E(RB3LYP) =  -1473.76232459     A.U. after    9 cycles
 SCF Done:  E(RB3LYP) =  -1473.76234006     A.U. after    9 cycles
 SCF Done:  E(RB3LYP) =  -1473.76234566     A.U. after    9 cycles
 SCF Done:  E(RB3LYP) =  -1473.76234707     A.U. after    8 cycles
 SCF Done:  E(RB3LYP) =  -1473.76234924     A.U. after    9 cycles
 SCF Done:  E(RB3LYP) =  -1473.76235069     A.U. after    8 cycles
 SCF Done:  E(RB3LYP) =  -1473.76235165     A.U. after    8 cycles
 SCF Done:  E(RB3LYP) =  -1473.76235301     A.U. after    8 cycles
 SCF Done:  E(RB3LYP) =  -1473.76235421     A.U. after    9 cycles
 SCF Done:  E(RB3LYP) =  -1473.76235498     A.U. after    7 cycles
 SCF Done:  E(RB3LYP) =  -1473.76235530     A.U. after    7 cycles
 SCF Done:  E(RB3LYP) =  -1473.76235540     A.U. after    7 cycles
 SCF Done:  E(RB3LYP) =  -1473.76235544     A.U. after    7 cycles
 Optimization completed.
    -- Stationary point found.

                         Standard orientation:
 ---------------------------------------------------------------------
 Center     Atomic      Atomic             Coordinates (Angstroms)
 Number     Number       Type             X           Y           Z
 ---------------------------------------------------------------------
      1          6           0        6.056353    3.939221   -1.101127
      2          6           0        6.226265    2.526385   -0.597341
      3          6           0        5.181658    1.580901   -0.778817
      4          6           0        5.314253    0.276294   -0.333385
      5          6           0        4.259725   -0.711856   -0.574414
      6          6           0        4.305612   -1.997118   -1.108072
      7          7           0        3.078641   -2.547650   -1.273890
      8          6           0        2.221695   -1.623557   -0.832903
      9          6           0        0.814996   -1.660166   -0.750287
     10          6           0        0.105271   -0.592717   -0.228315
     11          6           0       -1.366821   -0.613073   -0.132985
     12          6           0       -2.139325    0.548556   -0.233310
     13          7           0       -3.470486    0.572968   -0.196091
     14          6           0       -4.149405   -0.579052   -0.038291
     15          7           0       -5.526993   -0.459606   -0.026047
     16          6           0       -6.440187   -1.456492   -0.622312
     17          6           0       -7.662412   -0.630980   -1.059153
     18          6           0       -7.643028    0.601572   -0.138417
     19          6           0       -8.239078    0.353356    1.269340
     20          6           0       -8.544623    1.761351    1.841327
     21          6           0       -8.618037    2.716314    0.611588
     22          6           0       -8.466711    1.806539   -0.626686
     23          6           0       -6.129192    0.881475   -0.068667
     24          6           0       -3.475316   -1.822823    0.164382
     25          6           0       -4.177734   -3.096613    0.575603
     26          6           0       -2.090123   -1.800451    0.088322
     27          6           0        0.851382    0.543187    0.232511
     28          6           0        2.211650    0.589318    0.146147
     29          7           0        2.897537   -0.468876   -0.400384
     30          6           0        6.538887   -0.074099    0.334697
     31          6           0        6.799706   -1.348338    0.902941
     32          6           0        8.004499   -1.614056    1.518010
     33          6           0        9.004112   -0.616986    1.597639
     34          6           0        8.772381    0.636928    1.078632
     35          6           0        7.539113    0.945072    0.447135
     36          7           0        7.370480    2.220059   -0.015008
     37          1           0        5.855804    3.954636   -2.179781
     38          1           0        5.211223    4.437716   -0.609356
     39          1           0        6.965040    4.511263   -0.903215
     40          1           0        4.290000    1.883975   -1.320627
     41          1           0        5.201597   -2.524658   -1.410213
     42          1           0        0.321014   -2.547216   -1.130035
     43          1           0       -1.661492    1.515882   -0.384012
     44          1           0       -5.966996   -1.967646   -1.469039
     45          1           0       -6.727516   -2.220128    0.109517
     46          1           0       -8.594790   -1.201822   -0.990195
     47          1           0       -7.544721   -0.310744   -2.102032
     48          1           0       -9.169263   -0.221116    1.166316
     49          1           0       -7.569609   -0.228531    1.912266
     50          1           0       -7.757168    2.082967    2.531398
     51          1           0       -9.476995    1.760078    2.415520
     52          1           0       -7.800388    3.445301    0.646846
     53          1           0       -9.548951    3.292065    0.584733
     54          1           0       -9.452591    1.450798   -0.956102
     55          1           0       -8.005751    2.315496   -1.481434
     56          1           0       -5.790067    1.441219   -0.952294
     57          1           0       -5.822522    1.456102    0.810567
     58          1           0       -3.445267   -3.832122    0.922521
     59          1           0       -4.747643   -3.562769   -0.235710
     60          1           0       -4.877674   -2.909968    1.398436
     61          1           0       -1.547209   -2.726288    0.264540
     62          1           0        0.338767    1.378415    0.695310
     63          1           0        2.807867    1.417335    0.506781
     64          1           0        6.030398   -2.111697    0.864463
     65          1           0        8.184037   -2.593787    1.952210
     66          1           0        9.951137   -0.840722    2.081481
     67          1           0        9.512062    1.429134    1.138322
 ---------------------------------------------------------------------

 The electronic state is 1-A.
 Alpha  occ. eigenvalues --  -14.41605 -14.34939 -14.31934 -14.31847 -14.31072
 Alpha  occ. eigenvalues --  -10.25459 -10.25004 -10.24392 -10.22936 -10.22428
 Alpha  occ. eigenvalues --  -10.22298 -10.22278 -10.21991 -10.21817 -10.21496
 Alpha  occ. eigenvalues --  -10.21047 -10.20747 -10.20451 -10.20291 -10.20163
 Alpha  occ. eigenvalues --  -10.20000 -10.19940 -10.19635 -10.19572 -10.19555
 Alpha  occ. eigenvalues --  -10.19213 -10.19133 -10.19070 -10.19052 -10.19001
 Alpha  occ. eigenvalues --  -10.18506 -10.18189 -10.18132 -10.18114 -10.18067
 Alpha  occ. eigenvalues --  -10.18048  -1.03168  -0.97034  -0.93868  -0.91502
 Alpha  occ. eigenvalues --   -0.90600  -0.85275  -0.84509  -0.84034  -0.81976
 Alpha  occ. eigenvalues --   -0.80598  -0.78420  -0.76750  -0.76005  -0.75788
 Alpha  occ. eigenvalues --   -0.73778  -0.72956  -0.72277  -0.70971  -0.70234
 Alpha  occ. eigenvalues --   -0.69769  -0.66624  -0.65009  -0.64240  -0.63048
 Alpha  occ. eigenvalues --   -0.62221  -0.61322  -0.60395  -0.59877  -0.58545
 Alpha  occ. eigenvalues --   -0.57483  -0.56912  -0.54382  -0.53126  -0.52451
 Alpha  occ. eigenvalues --   -0.51817  -0.51219  -0.50566  -0.49537  -0.48765
 Alpha  occ. eigenvalues --   -0.48525  -0.47411  -0.47305  -0.46637  -0.46320
 Alpha  occ. eigenvalues --   -0.46049  -0.44900  -0.43798  -0.43420  -0.43054
 Alpha  occ. eigenvalues --   -0.42952  -0.42687  -0.42589  -0.42055  -0.41200
 Alpha  occ. eigenvalues --   -0.41101  -0.40931  -0.40659  -0.40222  -0.39792
 Alpha  occ. eigenvalues --   -0.39492  -0.39169  -0.38949  -0.38693  -0.38406
 Alpha  occ. eigenvalues --   -0.37856  -0.37232  -0.36979  -0.35537  -0.35284
 Alpha  occ. eigenvalues --   -0.34737  -0.34297  -0.33927  -0.33605  -0.32997
 Alpha  occ. eigenvalues --   -0.32746  -0.32394  -0.31874  -0.31673  -0.31073
 Alpha  occ. eigenvalues --   -0.30783  -0.28129  -0.27013  -0.26921  -0.25168
 Alpha  occ. eigenvalues --   -0.24986  -0.24682  -0.24367  -0.23135  -0.21155
 Alpha  occ. eigenvalues --   -0.18752
 Alpha virt. eigenvalues --   -0.05562  -0.03940  -0.01463  -0.01356  -0.00915
 Alpha virt. eigenvalues --    0.01461   0.03296   0.06450   0.06951   0.08919
 Alpha virt. eigenvalues --    0.09118   0.09319   0.09787   0.10356   0.10601

 Mulliken charges:
               1
     1  C   -0.524492
     2  C    0.319255
     3  C   -0.246528
     4  C    0.099148
     5  C    0.199298
     6  C   -0.050615
     7  N   -0.518959
     8  C    0.531362
     9  C   -0.247177
    10  C    0.102385
    11  C    0.079278
    12  C   -0.008298
    13  N   -0.518048
    14  C    0.445899
    15  N   -0.499360
    16  C   -0.123530
    17  C   -0.314379
    18  C    0.061507
    19  C   -0.279719
    20  C   -0.275289
    21  C   -0.275292
    22  C   -0.284017
    23  C   -0.095243
    24  C    0.149057
    25  C   -0.536501
    26  C   -0.215061
    27  C   -0.227927
    28  C    0.059880
    29  N   -0.544858
    30  C    0.111733
    31  C   -0.202439
    32  C   -0.136301
    33  C   -0.132868
    34  C   -0.149292
    35  C    0.227601
    36  N   -0.553751
    37  H    0.162276
    38  H    0.157570
    39  H    0.178539
    40  H    0.138512
    41  H    0.152178
    42  H    0.155701
    43  H    0.133877
    44  H    0.148430
    45  H    0.148430
    46  H    0.140840
    47  H    0.145941
    48  H    0.129889
    49  H    0.144181
    50  H    0.141339
    51  H    0.138124
    52  H    0.142568
    53  H    0.137558
    54  H    0.133538
    55  H    0.134715
    56  H    0.147708
    57  H    0.154731
    58  H    0.158623
    59  H    0.161663
    60  H    0.167573
    61  H    0.136625
    62  H    0.150031
    63  H    0.176716
    64  H    0.146849
    65  H    0.133349
    66  H    0.133363
    67  H    0.142105
 Sum of Mulliken charges =  -0.00000

 Dipole moment (field-independent basis, Debye):
    X=             -4.7818    Y=              0.2291    Z=              0.9025  Tot=              4.8716
 Quadrupole moment (field-independent basis, Debye-Ang):
   XX=           -193.4760   YY=           -206.9300   ZZ=           -212.3944
   XY=              3.0500   XZ=              6.8945   YZ=             -5.6827

 1\1\GINC-NODE99\FOpt\RB3LYP\6-31G(d)\C31H31N5\WYKGROUP\04-Nov-2022\0\\
 #p b3lyp/6-31g(d) opt SCF=XQC\\Gaussian input prepared by ASE\\0,1\C,-
 6.8923795458,-2.5214435772,-2.9774323064\C,-7.0315621167,-1.6901218394
 ,-1.7251113548\C,-5.988498229,-0.803396699,-1.3458792493\C,-6.09354379
 92,-0.0235362462,-0.2062419923\C,-5.0426891285,0.9331061612,0.15027405
 18\C,-5.1011069371,2.2822331693,0.4897411623\N,-3.8780129973,2.8458542
 663,0.6394471032\C,-3.01042833,1.8569994747,0.4108921423\C,-1.60130688
 7,1.8632777973,0.44701161\C,-0.8785423561,0.7083350997,0.2034370372\C,

 Normal termination of Gaussian 16 at Fri Nov  4 22:30:35 2022.
