 Gaussian 16, Revision B.01,
 Gaussian 16:  ES64L-G16RevB.01 20-Dec-2017

 -------------------------------------------------------------------
 #p b3lyp/6-31g(d) 6D 10F nosymm GFInput td=(50-50,nstate=2) SCF=XQC
 -------------------------------------------------------------------

 ------------------------------
 Gaussian input prepared by ASE
 ------------------------------
 Symbolic Z-matrix:
 Charge =  0 Multiplicity = 1

                          Input orientation:
 ---------------------------------------------------------------------
 Center     Atomic      Atomic             Coordinates (Angstroms)
 Number     Number       Type             X           Y           Z
 ---------------------------------------------------------------------
      1          6           0       -6.892380   -2.521444   -2.977432
      2          6           0       -7.031562   -1.690122   -1.725111
      3          6           0       -5.988498   -0.803397   -1.345879
      4          6           0       -6.093544   -0.023536   -0.206242
      5          6           0       -5.042689    0.933106    0.150274
      6          6           0       -5.101107    2.282233    0.489741
      7          7           0       -3.878013    2.845854    0.639447
      8          6           0       -3.010428    1.856999    0.410892
      9          6           0       -1.601307    1.863278    0.447012
     10          6           0       -0.878542    0.708335    0.203437
     11          6           0        0.596319    0.695201    0.237655
     12          6           0        1.355797   -0.163537   -0.563574
     13          7           0        2.687162   -0.180621   -0.597444
     14          6           0        3.380138    0.663087    0.190544
     15          7           0        4.756195    0.585426    0.078294
     16          6           0        5.651433    1.758058    0.160261
     17          6           0        6.848941    1.378017   -0.727250
     18          6           0        6.858282   -0.160555   -0.722378
     19          6           0        7.512916   -0.788702    0.532833
     20          6           0        7.831456   -2.254402    0.141384
     21          6           0        7.847925   -2.287414   -1.416898
     22          6           0        7.652789   -0.822068   -1.862537
     23          6           0        5.346585   -0.454950   -0.777287
     24          6           0        2.723742    1.528650    1.119190
     25          6           0        3.451384    2.319630    2.182169
     26          6           0        1.336477    1.530298    1.096020
     27          6           0       -1.613346   -0.492160   -0.076195
     28          6           0       -2.976297   -0.502992   -0.122711
     29          7           0       -3.676311    0.659590    0.094766
     30          6           0       -7.287429   -0.162815    0.583743
     31          6           0       -7.515803    0.517129    1.808543
     32          6           0       -8.692627    0.341799    2.504811
     33          6           0       -9.695250   -0.524851    2.011473
     34          6           0       -9.493788   -1.218340    0.839358
     35          6           0       -8.289485   -1.066766    0.103579
     36          7           0       -8.148903   -1.812219   -1.033145
     37          1           0       -6.736035   -1.887604   -3.859338
     38          1           0       -6.031499   -3.198998   -2.911201
     39          1           0       -7.796308   -3.115550   -3.125969
     40          1           0       -5.121826   -0.707510   -1.994069
     41          1           0       -6.004868    2.869216    0.594820
     42          1           0       -1.116889    2.810966    0.652710
     43          1           0        0.865341   -0.859428   -1.243239
     44          1           0        5.147812    2.664105   -0.196918
     45          1           0        5.973760    1.940698    1.191775
     46          1           0        7.787399    1.812640   -0.366218
     47          1           0        6.686602    1.739863   -1.750340
     48          1           0        8.442205   -0.248764    0.758143
     49          1           0        6.874346   -0.716802    1.420073
     50          1           0        7.070481   -2.938314    0.532412
     51          1           0        8.786421   -2.578103    0.568321
     52          1           0        7.027215   -2.908981   -1.792804
     53          1           0        8.772846   -2.716499   -1.815920
     54          1           0        8.626948   -0.321896   -1.951239
     55          1           0        7.153790   -0.730198   -2.834481
     56          1           0        4.967779   -0.384402   -1.807163
     57          1           0        5.071884   -1.445795   -0.403040
     58          1           0        2.738912    2.690040    2.925818
     59          1           0        3.991091    3.187794    1.788048
     60          1           0        4.182902    1.692611    2.705177
     61          1           0        0.807801    2.158741    1.809142
     62          1           0       -1.088278   -1.429032   -0.221577
     63          1           0       -3.563221   -1.393784   -0.304788
     64          1           0       -6.743279    1.167318    2.204134
     65          1           0       -8.847347    0.866594    3.443580
     66          1           0      -10.620168   -0.650948    2.567929
     67          1           0      -10.236052   -1.903780    0.442500
 ---------------------------------------------------------------------

 SCF Done:  E(RB3LYP) =  -1473.76234445     A.U. after   15 cycles

 Excitation energies and oscillator strengths:

 Excited state symmetry could not be determined.
 Excited State   1:      Triplet-?Sym    2.4168 eV  513.00 nm  f=0.0000  <S**2>=2.000
     124 ->128        -0.16106
     125 ->127        -0.24410
     126 ->127         0.54519
     126 ->128        -0.27764
 This state for optimization and/or second-order correction.
 Total Energy, E(TD-HF/TD-DFT) =  -1473.67352783
 Copying the excited state density for this state as the 1-particle RhoCI density.

 Excited state symmetry could not be determined.
 Excited State   2:      Triplet-?Sym    2.6801 eV  462.60 nm  f=0.0000  <S**2>=2.000
     124 ->127        -0.30447
     125 ->127        -0.28272
     125 ->128        -0.18102
     126 ->128         0.47919

 Excited state symmetry could not be determined.
 Excited State   3:      Singlet-?Sym    3.1593 eV  392.44 nm  f=0.5897  <S**2>=0.000
     126 ->127         0.69668

 Excited state symmetry could not be determined.
 Excited State   4:      Singlet-?Sym    3.6166 eV  342.82 nm  f=0.1950  <S**2>=0.000
     126 ->128         0.67518

 Alpha  occ. eigenvalues --  -14.41605 -14.34939 -14.31934 -14.31847 -14.31072
 Alpha  occ. eigenvalues --  -10.25459 -10.25005 -10.24392 -10.22936 -10.22428
 Alpha  occ. eigenvalues --  -10.22298 -10.22278 -10.21991 -10.21817 -10.21496
 Alpha  occ. eigenvalues --  -10.21047 -10.20747 -10.20451 -10.20291 -10.20163
 Alpha  occ. eigenvalues --  -10.20000 -10.19940 -10.19635 -10.19572 -10.19555
 Alpha  occ. eigenvalues --  -10.19213 -10.19133 -10.19070 -10.19052 -10.19000
 Alpha  occ. eigenvalues --  -10.18506 -10.18189 -10.18131 -10.18114 -10.18067
 Alpha  occ. eigenvalues --  -10.18048  -1.03168  -0.97034  -0.93868  -0.91502
 Alpha  occ. eigenvalues --   -0.90600  -0.85275  -0.84508  -0.84034  -0.81976
 Alpha  occ. eigenvalues --   -0.80598  -0.78420  -0.76750  -0.76005  -0.75788
 Alpha  occ. eigenvalues --   -0.73778  -0.72956  -0.72277  -0.70971  -0.70234
 Alpha  occ. eigenvalues --   -0.69769  -0.66624  -0.65009  -0.64240  -0.63048
 Alpha  occ. eigenvalues --   -0.62221  -0.61322  -0.60395  -0.59877  -0.58545
 Alpha  occ. eigenvalues --   -0.57483  -0.56912  -0.54382  -0.53126  -0.52451
 Alpha  occ. eigenvalues --   -0.51817  -0.51219  -0.50566  -0.49537  -0.48765
 Alpha  occ. eigenvalues --   -0.48525  -0.47411  -0.47305  -0.46637  -0.46320
 Alpha  occ. eigenvalues --   -0.46049  -0.44900  -0.43798  -0.43420  -0.43054
 Alpha  occ. eigenvalues --   -0.42952  -0.42687  -0.42589  -0.42055  -0.41200
 Alpha  occ. eigenvalues --   -0.41101  -0.40931  -0.40659  -0.40222  -0.39792
 Alpha  occ. eigenvalues --   -0.39492  -0.39169  -0.38949  -0.38693  -0.38406
 Alpha  occ. eigenvalues --   -0.37856  -0.37232  -0.36979  -0.35537  -0.35284
 Alpha  occ. eigenvalues --   -0.34737  -0.34297  -0.33927  -0.33605  -0.32997
 Alpha  occ. eigenvalues --   -0.32746  -0.32394  -0.31874  -0.31673  -0.31073
 Alpha  occ. eigenvalues --   -0.30783  -0.28129  -0.27013  -0.26921  -0.25168
 Alpha  occ. eigenvalues --   -0.24986  -0.24682  -0.24367  -0.23135  -0.21155
 Alpha  occ. eigenvalues --   -0.18752
 Alpha virt. eigenvalues --   -0.05562  -0.03940  -0.01463  -0.01356  -0.00916
 Alpha virt. eigenvalues --    0.01461   0.03296   0.06450   0.06951   0.08919
 Alpha virt. eigenvalues --    0.09118   0.09319   0.09787   0.10356   0.10601

 Mulliken charges:
               1
     1  C   -0.524492
     2  C    0.319254
     3  C   -0.246535
     4  C    0.099164
     5  C    0.199296
     6  C   -0.050612
     7  N   -0.518957
     8  C    0.531329
     9  C   -0.247144
    10  C    0.102359
    11  C    0.079247
    12  C   -0.008277
    13  N   -0.518050
    14  C    0.445877
    15  N   -0.499342
    16  C   -0.123525
    17  C   -0.314415
    18  C    0.061598
    19  C   -0.279740
    20  C   -0.275287
    21  C   -0.275286
    22  C   -0.284023
    23  C   -0.095287
    24  C    0.149063
    25  C   -0.536503
    26  C   -0.215029
    27  C   -0.227917
    28  C    0.059868
    29  N   -0.544839
    30  C    0.111708
    31  C   -0.202433
    32  C   -0.136298
    33  C   -0.132868
    34  C   -0.149292
    35  C    0.227617
    36  N   -0.553758
    37  H    0.162277
    38  H    0.157571
    39  H    0.178539
    40  H    0.138514
    41  H    0.152179
    42  H    0.155700
    43  H    0.133878
    44  H    0.148430
    45  H    0.148427
    46  H    0.140840
    47  H    0.145942
    48  H    0.129889
    49  H    0.144177
    50  H    0.141338
    51  H    0.138124
    52  H    0.142565
    53  H    0.137557
    54  H    0.133536
    55  H    0.134713
    56  H    0.147708
    57  H    0.154733
    58  H    0.158621
    59  H    0.161661
    60  H    0.167575
    61  H    0.136624
    62  H    0.150032
    63  H    0.176714
    64  H    0.146848
    65  H    0.133349
    66  H    0.133363
    67  H    0.142105
 Sum of Mulliken charges =  -0.00000

 Dipole moment (field-independent basis, Debye):
    X=              4.8128    Y=             -0.6329    Z=              0.4108  Tot=              4.8716
 Quadrupole moment (field-independent basis, Debye-Ang):
   XX=           -201.4177   YY=           -214.1817   ZZ=           -204.6968
   XY=              8.0486   XZ=             -4.3786   YZ=              3.9563

 Normal termination of Gaussian 16 at Fri Nov  4 20:55:38 2022.
