 Gaussian 16, Revision B.01,
 Gaussian 16:  ES64L-G16RevB.01 20-Dec-2017

 -----------------------------
 #p b3lyp/6-31g(d) opt SCF=XQC
 -----------------------------

 ------------------------------
 Gaussian input prepared by ASE
 ------------------------------
 Symbolic Z-matrix:
 Charge =  0 Multiplicity = 1

 SCF Done:  E(RB3LYP) =  -1400.38609318     A.U. after   15 cycles
 SCF Done:  E(RB3LYP) =  -1400.39250156     A.U. after   12 cycles
 SCF Done:  E(RB3LYP) =  -1400.39298274     A.U. after   11 cycles
 SCF Done:  E(RB3LYP) =  -1400.39307869     A.U. after   12 cycles
 SCF Done:  E(RB3LYP) =  -1400.39325594     A.U. after   10 cycles
 SCF Done:  E(RB3LYP) =  -1400.39333294     A.U. after   11 cycles
 SCF Done:  E(RB3LYP) =  -1400.39342535     A.U. after   12 cycles
 SCF Done:  E(RB3LYP) =  -1400.39345456     A.U. after   11 cycles
 SCF Done:  E(RB3LYP) =  -1400.39351427     A.U. after   12 cycles
 SCF Done:  E(RB3LYP) =  -1400.39363533     A.U. after   11 cycles
 SCF Done:  E(RB3LYP) =  -1400.39374201     A.U. after    9 cycles
 SCF Done:  E(RB3LYP) =  -1400.39374283     A.U. after    9 cycles
 SCF Done:  E(RB3LYP) =  -1400.39374366     A.U. after    9 cycles
 SCF Done:  E(RB3LYP) =  -1400.39374495     A.U. after    9 cycles
 SCF Done:  E(RB3LYP) =  -1400.39374560     A.U. after    9 cycles
 SCF Done:  E(RB3LYP) =  -1400.39374597     A.U. after    9 cycles
 SCF Done:  E(RB3LYP) =  -1400.39374612     A.U. after    7 cycles
 SCF Done:  E(RB3LYP) =  -1400.39374616     A.U. after    6 cycles
 SCF Done:  E(RB3LYP) =  -1400.39374619     A.U. after    6 cycles
 SCF Done:  E(RB3LYP) =  -1400.39374622     A.U. after    6 cycles
 Optimization completed.
    -- Stationary point found.

                         Standard orientation:
 ---------------------------------------------------------------------
 Center     Atomic      Atomic             Coordinates (Angstroms)
 Number     Number       Type             X           Y           Z
 ---------------------------------------------------------------------
      1          6           0        8.758101    0.927069    2.055873
      2          6           0        8.457146   -0.290229    1.211197
      3          6           0        9.400215   -1.305759    1.045349
      4          6           0        9.101618   -2.424163    0.258643
      5          6           0        7.867783   -2.541797   -0.366453
      6          6           0        6.913218   -1.525995   -0.205139
      7          8           0        5.726262   -1.725318   -0.857746
      8          6           0        4.699065   -0.750012   -0.730258
      9          6           0        3.508404   -1.242254   -1.547801
     10          6           0        2.325022   -0.262983   -1.582981
     11          6           0        1.603734   -0.108983   -0.232582
     12          7           0        0.455053    0.783200   -0.298536
     13          6           0       -0.875356    0.451583   -0.522765
     14          6           0       -1.333107   -0.972327   -0.673752
     15          6           0       -2.858217   -1.123342   -0.784811
     16          6           0       -3.599378   -0.829347    0.526702
     17          7           0       -5.007984   -1.186575    0.443528
     18          6           0       -6.021611   -0.296492    0.685228
     19          8           0       -5.821728    0.865540    1.025124
     20          6           0       -7.419616   -0.829109    0.501563
     21          6           0       -8.432354    0.105726    0.249242
     22          6           0       -9.748997   -0.310598    0.067634
     23          6           0      -10.073603   -1.667026    0.153448
     24          6           0       -9.075332   -2.603267    0.427258
     25          6           0       -7.754687   -2.186892    0.599746
     26          7           0       -1.661129    1.499218   -0.595307
     27          6           0       -0.831331    2.595999   -0.417725
     28          6           0       -1.140193    3.960744   -0.392957
     29          6           0       -0.100097    4.863254   -0.190665
     30          6           0        1.226628    4.424149   -0.013243
     31          6           0        1.554183    3.069550   -0.032815
     32          6           0        0.504693    2.170467   -0.235702
     33          6           0        7.207671   -0.407702    0.578662
     34          1           0        9.766727    0.879599    2.477603
     35          1           0        8.051650    1.020823    2.890304
     36          1           0        8.685151    1.850857    1.468221
     37          1           0       10.369764   -1.225200    1.529789
     38          1           0        9.841598   -3.210502    0.134111
     39          1           0        7.616853   -3.400948   -0.980470
     40          1           0        5.048597    0.222931   -1.108435
     41          1           0        4.437759   -0.622227    0.330367
     42          1           0        3.186596   -2.214651   -1.152107
     43          1           0        3.856809   -1.423736   -2.571109
     44          1           0        1.596393   -0.613046   -2.324231
     45          1           0        2.658832    0.725047   -1.925735
     46          1           0        1.261123   -1.086176    0.122697
     47          1           0        2.281157    0.283568    0.533654
     48          1           0       -0.967103   -1.571135    0.173819
     49          1           0       -0.863782   -1.407900   -1.567896
     50          1           0       -3.067513   -2.156868   -1.096336
     51          1           0       -3.238425   -0.461061   -1.568692
     52          1           0       -3.126745   -1.382197    1.353448
     53          1           0       -3.555730    0.234989    0.760729
     54          1           0       -5.244952   -2.081226    0.039253
     55          1           0       -8.160829    1.155198    0.203388
     56          1           0      -10.524555    0.422665   -0.136900
     57          1           0      -11.101630   -1.992007    0.016716
     58          1           0       -9.324877   -3.657266    0.515958
     59          1           0       -6.996710   -2.925245    0.849375
     60          1           0       -2.165928    4.290426   -0.526210
     61          1           0       -0.311750    5.928637   -0.167423
     62          1           0        2.013504    5.157240    0.141892
     63          1           0        2.580593    2.740154    0.103940
     64          1           0        6.477958    0.384998    0.708097
 ---------------------------------------------------------------------

 The electronic state is 1-A.
 Alpha  occ. eigenvalues --  -19.17930 -19.09902 -14.38770 -14.35197 -14.30848
 Alpha  occ. eigenvalues --  -10.27747 -10.25290 -10.25166 -10.24726 -10.24641
 Alpha  occ. eigenvalues --  -10.21669 -10.21069 -10.20983 -10.20787 -10.20317
 Alpha  occ. eigenvalues --  -10.20001 -10.19864 -10.19823 -10.19724 -10.19490
 Alpha  occ. eigenvalues --  -10.19433 -10.19282 -10.19134 -10.19114 -10.18897
 Alpha  occ. eigenvalues --  -10.18816 -10.18525 -10.18483 -10.18445 -10.18214
 Alpha  occ. eigenvalues --  -10.18005 -10.17964 -10.17886  -1.06585  -1.01861
 Alpha  occ. eigenvalues --   -1.01498  -0.91269  -0.89301  -0.85484  -0.85230
 Alpha  occ. eigenvalues --   -0.83974  -0.81545  -0.79993  -0.77323  -0.75948
 Alpha  occ. eigenvalues --   -0.75446  -0.74655  -0.73799  -0.73020  -0.72204
 Alpha  occ. eigenvalues --   -0.69591  -0.68941  -0.67022  -0.63772  -0.61593
 Alpha  occ. eigenvalues --   -0.61338  -0.60296  -0.59776  -0.59158  -0.58706
 Alpha  occ. eigenvalues --   -0.58321  -0.57339  -0.56260  -0.53620  -0.53123
 Alpha  occ. eigenvalues --   -0.52080  -0.50877  -0.49715  -0.49147  -0.48875
 Alpha  occ. eigenvalues --   -0.47632  -0.47273  -0.47022  -0.46599  -0.45849
 Alpha  occ. eigenvalues --   -0.44928  -0.44088  -0.43996  -0.43582  -0.43331
 Alpha  occ. eigenvalues --   -0.42818  -0.42596  -0.42213  -0.42021  -0.41494
 Alpha  occ. eigenvalues --   -0.40999  -0.40744  -0.40380  -0.39610  -0.39376
 Alpha  occ. eigenvalues --   -0.38716  -0.38124  -0.37759  -0.37499  -0.36875
 Alpha  occ. eigenvalues --   -0.36275  -0.35719  -0.35595  -0.35520  -0.35481
 Alpha  occ. eigenvalues --   -0.34868  -0.34693  -0.34519  -0.34286  -0.34048
 Alpha  occ. eigenvalues --   -0.32546  -0.32355  -0.31287  -0.29055  -0.26524
 Alpha  occ. eigenvalues --   -0.25425  -0.25271  -0.24318  -0.24168  -0.23719
 Alpha  occ. eigenvalues --   -0.21989  -0.21850  -0.21708
 Alpha virt. eigenvalues --   -0.02637  -0.01050  -0.00303  -0.00100   0.01588
 Alpha virt. eigenvalues --    0.02473   0.05130   0.06121   0.06877   0.07669
 Alpha virt. eigenvalues --    0.08095   0.09436   0.09595   0.10007   0.10598

 Mulliken charges:
               1
     1  C   -0.529643
     2  C    0.172513
     3  C   -0.188372
     4  C   -0.129742
     5  C   -0.177739
     6  C    0.380379
     7  O   -0.527807
     8  C   -0.026947
     9  C   -0.283507
    10  C   -0.276824
    11  C   -0.163256
    12  N   -0.562693
    13  C    0.507414
    14  C   -0.375200
    15  C   -0.259635
    16  C   -0.125096
    17  N   -0.619563
    18  C    0.554645
    19  O   -0.516485
    20  C    0.071294
    21  C   -0.155013
    22  C   -0.135626
    23  C   -0.121939
    24  C   -0.133836
    25  C   -0.186475
    26  N   -0.555440
    27  C    0.228366
    28  C   -0.178546
    29  C   -0.144198
    30  C   -0.149545
    31  C   -0.177067
    32  C    0.333878
    33  C   -0.247775
    34  H    0.156724
    35  H    0.160822
    36  H    0.160985
    37  H    0.118797
    38  H    0.129310
    39  H    0.133622
    40  H    0.140094
    41  H    0.137905
    42  H    0.149598
    43  H    0.161318
    44  H    0.153656
    45  H    0.157260
    46  H    0.160471
    47  H    0.164850
    48  H    0.154612
    49  H    0.161323
    50  H    0.119453
    51  H    0.177787
    52  H    0.132034
    53  H    0.224515
    54  H    0.318688
    55  H    0.164346
    56  H    0.135763
    57  H    0.133249
    58  H    0.131583
    59  H    0.125362
    60  H    0.144619
    61  H    0.125333
    62  H    0.124041
    63  H    0.119770
    64  H    0.121589
 Sum of Mulliken charges =  -0.00000

 Dipole moment (field-independent basis, Debye):
    X=              2.3449    Y=             -3.9116    Z=             -1.0314  Tot=              4.6758
 Quadrupole moment (field-independent basis, Debye-Ang):
   XX=           -184.3149   YY=           -184.9183   ZZ=           -198.8149
   XY=             25.5633   XZ=             12.6144   YZ=              0.6653

 Normal termination of Gaussian 16 at Fri Nov  4 22:50:32 2022.
