 Gaussian 16, Revision B.01,
 Gaussian 16:  ES64L-G16RevB.01 20-Dec-2017

 -------------------------------------------------------------------
 #p b3lyp/6-31g(d) 6D 10F nosymm GFInput td=(50-50,nstate=2) SCF=XQC
 -------------------------------------------------------------------

 ------------------------------
 Gaussian input prepared by ASE
 ------------------------------
 Symbolic Z-matrix:
 Charge =  0 Multiplicity = 1

                          Input orientation:
 ---------------------------------------------------------------------
 Center     Atomic      Atomic             Coordinates (Angstroms)
 Number     Number       Type             X           Y           Z
 ---------------------------------------------------------------------
      1          6           0       -8.568480    1.772559    0.675772
      2          6           0       -8.090505    1.505905   -0.733591
      3          6           0       -8.886822    1.815369   -1.837357
      4          6           0       -8.425555    1.559918   -3.133841
      5          6           0       -7.173684    0.997633   -3.342611
      6          6           0       -6.365913    0.683527   -2.239018
      7          8           0       -5.149069    0.132233   -2.538781
      8          6           0       -4.263221   -0.198200   -1.476381
      9          6           0       -3.000289   -0.776416   -2.108062
     10          6           0       -1.956650   -1.261714   -1.090267
     11          6           0       -1.291744   -0.127377   -0.291060
     12          7           0       -0.270278   -0.602818    0.631097
     13          6           0        1.096913   -0.715232    0.411130
     14          6           0        1.742525   -0.271654   -0.871944
     15          6           0        3.276251   -0.364174   -0.856956
     16          6           0        3.943143    0.675466    0.054208
     17          7           0        5.388143    0.698921   -0.119358
     18          6           0        6.269350    0.508318    0.912753
     19          8           0        5.909861    0.336599    2.073391
     20          6           0        7.729281    0.514543    0.538059
     21          6           0        8.614445   -0.142929    1.402603
     22          6           0        9.978293   -0.180663    1.122694
     23          6           0       10.477861    0.454235   -0.017467
     24          6           0        9.606751    1.131266   -0.872371
     25          6           0        8.239129    1.160850   -0.596767
     26          7           0        1.738300   -1.248722    1.423183
     27          6           0        0.766789   -1.517560    2.375507
     28          6           0        0.891437   -2.078521    3.651565
     29          6           0       -0.263258   -2.235884    4.412593
     30          6           0       -1.523631   -1.842881    3.921170
     31          6           0       -1.668261   -1.280787    2.653990
     32          6           0       -0.504699   -1.125740    1.897004
     33          6           0       -6.822995    0.936239   -0.943319
     34          1           0       -9.570867    2.211463    0.679916
     35          1           0       -7.899044    2.464650    1.202085
     36          1           0       -8.605814    0.849488    1.267876
     37          1           0       -9.868822    2.256061   -1.686816
     38          1           0       -9.051898    1.803417   -3.988131
     39          1           0       -6.797775    0.791842   -4.339840
     40          1           0       -4.730290   -0.936600   -0.806739
     41          1           0       -4.044338    0.700889   -0.882018
     42          1           0       -2.561147   -0.021353   -2.773437
     43          1           0       -3.299178   -1.615991   -2.746233
     44          1           0       -1.172070   -1.813649   -1.621960
     45          1           0       -2.410911   -1.974875   -0.390153
     46          1           0       -0.830470    0.592285   -0.975037
     47          1           0       -2.031758    0.427558    0.295918
     48          1           0        1.440725    0.761510   -1.100844
     49          1           0        1.354671   -0.883147   -1.699670
     50          1           0        3.627419   -0.220945   -1.889040
     51          1           0        3.582326   -1.366692   -0.542444
     52          1           0        3.530042    1.674322   -0.155963
     53          1           0        3.753728    0.443033    1.102818
     54          1           0        5.750348    0.698782   -1.062119
     55          1           0        8.207289   -0.614781    2.290747
     56          1           0       10.654100   -0.701693    1.795607
     57          1           0       11.542624    0.429333   -0.233816
     58          1           0        9.991792    1.644677   -1.749415
     59          1           0        7.580435    1.724287   -1.253023
     60          1           0        1.867088   -2.374699    4.024342
     61          1           0       -0.195229   -2.669187    5.406574
     62          1           0       -2.403919   -1.981129    4.542978
     63          1           0       -2.644695   -0.981528    2.282854
     64          1           0       -6.207776    0.694891   -0.082585
 ---------------------------------------------------------------------

 SCF Done:  E(RB3LYP) =  -1400.39374604     A.U. after   15 cycles

 Excitation energies and oscillator strengths:

 Excited state symmetry could not be determined.
 Excited State   1:      Triplet-?Sym    3.4883 eV  355.42 nm  f=0.0000  <S**2>=2.000
     116 ->120        -0.12818
     116 ->124         0.22577
     118 ->120         0.63806
 This state for optimization and/or second-order correction.
 Total Energy, E(TD-HF/TD-DFT) =  -1400.26555182
 Copying the excited state density for this state as the 1-particle RhoCI density.

 Excited state symmetry could not be determined.
 Excited State   2:      Triplet-?Sym    3.5954 eV  344.84 nm  f=0.0000  <S**2>=2.000
     111 ->119        -0.33404
     111 ->121        -0.24900
     112 ->119         0.28529
     112 ->121        -0.26721
     114 ->119        -0.16054
     115 ->119        -0.35368
     115 ->121         0.10942

 Excited state symmetry could not be determined.
 Excited State   3:      Singlet-?Sym    4.5683 eV  271.40 nm  f=0.0084  <S**2>=0.000
     111 ->119        -0.11045
     112 ->119         0.21661
     114 ->119         0.11958
     115 ->119         0.63662
     115 ->127        -0.10517

 Excited state symmetry could not be determined.
 Excited State   4:      Singlet-?Sym    4.8346 eV  256.45 nm  f=0.0001  <S**2>=0.000
     118 ->119         0.70437

 Alpha  occ. eigenvalues --  -19.17930 -19.09902 -14.38770 -14.35197 -14.30848
 Alpha  occ. eigenvalues --  -10.27747 -10.25290 -10.25166 -10.24726 -10.24641
 Alpha  occ. eigenvalues --  -10.21669 -10.21069 -10.20983 -10.20787 -10.20316
 Alpha  occ. eigenvalues --  -10.20001 -10.19864 -10.19823 -10.19724 -10.19490
 Alpha  occ. eigenvalues --  -10.19433 -10.19282 -10.19134 -10.19114 -10.18897
 Alpha  occ. eigenvalues --  -10.18816 -10.18525 -10.18483 -10.18445 -10.18214
 Alpha  occ. eigenvalues --  -10.18005 -10.17964 -10.17886  -1.06585  -1.01861
 Alpha  occ. eigenvalues --   -1.01498  -0.91269  -0.89301  -0.85484  -0.85229
 Alpha  occ. eigenvalues --   -0.83974  -0.81545  -0.79993  -0.77323  -0.75948
 Alpha  occ. eigenvalues --   -0.75446  -0.74655  -0.73799  -0.73020  -0.72204
 Alpha  occ. eigenvalues --   -0.69591  -0.68941  -0.67022  -0.63772  -0.61593
 Alpha  occ. eigenvalues --   -0.61338  -0.60296  -0.59776  -0.59158  -0.58706
 Alpha  occ. eigenvalues --   -0.58321  -0.57339  -0.56260  -0.53620  -0.53123
 Alpha  occ. eigenvalues --   -0.52080  -0.50877  -0.49715  -0.49147  -0.48875
 Alpha  occ. eigenvalues --   -0.47632  -0.47273  -0.47022  -0.46599  -0.45849
 Alpha  occ. eigenvalues --   -0.44928  -0.44088  -0.43996  -0.43582  -0.43331
 Alpha  occ. eigenvalues --   -0.42818  -0.42596  -0.42213  -0.42021  -0.41494
 Alpha  occ. eigenvalues --   -0.40999  -0.40744  -0.40380  -0.39610  -0.39376
 Alpha  occ. eigenvalues --   -0.38716  -0.38124  -0.37759  -0.37499  -0.36875
 Alpha  occ. eigenvalues --   -0.36275  -0.35719  -0.35595  -0.35520  -0.35481
 Alpha  occ. eigenvalues --   -0.34868  -0.34693  -0.34519  -0.34286  -0.34048
 Alpha  occ. eigenvalues --   -0.32546  -0.32355  -0.31287  -0.29055  -0.26524
 Alpha  occ. eigenvalues --   -0.25426  -0.25271  -0.24318  -0.24168  -0.23719
 Alpha  occ. eigenvalues --   -0.21989  -0.21850  -0.21708
 Alpha virt. eigenvalues --   -0.02637  -0.01050  -0.00303  -0.00100   0.01588
 Alpha virt. eigenvalues --    0.02473   0.05130   0.06121   0.06877   0.07669
 Alpha virt. eigenvalues --    0.08095   0.09436   0.09595   0.10007   0.10598

 Mulliken charges:
               1
     1  C   -0.529644
     2  C    0.172532
     3  C   -0.188382
     4  C   -0.129744
     5  C   -0.177737
     6  C    0.380390
     7  O   -0.527810
     8  C   -0.026946
     9  C   -0.283516
    10  C   -0.276802
    11  C   -0.163249
    12  N   -0.562687
    13  C    0.507415
    14  C   -0.375191
    15  C   -0.259643
    16  C   -0.125087
    17  N   -0.619564
    18  C    0.554656
    19  O   -0.516494
    20  C    0.071302
    21  C   -0.155026
    22  C   -0.135622
    23  C   -0.121935
    24  C   -0.133841
    25  C   -0.186476
    26  N   -0.555437
    27  C    0.228377
    28  C   -0.178553
    29  C   -0.144195
    30  C   -0.149549
    31  C   -0.177052
    32  C    0.333839
    33  C   -0.247794
    34  H    0.156725
    35  H    0.160822
    36  H    0.160986
    37  H    0.118798
    38  H    0.129309
    39  H    0.133622
    40  H    0.140095
    41  H    0.137903
    42  H    0.149598
    43  H    0.161318
    44  H    0.153650
    45  H    0.157256
    46  H    0.160468
    47  H    0.164847
    48  H    0.154612
    49  H    0.161323
    50  H    0.119454
    51  H    0.177787
    52  H    0.132032
    53  H    0.224513
    54  H    0.318689
    55  H    0.164347
    56  H    0.135762
    57  H    0.133248
    58  H    0.131584
    59  H    0.125362
    60  H    0.144621
    61  H    0.125334
    62  H    0.124042
    63  H    0.119768
    64  H    0.121591
 Sum of Mulliken charges =  -0.00000

 Dipole moment (field-independent basis, Debye):
    X=             -1.7827    Y=              0.7893    Z=             -4.2499  Tot=              4.6758
 Quadrupole moment (field-independent basis, Debye-Ang):
   XX=           -178.0600   YY=           -196.8381   ZZ=           -195.1250
   XY=             -0.4148   XZ=            -28.7574   YZ=             -3.7755

 Normal termination of Gaussian 16 at Fri Nov  4 20:58:42 2022.
