 Gaussian 16, Revision B.01,
 Gaussian 16:  ES64L-G16RevB.01 20-Dec-2017

 -----------------------------
 #p b3lyp/6-31g(d) opt SCF=XQC
 -----------------------------

 ------------------------------
 Gaussian input prepared by ASE
 ------------------------------
 Symbolic Z-matrix:
 Charge =  0 Multiplicity = 1

 SCF Done:  E(RB3LYP) =  -1487.25603822     A.U. after   15 cycles
 SCF Done:  E(RB3LYP) =  -1487.25974643     A.U. after   15 cycles
 SCF Done:  E(RB3LYP) =  -1487.26385306     A.U. after   14 cycles
 SCF Done:  E(RB3LYP) =  -1487.26363173     A.U. after   14 cycles
 SCF Done:  E(RB3LYP) =  -1487.26474523     A.U. after   13 cycles
 SCF Done:  E(RB3LYP) =  -1487.26463077     A.U. after   14 cycles
 SCF Done:  E(RB3LYP) =  -1487.26579960     A.U. after   12 cycles
 SCF Done:  E(RB3LYP) =  -1487.26659923     A.U. after   12 cycles
 SCF Done:  E(RB3LYP) =  -1487.26676113     A.U. after   12 cycles
 SCF Done:  E(RB3LYP) =  -1487.26682047     A.U. after   11 cycles
 SCF Done:  E(RB3LYP) =  -1487.26763146     A.U. after   10 cycles
 SCF Done:  E(RB3LYP) =  -1487.26763206     A.U. after    9 cycles
 SCF Done:  E(RB3LYP) =  -1487.26763224     A.U. after    9 cycles
 SCF Done:  E(RB3LYP) =  -1487.26763270     A.U. after    9 cycles
 SCF Done:  E(RB3LYP) =  -1487.26763295     A.U. after    9 cycles
 SCF Done:  E(RB3LYP) =  -1487.26763313     A.U. after    9 cycles
 SCF Done:  E(RB3LYP) =  -1487.26763334     A.U. after    9 cycles
 SCF Done:  E(RB3LYP) =  -1487.26763338     A.U. after    9 cycles
 SCF Done:  E(RB3LYP) =  -1487.26763339     A.U. after    7 cycles
 SCF Done:  E(RB3LYP) =  -1487.26763340     A.U. after    6 cycles
 Optimization completed on the basis of negligible forces.
    -- Stationary point found.

                         Standard orientation:
 ---------------------------------------------------------------------
 Center     Atomic      Atomic             Coordinates (Angstroms)
 Number     Number       Type             X           Y           Z
 ---------------------------------------------------------------------
      1          6           0        9.282950    1.609380   -1.150431
      2          6           0        8.770378    1.132650    0.212387
      3          6           0        7.688850    0.048994    0.108696
      4          6           0        7.173929   -0.425544    1.474607
      5          6           0        6.159605   -1.581838    1.413986
      6          6           0        4.833794   -1.281116    0.691611
      7          6           0        3.985429   -0.185513    1.355697
      8          6           0        2.583904   -0.003474    0.746532
      9          6           0        2.579410    0.564950   -0.681493
     10          6           0        1.186097    0.634569   -1.330044
     11          6           0        0.203229    1.582829   -0.631532
     12          6           0       -1.159274    1.612072   -1.338204
     13          7           0       -2.116135    2.517869   -0.708621
     14          6           0       -3.077536    2.215906    0.244763
     15          6           0       -3.347401    0.806771    0.691964
     16          6           0       -4.108855    0.748262    2.026304
     17          6           0       -4.515433   -0.670798    2.476251
     18          6           0       -3.499765   -1.433678    3.346509
     19          6           0       -2.186733   -1.867586    2.679242
     20          7           0       -2.395641   -2.781535    1.561550
     21          6           0       -1.774609   -2.658918    0.350291
     22          8           0       -0.998946   -1.734479    0.093766
     23          6           0       -2.126125   -3.726207   -0.652139
     24          6           0       -3.459851   -4.147033   -0.768286
     25          6           0       -3.833602   -5.111881   -1.701556
     26          6           0       -2.860092   -5.675878   -2.523844
     27          6           0       -1.532509   -5.262438   -2.411428
     28          6           0       -1.136123   -4.281332   -1.493942
     29          6           0        0.316281   -3.866967   -1.436200
     30          7           0       -3.733274    3.273017    0.670619
     31          6           0       -3.187389    4.343495   -0.020106
     32          6           0       -3.505238    5.705756    0.034383
     33          6           0       -2.792179    6.580040   -0.781185
     34          6           0       -1.777236    6.115433   -1.640643
     35          6           0       -1.444612    4.763658   -1.709536
     36          6           0       -2.165606    3.892700   -0.889084
     37          1           0        8.470447    2.033305   -1.753534
     38          1           0       10.053773    2.381015   -1.041644
     39          1           0        9.719629    0.780757   -1.721709
     40          1           0        9.611899    0.748062    0.806242
     41          1           0        8.370800    1.989737    0.773191
     42          1           0        8.091132   -0.812009   -0.446838
     43          1           0        6.854945    0.435612   -0.494022
     44          1           0        8.031694   -0.752451    2.079884
     45          1           0        6.737595    0.427188    2.013306
     46          1           0        6.638330   -2.442626    0.924946
     47          1           0        5.934308   -1.903666    2.441088
     48          1           0        5.036949   -1.018583   -0.354491
     49          1           0        4.242886   -2.208141    0.657963
     50          1           0        3.875222   -0.429571    2.422516
     51          1           0        4.518154    0.775460    1.319969
     52          1           0        2.007714    0.662822    1.401703
     53          1           0        2.051445   -0.965973    0.752919
     54          1           0        3.033439    1.567656   -0.673480
     55          1           0        3.220806   -0.053360   -1.323085
     56          1           0        0.746784   -0.371295   -1.346920
     57          1           0        1.300795    0.948009   -2.378299
     58          1           0        0.615602    2.600401   -0.593934
     59          1           0        0.044774    1.265860    0.405494
     60          1           0       -1.043720    1.926152   -2.382672
     61          1           0       -1.588855    0.607001   -1.350982
     62          1           0       -2.407404    0.249027    0.742525
     63          1           0       -3.944560    0.298497   -0.082154
     64          1           0       -3.510435    1.233485    2.808803
     65          1           0       -5.004736    1.367705    1.921774
     66          1           0       -5.436800   -0.591550    3.067267
     67          1           0       -4.777300   -1.278426    1.598516
     68          1           0       -3.992138   -2.329694    3.753899
     69          1           0       -3.236248   -0.818186    4.217747
     70          1           0       -1.545423   -2.350486    3.430677
     71          1           0       -1.626285   -1.018670    2.286334
     72          1           0       -2.906111   -3.635528    1.740598
     73          1           0       -4.219181   -3.688640   -0.140133
     74          1           0       -4.873370   -5.415034   -1.785782
     75          1           0       -3.130343   -6.434513   -3.253518
     76          1           0       -0.777937   -5.710474   -3.053527
     77          1           0        0.938882   -4.588175   -1.975127
     78          1           0        0.684341   -3.791875   -0.408663
     79          1           0        0.461932   -2.880615   -1.888005
     80          1           0       -4.289627    6.057111    0.698260
     81          1           0       -3.019974    7.642366   -0.757309
     82          1           0       -1.240163    6.826040   -2.263228
     83          1           0       -0.658887    4.413070   -2.372963
 ---------------------------------------------------------------------

 The electronic state is 1-A.
 Alpha  occ. eigenvalues --  -19.12204 -14.37046 -14.36982 -14.29288 -10.29697
 Alpha  occ. eigenvalues --  -10.23657 -10.22667 -10.22022 -10.21245 -10.20866
 Alpha  occ. eigenvalues --  -10.20575 -10.20249 -10.20228 -10.20054 -10.19772
 Alpha  occ. eigenvalues --  -10.19419 -10.18715 -10.18589 -10.18450 -10.18316
 Alpha  occ. eigenvalues --  -10.17822 -10.17723 -10.17627 -10.17529 -10.17367
 Alpha  occ. eigenvalues --  -10.17268 -10.17268 -10.17261 -10.17240 -10.17226
 Alpha  occ. eigenvalues --  -10.17181 -10.17161 -10.16956 -10.16944 -10.16936
 Alpha  occ. eigenvalues --  -10.16835  -1.03810  -0.99838  -0.92977  -0.87462
 Alpha  occ. eigenvalues --   -0.86752  -0.82682  -0.80710  -0.80427  -0.79480
 Alpha  occ. eigenvalues --   -0.78015  -0.77532  -0.77354  -0.75718  -0.75030
 Alpha  occ. eigenvalues --   -0.72861  -0.71926  -0.71404  -0.69576  -0.68747
 Alpha  occ. eigenvalues --   -0.68324  -0.65008  -0.64338  -0.62763  -0.62509
 Alpha  occ. eigenvalues --   -0.60217  -0.59467  -0.59029  -0.58525  -0.58183
 Alpha  occ. eigenvalues --   -0.57833  -0.56893  -0.56139  -0.54680  -0.54258
 Alpha  occ. eigenvalues --   -0.53427  -0.49982  -0.49447  -0.49135  -0.47993
 Alpha  occ. eigenvalues --   -0.47579  -0.46984  -0.46889  -0.46225  -0.45911
 Alpha  occ. eigenvalues --   -0.45628  -0.45116  -0.44697  -0.44061  -0.43483
 Alpha  occ. eigenvalues --   -0.43139  -0.42628  -0.42463  -0.42227  -0.42039
 Alpha  occ. eigenvalues --   -0.41780  -0.41415  -0.41231  -0.40502  -0.40008
 Alpha  occ. eigenvalues --   -0.39834  -0.39629  -0.39305  -0.38797  -0.38148
 Alpha  occ. eigenvalues --   -0.37915  -0.37674  -0.37372  -0.36825  -0.36499
 Alpha  occ. eigenvalues --   -0.36055  -0.35791  -0.35382  -0.35267  -0.35060
 Alpha  occ. eigenvalues --   -0.34693  -0.34505  -0.33700  -0.33561  -0.33154
 Alpha  occ. eigenvalues --   -0.33058  -0.32526  -0.32460  -0.32103  -0.31733
 Alpha  occ. eigenvalues --   -0.31646  -0.30935  -0.30851  -0.30118  -0.29967
 Alpha  occ. eigenvalues --   -0.29621  -0.27518  -0.26856  -0.25945  -0.25606
 Alpha  occ. eigenvalues --   -0.25025  -0.24989  -0.20628  -0.20363
 Alpha virt. eigenvalues --   -0.03547  -0.01150   0.00235   0.03745   0.04186
 Alpha virt. eigenvalues --    0.06456   0.06934   0.08275   0.08574   0.08780
 Alpha virt. eigenvalues --    0.09573   0.09808   0.10643   0.10852   0.10919

 Mulliken charges:
               1
     1  C   -0.441547
     2  C   -0.246679
     3  C   -0.247184
     4  C   -0.255757
     5  C   -0.258115
     6  C   -0.257242
     7  C   -0.256244
     8  C   -0.260547
     9  C   -0.258091
    10  C   -0.280153
    11  C   -0.256180
    12  C   -0.175562
    13  N   -0.562355
    14  C    0.503916
    15  C   -0.385152
    16  C   -0.253106
    17  C   -0.262670
    18  C   -0.275515
    19  C   -0.129879
    20  N   -0.594217
    21  C    0.545040
    22  O   -0.537569
    23  C    0.021584
    24  C   -0.186062
    25  C   -0.135098
    26  C   -0.115402
    27  C   -0.189879
    28  C    0.142078
    29  C   -0.518171
    30  N   -0.572277
    31  C    0.230194
    32  C   -0.184223
    33  C   -0.144315
    34  C   -0.152204
    35  C   -0.176024
    36  C    0.331992
    37  H    0.140808
    38  H    0.141001
    39  H    0.140333
    40  H    0.129172
    41  H    0.130037
    42  H    0.124144
    43  H    0.131662
    44  H    0.125648
    45  H    0.132254
    46  H    0.124059
    47  H    0.124548
    48  H    0.136798
    49  H    0.123904
    50  H    0.123630
    51  H    0.130344
    52  H    0.130153
    53  H    0.139280
    54  H    0.123972
    55  H    0.130373
    56  H    0.171123
    57  H    0.119416
    58  H    0.140869
    59  H    0.153761
    60  H    0.152334
    61  H    0.183088
    62  H    0.186757
    63  H    0.156255
    64  H    0.140323
    65  H    0.169215
    66  H    0.137784
    67  H    0.130864
    68  H    0.125430
    69  H    0.144935
    70  H    0.148168
    71  H    0.190029
    72  H    0.326421
    73  H    0.139145
    74  H    0.135712
    75  H    0.136428
    76  H    0.130750
    77  H    0.145347
    78  H    0.165224
    79  H    0.189260
    80  H    0.130184
    81  H    0.118129
    82  H    0.119150
    83  H    0.124394
 Sum of Mulliken charges =  -0.00000

 Dipole moment (field-independent basis, Debye):
    X=              0.3485    Y=             -5.9908    Z=              0.1835  Tot=              6.0037
 Quadrupole moment (field-independent basis, Debye-Ang):
   XX=           -221.9734   YY=           -215.6991   ZZ=           -211.9125
   XY=             23.5811   XZ=             -4.2253   YZ=             -2.7150

 Normal termination of Gaussian 16 at Sat Nov  5 00:09:06 2022.
