 Gaussian 16, Revision B.01,
 Gaussian 16:  ES64L-G16RevB.01 20-Dec-2017

 -------------------------------------------------------------------
 #p b3lyp/6-31g(d) 6D 10F nosymm GFInput td=(50-50,nstate=2) SCF=XQC
 -------------------------------------------------------------------

 ------------------------------
 Gaussian input prepared by ASE
 ------------------------------
 Symbolic Z-matrix:
 Charge =  0 Multiplicity = 1

                          Input orientation:
 ---------------------------------------------------------------------
 Center     Atomic      Atomic             Coordinates (Angstroms)
 Number     Number       Type             X           Y           Z
 ---------------------------------------------------------------------
      1          6           0       -8.167453   -1.551966    3.206058
      2          6           0       -7.706227   -2.227960    1.910844
      3          6           0       -6.243166   -2.688725    1.954556
      4          6           0       -5.781383   -3.362999    0.655266
      5          6           0       -4.349681   -3.926996    0.696230
      6          6           0       -3.223557   -2.898584    0.906583
      7          6           0       -3.094743   -1.861606   -0.219987
      8          6           0       -1.864617   -0.943629   -0.107726
      9          6           0       -1.907720    0.036673    1.075292
     10          6           0       -0.626447    0.869336    1.253605
     11          6           0       -0.317037    1.821918    0.091709
     12          6           0        0.965010    2.628198    0.342554
     13          7           0        1.281999    3.558254   -0.737696
     14          6           0        2.115613    3.349638   -1.826724
     15          6           0        2.938497    2.101275   -1.978156
     16          6           0        3.426472    1.889255   -3.420593
     17          6           0        4.372763    0.685338   -3.611921
     18          6           0        3.709593   -0.665628   -3.937515
     19          6           0        2.868207   -1.321137   -2.833002
     20          7           0        3.645838   -1.629931   -1.637963
     21          6           0        3.231731   -1.350647   -0.365808
     22          8           0        2.164309   -0.780221   -0.126495
     23          6           0        4.187506   -1.773749    0.718172
     24          6           0        5.563951   -1.566517    0.539669
     25          6           0        6.480916   -1.917593    1.528373
     26          6           0        6.019714   -2.496449    2.709131
     27          6           0        4.652632   -2.706258    2.891090
     28          6           0        3.710768   -2.344788    1.919643
     29          6           0        2.242742   -2.584038    2.188287
     30          7           0        2.130655    4.360478   -2.667439
     31          6           0        1.261759    5.296123   -2.128362
     32          6           0        0.896743    6.562308   -2.600899
     33          6           0       -0.007619    7.308298   -1.850164
     34          6           0       -0.545534    6.810619   -0.647001
     35          6           0       -0.196088    5.552531   -0.159372
     36          6           0        0.712903    4.810806   -0.917741
     37          1           0       -7.564400   -0.662137    3.425463
     38          1           0       -9.215186   -1.236251    3.142783
     39          1           0       -8.075657   -2.231624    4.062388
     40          1           0       -8.351479   -3.092521    1.698919
     41          1           0       -7.842024   -1.535053    1.068110
     42          1           0       -6.108709   -3.387857    2.794146
     43          1           0       -5.604150   -1.822365    2.176408
     44          1           0       -6.469378   -4.188803    0.423533
     45          1           0       -5.879738   -2.651667   -0.176642
     46          1           0       -4.292104   -4.679082    1.496446
     47          1           0       -4.159897   -4.467983   -0.242166
     48          1           0       -3.363550   -2.392782    1.870476
     49          1           0       -2.271840   -3.443487    0.990229
     50          1           0       -3.047547   -2.395462   -1.180499
     51          1           0       -4.000958   -1.240856   -0.264549
     52          1           0       -1.772011   -0.376287   -1.043002
     53          1           0       -0.953455   -1.555622   -0.035558
     54          1           0       -2.771396    0.708802    0.957255
     55          1           0       -2.081580   -0.520198    2.005347
     56          1           0        0.227216    0.191792    1.384888
     57          1           0       -0.712669    1.454069    2.181447
     58          1           0       -1.155813    2.512865   -0.069425
     59          1           0       -0.189309    1.255304   -0.837610
     60          1           0        0.877167    3.211827    1.266986
     61          1           0        1.809194    1.946077    0.472683
     62          1           0        2.370686    1.238653   -1.616628
     63          1           0        3.813581    2.171814   -1.312233
     64          1           0        2.559739    1.795691   -4.088329
     65          1           0        3.935327    2.805725   -3.734265
     66          1           0        5.049274    0.911024   -4.446125
     67          1           0        5.017498    0.575109   -2.728535
     68          1           0        4.493800   -1.375680   -4.240976
     69          1           0        3.060751   -0.547104   -4.816312
     70          1           0        2.419278   -2.245122   -3.225225
     71          1           0        2.044353   -0.683015   -2.511752
     72          1           0        4.461044   -2.217996   -1.745486
     73          1           0        5.917099   -1.094699   -0.373544
     74          1           0        7.541429   -1.737006    1.377330
     75          1           0        6.719476   -2.783224    3.489568
     76          1           0        4.300936   -3.162554    3.813321
     77          1           0        2.117516   -3.256672    3.042744
     78          1           0        1.730391   -3.020930    1.325987
     79          1           0        1.725591   -1.645127    2.410170
     80          1           0        1.316107    6.940489   -3.528564
     81          1           0       -0.306934    8.294244   -2.195591
     82          1           0       -1.249673    7.419731   -0.086473
     83          1           0       -0.617042    5.174322    0.768080
 ---------------------------------------------------------------------

 SCF Done:  E(RB3LYP) =  -1487.26763799     A.U. after   15 cycles

 Excitation energies and oscillator strengths:

 Excited state symmetry could not be determined.
 Excited State   1:      Triplet-?Sym    3.4961 eV  354.64 nm  f=0.0000  <S**2>=2.000
     127 ->137         0.10383
     133 ->137        -0.16393
     133 ->138         0.21117
     134 ->137         0.62980
 This state for optimization and/or second-order correction.
 Total Energy, E(TD-HF/TD-DFT) =  -1487.13916024
 Copying the excited state density for this state as the 1-particle RhoCI density.

 Excited state symmetry could not be determined.
 Excited State   2:      Triplet-?Sym    3.5935 eV  345.02 nm  f=0.0000  <S**2>=2.000
     128 ->135        -0.25785
     129 ->135         0.21500
     129 ->136         0.20012
     130 ->135         0.10434
     130 ->136         0.21560
     132 ->135         0.43430
     132 ->136        -0.27463

 Excited state symmetry could not be determined.
 Excited State   3:      Singlet-?Sym    4.2218 eV  293.67 nm  f=0.0006  <S**2>=0.000
     134 ->135         0.70467

 Excited state symmetry could not be determined.
 Excited State   4:      Singlet-?Sym    4.2902 eV  288.99 nm  f=0.0001  <S**2>=0.000
     133 ->135         0.70445

 Alpha  occ. eigenvalues --  -19.12204 -14.37047 -14.36982 -14.29288 -10.29697
 Alpha  occ. eigenvalues --  -10.23657 -10.22667 -10.22022 -10.21245 -10.20866
 Alpha  occ. eigenvalues --  -10.20575 -10.20249 -10.20228 -10.20054 -10.19772
 Alpha  occ. eigenvalues --  -10.19419 -10.18715 -10.18589 -10.18450 -10.18316
 Alpha  occ. eigenvalues --  -10.17822 -10.17723 -10.17627 -10.17529 -10.17367
 Alpha  occ. eigenvalues --  -10.17268 -10.17268 -10.17261 -10.17240 -10.17226
 Alpha  occ. eigenvalues --  -10.17181 -10.17161 -10.16956 -10.16944 -10.16936
 Alpha  occ. eigenvalues --  -10.16835  -1.03810  -0.99838  -0.92977  -0.87462
 Alpha  occ. eigenvalues --   -0.86752  -0.82683  -0.80710  -0.80427  -0.79480
 Alpha  occ. eigenvalues --   -0.78015  -0.77532  -0.77354  -0.75718  -0.75030
 Alpha  occ. eigenvalues --   -0.72861  -0.71926  -0.71404  -0.69576  -0.68747
 Alpha  occ. eigenvalues --   -0.68324  -0.65008  -0.64338  -0.62763  -0.62509
 Alpha  occ. eigenvalues --   -0.60217  -0.59467  -0.59029  -0.58525  -0.58183
 Alpha  occ. eigenvalues --   -0.57832  -0.56893  -0.56139  -0.54680  -0.54258
 Alpha  occ. eigenvalues --   -0.53427  -0.49982  -0.49447  -0.49135  -0.47993
 Alpha  occ. eigenvalues --   -0.47579  -0.46984  -0.46889  -0.46225  -0.45911
 Alpha  occ. eigenvalues --   -0.45628  -0.45116  -0.44697  -0.44061  -0.43483
 Alpha  occ. eigenvalues --   -0.43139  -0.42628  -0.42463  -0.42226  -0.42039
 Alpha  occ. eigenvalues --   -0.41780  -0.41415  -0.41231  -0.40502  -0.40008
 Alpha  occ. eigenvalues --   -0.39834  -0.39629  -0.39305  -0.38797  -0.38148
 Alpha  occ. eigenvalues --   -0.37915  -0.37674  -0.37372  -0.36825  -0.36499
 Alpha  occ. eigenvalues --   -0.36055  -0.35791  -0.35382  -0.35267  -0.35060
 Alpha  occ. eigenvalues --   -0.34693  -0.34505  -0.33700  -0.33561  -0.33154
 Alpha  occ. eigenvalues --   -0.33058  -0.32526  -0.32460  -0.32103  -0.31733
 Alpha  occ. eigenvalues --   -0.31646  -0.30935  -0.30851  -0.30118  -0.29967
 Alpha  occ. eigenvalues --   -0.29621  -0.27518  -0.26856  -0.25945  -0.25606
 Alpha  occ. eigenvalues --   -0.25025  -0.24989  -0.20628  -0.20363
 Alpha virt. eigenvalues --   -0.03547  -0.01150   0.00235   0.03745   0.04186
 Alpha virt. eigenvalues --    0.06456   0.06934   0.08275   0.08574   0.08780
 Alpha virt. eigenvalues --    0.09573   0.09807   0.10643   0.10852   0.10919

 Mulliken charges:
               1
     1  C   -0.441547
     2  C   -0.246680
     3  C   -0.247187
     4  C   -0.255743
     5  C   -0.258126
     6  C   -0.257246
     7  C   -0.256236
     8  C   -0.260567
     9  C   -0.258057
    10  C   -0.280166
    11  C   -0.256183
    12  C   -0.175565
    13  N   -0.562346
    14  C    0.503921
    15  C   -0.385162
    16  C   -0.253093
    17  C   -0.262683
    18  C   -0.275505
    19  C   -0.129895
    20  N   -0.594198
    21  C    0.545018
    22  O   -0.537570
    23  C    0.021612
    24  C   -0.186067
    25  C   -0.135102
    26  C   -0.115401
    27  C   -0.189875
    28  C    0.142063
    29  C   -0.518178
    30  N   -0.572269
    31  C    0.230182
    32  C   -0.184220
    33  C   -0.144310
    34  C   -0.152208
    35  C   -0.176030
    36  C    0.331991
    37  H    0.140808
    38  H    0.141001
    39  H    0.140333
    40  H    0.129172
    41  H    0.130038
    42  H    0.124143
    43  H    0.131665
    44  H    0.125646
    45  H    0.132251
    46  H    0.124061
    47  H    0.124551
    48  H    0.136800
    49  H    0.123902
    50  H    0.123629
    51  H    0.130340
    52  H    0.130154
    53  H    0.139284
    54  H    0.123965
    55  H    0.130368
    56  H    0.171128
    57  H    0.119416
    58  H    0.140873
    59  H    0.153759
    60  H    0.152337
    61  H    0.183082
    62  H    0.186761
    63  H    0.156255
    64  H    0.140325
    65  H    0.169213
    66  H    0.137787
    67  H    0.130863
    68  H    0.125429
    69  H    0.144935
    70  H    0.148171
    71  H    0.190032
    72  H    0.326423
    73  H    0.139149
    74  H    0.135712
    75  H    0.136427
    76  H    0.130749
    77  H    0.145348
    78  H    0.165221
    79  H    0.189264
    80  H    0.130183
    81  H    0.118129
    82  H    0.119151
    83  H    0.124393
 Sum of Mulliken charges =  -0.00000

 Dipole moment (field-independent basis, Debye):
    X=              2.4557    Y=             -5.3014    Z=              1.3813  Tot=              6.0036
 Quadrupole moment (field-independent basis, Debye-Ang):
   XX=           -200.2965   YY=           -235.1436   ZZ=           -215.7124
   XY=            -18.5843   XZ=             -0.3066   YZ=             12.1755

 Normal termination of Gaussian 16 at Sat Nov  5 09:52:00 2022.
