 Gaussian 16, Revision B.01,
 Gaussian 16:  ES64L-G16RevB.01 20-Dec-2017

 -----------------------------
 #p b3lyp/6-31g(d) opt SCF=XQC
 -----------------------------

 ------------------------------
 Gaussian input prepared by ASE
 ------------------------------
 Symbolic Z-matrix:
 Charge =  0 Multiplicity = 1

 SCF Done:  E(RB3LYP) =  -1368.10367196     A.U. after   15 cycles
 SCF Done:  E(RB3LYP) =  -1368.11162137     A.U. after   13 cycles
 SCF Done:  E(RB3LYP) =  -1368.11319674     A.U. after   12 cycles
 SCF Done:  E(RB3LYP) =  -1368.11398222     A.U. after   12 cycles
 SCF Done:  E(RB3LYP) =  -1368.11406984     A.U. after   11 cycles
 SCF Done:  E(RB3LYP) =  -1368.11415105     A.U. after   11 cycles
 SCF Done:  E(RB3LYP) =  -1368.11417020     A.U. after   10 cycles
 SCF Done:  E(RB3LYP) =  -1368.11417793     A.U. after    9 cycles
 SCF Done:  E(RB3LYP) =  -1368.11418149     A.U. after    9 cycles
 SCF Done:  E(RB3LYP) =  -1368.11418341     A.U. after    9 cycles
 SCF Done:  E(RB3LYP) =  -1368.11418389     A.U. after    7 cycles
 SCF Done:  E(RB3LYP) =  -1368.11418406     A.U. after    7 cycles
 SCF Done:  E(RB3LYP) =  -1368.11418416     A.U. after    7 cycles
 SCF Done:  E(RB3LYP) =  -1368.11418422     A.U. after    6 cycles
 SCF Done:  E(RB3LYP) =  -1368.11418423     A.U. after    6 cycles
 SCF Done:  E(RB3LYP) =  -1368.11418423     A.U. after    5 cycles
 Optimization completed.
    -- Stationary point found.

                         Standard orientation:
 ---------------------------------------------------------------------
 Center     Atomic      Atomic             Coordinates (Angstroms)
 Number     Number       Type             X           Y           Z
 ---------------------------------------------------------------------
      1          6           0       -6.544408   -3.997326   -1.979078
      2          6           0       -7.220884   -2.794452   -1.311081
      3          6           0       -6.435466   -1.476257   -1.433554
      4          6           0       -5.045436   -1.452246   -0.772640
      5          6           0       -5.063555   -1.653001    0.751836
      6          6           0       -3.682497   -1.537591    1.437733
      7          6           0       -3.320535   -0.147239    1.992601
      8          6           0       -3.199621    0.980119    0.955799
      9          6           0       -2.719903    2.318218    1.544045
     10          6           0       -1.222960    2.386434    1.899215
     11          7           0       -0.340974    2.371723    0.733807
     12          6           0        0.464202    1.345111    0.258643
     13          6           0        0.611014    0.031747    0.983696
     14          6           0        1.532157    0.144365    2.227894
     15          6           0        2.882590   -0.426657    1.786743
     16          8           0        3.936258   -0.318029    2.390084
     17          7           0        2.682731   -1.099613    0.605562
     18          6           0        3.727509   -1.766986   -0.114481
     19          6           0        3.765047   -3.173982   -0.128836
     20          6           0        2.761435   -4.001950    0.639633
     21          6           0        4.773077   -3.805438   -0.866120
     22          6           0        5.722862   -3.060972   -1.560687
     23          6           0        5.679446   -1.669204   -1.520697
     24          6           0        4.686031   -0.995913   -0.801016
     25          6           0        4.659780    0.511937   -0.755850
     26          6           0        1.309355   -1.039731    0.102934
     27          7           0        1.107509    1.663950   -0.840988
     28          6           0        0.729821    2.966377   -1.127676
     29          6           0        1.120468    3.803977   -2.178774
     30          6           0        0.592134    5.090558   -2.220110
     31          6           0       -0.307601    5.544019   -1.235498
     32          6           0       -0.710562    4.724109   -0.183294
     33          6           0       -0.178700    3.432199   -0.150672
     34          1           0       -6.347727   -3.800703   -3.040568
     35          1           0       -7.178337   -4.889319   -1.918320
     36          1           0       -5.586636   -4.243882   -1.506477
     37          1           0       -8.210321   -2.645812   -1.764085
     38          1           0       -7.409451   -3.021794   -0.253309
     39          1           0       -7.042210   -0.664372   -1.006760
     40          1           0       -6.317853   -1.237557   -2.500338
     41          1           0       -4.568780   -0.494343   -1.014901
     42          1           0       -4.404477   -2.223013   -1.223218
     43          1           0       -5.478432   -2.645359    0.968338
     44          1           0       -5.760720   -0.934582    1.209494
     45          1           0       -3.643773   -2.241685    2.279066
     46          1           0       -2.900458   -1.867125    0.737348
     47          1           0       -2.375231   -0.241316    2.547154
     48          1           0       -4.073231    0.143117    2.740623
     49          1           0       -4.178000    1.145727    0.489452
     50          1           0       -2.527266    0.676244    0.141065
     51          1           0       -3.287034    2.541454    2.458580
     52          1           0       -2.941773    3.126900    0.838063
     53          1           0       -1.019568    3.309200    2.455717
     54          1           0       -0.936221    1.559084    2.552512
     55          1           0       -0.382189   -0.325564    1.271551
     56          1           0        1.159653   -0.458006    3.065509
     57          1           0        1.667504    1.165721    2.592073
     58          1           0        3.141506   -5.015394    0.801002
     59          1           0        2.543266   -3.562010    1.618234
     60          1           0        1.807846   -4.096384    0.102719
     61          1           0        4.815085   -4.891926   -0.882028
     62          1           0        6.501785   -3.565282   -2.126721
     63          1           0        6.425833   -1.087721   -2.056197
     64          1           0        3.663070    0.908677   -0.978809
     65          1           0        5.370024    0.930653   -1.475725
     66          1           0        4.936090    0.868592    0.243396
     67          1           0        1.304354   -0.754587   -0.951040
     68          1           0        0.808981   -2.010706    0.210127
     69          1           0        1.819370    3.449277   -2.930148
     70          1           0        0.879139    5.762594   -3.024028
     71          1           0       -0.696370    6.556748   -1.296170
     72          1           0       -1.401177    5.084904    0.573234
 ---------------------------------------------------------------------

 The electronic state is 1-A.
 Alpha  occ. eigenvalues --  -19.10302 -14.39283 -14.35851 -14.31632 -10.27710
 Alpha  occ. eigenvalues --  -10.25835 -10.24554 -10.22624 -10.22201 -10.22096
 Alpha  occ. eigenvalues --  -10.21340 -10.20586 -10.20265 -10.20184 -10.19493
 Alpha  occ. eigenvalues --  -10.19420 -10.19364 -10.19269 -10.18933 -10.18870
 Alpha  occ. eigenvalues --  -10.18855 -10.18577 -10.18431 -10.18403 -10.18209
 Alpha  occ. eigenvalues --  -10.18129 -10.18107 -10.18065 -10.18062 -10.17794
 Alpha  occ. eigenvalues --  -10.17569 -10.17464 -10.15989  -1.02453  -1.01939
 Alpha  occ. eigenvalues --   -0.94334  -0.89682  -0.85297  -0.84176  -0.82095
 Alpha  occ. eigenvalues --   -0.80643  -0.80173  -0.77638  -0.77366  -0.74904
 Alpha  occ. eigenvalues --   -0.74487  -0.73583  -0.72953  -0.71485  -0.70686
 Alpha  occ. eigenvalues --   -0.68714  -0.67146  -0.66781  -0.64613  -0.63532
 Alpha  occ. eigenvalues --   -0.61046  -0.60752  -0.60027  -0.59138  -0.57940
 Alpha  occ. eigenvalues --   -0.56796  -0.56425  -0.55598  -0.54007  -0.52508
 Alpha  occ. eigenvalues --   -0.51258  -0.49922  -0.49028  -0.48602  -0.47447
 Alpha  occ. eigenvalues --   -0.47054  -0.47005  -0.46072  -0.45594  -0.45105
 Alpha  occ. eigenvalues --   -0.44646  -0.44113  -0.43750  -0.43634  -0.43005
 Alpha  occ. eigenvalues --   -0.42605  -0.42323  -0.42020  -0.41469  -0.41195
 Alpha  occ. eigenvalues --   -0.40310  -0.40079  -0.39823  -0.39509  -0.39368
 Alpha  occ. eigenvalues --   -0.39287  -0.38893  -0.38642  -0.38504  -0.37697
 Alpha  occ. eigenvalues --   -0.37110  -0.36609  -0.36292  -0.36067  -0.35714
 Alpha  occ. eigenvalues --   -0.35469  -0.34979  -0.34054  -0.33700  -0.33505
 Alpha  occ. eigenvalues --   -0.33475  -0.33433  -0.33080  -0.32870  -0.32767
 Alpha  occ. eigenvalues --   -0.31997  -0.31019  -0.30677  -0.29478  -0.27324
 Alpha  occ. eigenvalues --   -0.24768  -0.24166  -0.22889  -0.22733  -0.22410
 Alpha  occ. eigenvalues --   -0.22072
 Alpha virt. eigenvalues --   -0.01770   0.00198   0.01182   0.01895   0.03396
 Alpha virt. eigenvalues --    0.04398   0.05946   0.07375   0.08232   0.09010
 Alpha virt. eigenvalues --    0.09726   0.09901   0.10370   0.10887   0.11189

 Mulliken charges:
               1
     1  C   -0.443811
     2  C   -0.251008
     3  C   -0.253470
     4  C   -0.265424
     5  C   -0.257404
     6  C   -0.264424
     7  C   -0.263976
     8  C   -0.265576
     9  C   -0.269719
    10  C   -0.175414
    11  N   -0.557604
    12  C    0.503449
    13  C   -0.248503
    14  C   -0.378448
    15  C    0.602133
    16  O   -0.513315
    17  N   -0.539905
    18  C    0.147163
    19  C    0.192170
    20  C   -0.534293
    21  C   -0.214264
    22  C   -0.104319
    23  C   -0.213216
    24  C    0.207406
    25  C   -0.562516
    26  C   -0.107651
    27  N   -0.563784
    28  C    0.234742
    29  C   -0.178642
    30  C   -0.143670
    31  C   -0.149771
    32  C   -0.176199
    33  C    0.332770
    34  H    0.142326
    35  H    0.143022
    36  H    0.144254
    37  H    0.132265
    38  H    0.133825
    39  H    0.125652
    40  H    0.128804
    41  H    0.136197
    42  H    0.133233
    43  H    0.138009
    44  H    0.127732
    45  H    0.132741
    46  H    0.129499
    47  H    0.124092
    48  H    0.133530
    49  H    0.148771
    50  H    0.144361
    51  H    0.140531
    52  H    0.155587
    53  H    0.166215
    54  H    0.168954
    55  H    0.162612
    56  H    0.170757
    57  H    0.182137
    58  H    0.157933
    59  H    0.165324
    60  H    0.157694
    61  H    0.119410
    62  H    0.125549
    63  H    0.122747
    64  H    0.193323
    65  H    0.141572
    66  H    0.187263
    67  H    0.195125
    68  H    0.142193
    69  H    0.139851
    70  H    0.126684
    71  H    0.126937
    72  H    0.129779
 Sum of Mulliken charges =  -0.00000

 Dipole moment (field-independent basis, Debye):
    X=             -5.7721    Y=             -0.0595    Z=              0.4426  Tot=              5.7894
 Quadrupole moment (field-independent basis, Debye-Ang):
   XX=           -211.0494   YY=           -186.7896   ZZ=           -200.3184
   XY=             -4.4406   XZ=            -18.2691   YZ=              3.2588

 Normal termination of Gaussian 16 at Fri Nov  4 22:28:45 2022.
