 Gaussian 16, Revision B.01,
 Gaussian 16:  ES64L-G16RevB.01 20-Dec-2017

 -------------------------------------------------------------------
 #p b3lyp/6-31g(d) 6D 10F nosymm GFInput td=(50-50,nstate=2) SCF=XQC
 -------------------------------------------------------------------

 ------------------------------
 Gaussian input prepared by ASE
 ------------------------------
 Symbolic Z-matrix:
 Charge =  0 Multiplicity = 1

                          Input orientation:
 ---------------------------------------------------------------------
 Center     Atomic      Atomic             Coordinates (Angstroms)
 Number     Number       Type             X           Y           Z
 ---------------------------------------------------------------------
      1          6           0        6.327741    3.454782   -1.035177
      2          6           0        6.857692    2.070551   -0.643001
      3          6           0        5.946807    0.901436   -1.058908
      4          6           0        4.541688    0.881007   -0.430585
      5          6           0        4.532795    0.741386    1.100782
      6          6           0        3.126553    0.625886    1.733426
      7          6           0        2.608415   -0.805740    1.965709
      8          6           0        2.405993   -1.660577    0.705237
      9          6           0        1.775028   -3.036334    0.980644
     10          6           0        0.268596   -3.021663    1.300150
     11          7           0       -0.570787   -2.659951    0.159584
     12          6           0       -1.252567   -1.475169   -0.084322
     13          6           0       -1.287830   -0.343569    0.910874
     14          6           0       -2.253779   -0.626760    2.092382
     15          6           0       -3.525003    0.166263    1.777017
     16          8           0       -4.602454    0.040724    2.333233
     17          7           0       -3.221393    1.055620    0.774587
     18          6           0       -4.170265    1.970620    0.210826
     19          6           0       -4.064446    3.342762    0.506260
     20          6           0       -3.006350    3.872308    1.446113
     21          6           0       -4.979886    4.222789   -0.081933
     22          6           0       -5.978283    3.752446   -0.930889
     23          6           0       -6.077507    2.388866   -1.197919
     24          6           0       -5.180298    1.473635   -0.636222
     25          6           0       -5.308524   -0.001879   -0.923895
     26          6           0       -1.846250    0.961899    0.282061
     27          7           0       -1.890486   -1.476648   -1.232255
     28          6           0       -1.638134   -2.717659   -1.795609
     29          6           0       -2.078936   -3.259735   -3.008387
     30          6           0       -1.682788   -4.554812   -3.327727
     31          6           0       -0.864648   -5.304638   -2.459960
     32          6           0       -0.413430   -4.781268   -1.249899
     33          6           0       -0.812275   -3.478748   -0.937914
     34          1           0        6.145143    3.516324   -2.115443
     35          1           0        7.046679    4.239885   -0.774499
     36          1           0        5.385723    3.692208   -0.527536
     37          1           0        7.840520    1.920500   -1.109719
     38          1           0        7.035453    2.040482    0.440336
     39          1           0        6.454552   -0.043487   -0.816494
     40          1           0        5.838727    0.914948   -2.152971
     41          1           0        3.978080    0.054911   -0.881564
     42          1           0        3.996488    1.794843   -0.705523
     43          1           0        5.039266    1.613061    1.533727
     44          1           0        5.138974   -0.129151    1.394599
     45          1           0        3.133370    1.129593    2.708783
     46          1           0        2.404064    1.181046    1.116560
     47          1           0        1.660788   -0.735438    2.519822
     48          1           0        3.304223   -1.330177    2.637433
     49          1           0        3.376518   -1.823011    0.221680
     50          1           0        1.793513   -1.116972   -0.027944
     51          1           0        2.287962   -3.512343    1.828088
     52          1           0        1.935520   -3.690398    0.115747
     53          1           0       -0.044493   -4.016772    1.638226
     54          1           0        0.047129   -2.331137    2.117249
     55          1           0       -0.272915   -0.164728    1.278226
     56          1           0       -1.848256   -0.264421    3.044994
     57          1           0       -2.503243   -1.682770    2.221696
     58          1           0       -3.286495    4.860534    1.823591
     59          1           0       -2.864374    3.208990    2.305565
     60          1           0       -2.031912    3.980173    0.950771
     61          1           0       -4.910971    5.284792    0.141394
     62          1           0       -6.684114    4.447542   -1.378204
     63          1           0       -6.862056    2.020445   -1.854217
     64          1           0       -4.350760   -0.443572   -1.220777
     65          1           0       -6.034907   -0.175999   -1.723918
     66          1           0       -5.650432   -0.536603   -0.029909
     67          1           0       -1.837517    0.914590   -0.808755
     68          1           0       -1.253544    1.827626    0.604355
     69          1           0       -2.714624   -2.677830   -3.668787
     70          1           0       -2.011405   -5.001129   -4.262125
     71          1           0       -0.578903   -6.315052   -2.738988
     72          1           0        0.213239   -5.369333   -0.585880
 ---------------------------------------------------------------------

 SCF Done:  E(RB3LYP) =  -1368.11417334     A.U. after   15 cycles

 Excitation energies and oscillator strengths:

 Excited state symmetry could not be determined.
 Excited State   1:      Triplet-?Sym    3.4699 eV  357.31 nm  f=0.0000  <S**2>=2.000
     119 ->122        -0.24822
     120 ->122        -0.11027
     120 ->125         0.19665
     121 ->122         0.58182
 This state for optimization and/or second-order correction.
 Total Energy, E(TD-HF/TD-DFT) =  -1367.98665563
 Copying the excited state density for this state as the 1-particle RhoCI density.

 Excited state symmetry could not be determined.
 Excited State   2:      Triplet-?Sym    4.0320 eV  307.50 nm  f=0.0000  <S**2>=2.000
     117 ->122        -0.12566
     119 ->122         0.17799
     120 ->122         0.60928
     121 ->122         0.22463

 Excited state symmetry could not be determined.
 Excited State   3:      Singlet-?Sym    4.9294 eV  251.52 nm  f=0.0900  <S**2>=0.000
     119 ->122         0.15255
     119 ->125         0.11047
     120 ->122         0.59392
     121 ->122         0.12465
     121 ->125        -0.27962

 Excited state symmetry could not be determined.
 Excited State   4:      Singlet-?Sym    5.0765 eV  244.23 nm  f=0.0896  <S**2>=0.000
     119 ->122         0.14972
     120 ->122        -0.18100
     120 ->125         0.14116
     121 ->122         0.62818

 Alpha  occ. eigenvalues --  -19.10302 -14.39284 -14.35851 -14.31632 -10.27710
 Alpha  occ. eigenvalues --  -10.25835 -10.24554 -10.22624 -10.22200 -10.22096
 Alpha  occ. eigenvalues --  -10.21340 -10.20586 -10.20265 -10.20184 -10.19494
 Alpha  occ. eigenvalues --  -10.19420 -10.19364 -10.19269 -10.18933 -10.18870
 Alpha  occ. eigenvalues --  -10.18855 -10.18577 -10.18431 -10.18403 -10.18209
 Alpha  occ. eigenvalues --  -10.18129 -10.18107 -10.18065 -10.18062 -10.17794
 Alpha  occ. eigenvalues --  -10.17569 -10.17464 -10.15989  -1.02453  -1.01939
 Alpha  occ. eigenvalues --   -0.94334  -0.89682  -0.85297  -0.84176  -0.82095
 Alpha  occ. eigenvalues --   -0.80643  -0.80173  -0.77638  -0.77366  -0.74904
 Alpha  occ. eigenvalues --   -0.74487  -0.73583  -0.72953  -0.71485  -0.70686
 Alpha  occ. eigenvalues --   -0.68714  -0.67146  -0.66781  -0.64613  -0.63532
 Alpha  occ. eigenvalues --   -0.61046  -0.60752  -0.60027  -0.59138  -0.57940
 Alpha  occ. eigenvalues --   -0.56796  -0.56425  -0.55598  -0.54007  -0.52508
 Alpha  occ. eigenvalues --   -0.51258  -0.49922  -0.49028  -0.48602  -0.47447
 Alpha  occ. eigenvalues --   -0.47054  -0.47005  -0.46072  -0.45594  -0.45105
 Alpha  occ. eigenvalues --   -0.44646  -0.44113  -0.43750  -0.43634  -0.43005
 Alpha  occ. eigenvalues --   -0.42605  -0.42323  -0.42020  -0.41469  -0.41195
 Alpha  occ. eigenvalues --   -0.40310  -0.40079  -0.39823  -0.39509  -0.39368
 Alpha  occ. eigenvalues --   -0.39287  -0.38893  -0.38642  -0.38504  -0.37697
 Alpha  occ. eigenvalues --   -0.37110  -0.36609  -0.36292  -0.36067  -0.35714
 Alpha  occ. eigenvalues --   -0.35469  -0.34979  -0.34054  -0.33700  -0.33505
 Alpha  occ. eigenvalues --   -0.33475  -0.33433  -0.33080  -0.32870  -0.32767
 Alpha  occ. eigenvalues --   -0.31997  -0.31019  -0.30677  -0.29478  -0.27324
 Alpha  occ. eigenvalues --   -0.24768  -0.24166  -0.22889  -0.22733  -0.22410
 Alpha  occ. eigenvalues --   -0.22072
 Alpha virt. eigenvalues --   -0.01770   0.00198   0.01182   0.01895   0.03396
 Alpha virt. eigenvalues --    0.04398   0.05946   0.07375   0.08232   0.09010
 Alpha virt. eigenvalues --    0.09726   0.09901   0.10370   0.10887   0.11189

 Mulliken charges:
               1
     1  C   -0.443809
     2  C   -0.251024
     3  C   -0.253452
     4  C   -0.265433
     5  C   -0.257388
     6  C   -0.264416
     7  C   -0.263960
     8  C   -0.265616
     9  C   -0.269721
    10  C   -0.175374
    11  N   -0.557593
    12  C    0.503448
    13  C   -0.248483
    14  C   -0.378442
    15  C    0.602158
    16  O   -0.513309
    17  N   -0.539949
    18  C    0.147159
    19  C    0.192179
    20  C   -0.534293
    21  C   -0.214257
    22  C   -0.104325
    23  C   -0.213213
    24  C    0.207406
    25  C   -0.562516
    26  C   -0.107629
    27  N   -0.563805
    28  C    0.234775
    29  C   -0.178645
    30  C   -0.143665
    31  C   -0.149770
    32  C   -0.176209
    33  C    0.332718
    34  H    0.142326
    35  H    0.143023
    36  H    0.144254
    37  H    0.132266
    38  H    0.133827
    39  H    0.125650
    40  H    0.128801
    41  H    0.136196
    42  H    0.133234
    43  H    0.138006
    44  H    0.127727
    45  H    0.132738
    46  H    0.129494
    47  H    0.124092
    48  H    0.133528
    49  H    0.148777
    50  H    0.144370
    51  H    0.140532
    52  H    0.155588
    53  H    0.166208
    54  H    0.168947
    55  H    0.162606
    56  H    0.170752
    57  H    0.182132
    58  H    0.157933
    59  H    0.165323
    60  H    0.157694
    61  H    0.119410
    62  H    0.125548
    63  H    0.122745
    64  H    0.193322
    65  H    0.141572
    66  H    0.187262
    67  H    0.195121
    68  H    0.142193
    69  H    0.139854
    70  H    0.126684
    71  H    0.126937
    72  H    0.129782
 Sum of Mulliken charges =  -0.00000

 Dipole moment (field-independent basis, Debye):
    X=              5.7319    Y=             -0.6494    Z=              0.4907  Tot=              5.7894
 Quadrupole moment (field-independent basis, Debye-Ang):
   XX=           -220.2031   YY=           -184.3600   ZZ=           -200.8309
   XY=             -6.0219   XZ=             16.1284   YZ=             -1.9322

 Normal termination of Gaussian 16 at Sat Nov  5 09:48:21 2022.
