 Gaussian 16, Revision B.01,
 Gaussian 16:  ES64L-G16RevB.01 20-Dec-2017

 -------------------------------------------------------------------
 #p b3lyp/6-31g(d) 6D 10F nosymm GFInput td=(50-50,nstate=2) SCF=XQC
 -------------------------------------------------------------------

 ------------------------------
 Gaussian input prepared by ASE
 ------------------------------
 Symbolic Z-matrix:
 Charge =  0 Multiplicity = 1

                          Input orientation:
 ---------------------------------------------------------------------
 Center     Atomic      Atomic             Coordinates (Angstroms)
 Number     Number       Type             X           Y           Z
 ---------------------------------------------------------------------
      1          6           0       -0.397203   -2.791677   -1.621118
      2          6           0       -0.111135   -1.476934   -0.974202
      3          6           0        1.094980   -0.907856   -0.592213
      4          6           0        0.812387    0.373616   -0.012489
      5          6           0       -0.558524    0.553633   -0.055563
      6          7           0       -1.100864   -0.571642   -0.633805
      7          6           0       -2.535846   -0.721492   -0.868769
      8          6           0       -3.348570    0.033576    0.164332
      9          6           0       -4.630940   -0.409540    0.503308
     10          6           0       -5.403441    0.294716    1.425167
     11          6           0       -4.886874    1.445478    2.023755
     12          6           0       -3.604772    1.883413    1.695469
     13          6           0       -2.827204    1.191010    0.761190
     14          6           0       -1.441081    1.677109    0.383791
     15          6           0        1.839751    1.255591    0.522620
     16          8           0        1.601152    2.355921    1.024693
     17          6           0        3.241772    0.726024    0.421436
     18          6           0        4.288067    1.513937    0.912993
     19          6           0        5.604949    1.066427    0.839173
     20          6           0        5.889010   -0.179083    0.269453
     21          6           0        4.855372   -0.971927   -0.223563
     22          6           0        3.528298   -0.533716   -0.154571
     23          6           0        2.453242   -1.433459   -0.701072
     24          8           0        2.732695   -2.526525   -1.196185
     25          1           0        0.551347   -3.301767   -1.794815
     26          1           0       -0.913377   -2.673258   -2.583101
     27          1           0       -1.024555   -3.433685   -0.987865
     28          1           0       -2.782564   -1.786293   -0.844678
     29          1           0       -2.769692   -0.361382   -1.882234
     30          1           0       -5.025296   -1.313872    0.044581
     31          1           0       -6.397595   -0.059318    1.682957
     32          1           0       -5.477091    1.995155    2.751735
     33          1           0       -3.196666    2.773016    2.169248
     34          1           0       -1.520899    2.419834   -0.427996
     35          1           0       -0.954480    2.204558    1.208815
     36          1           0        4.039695    2.476222    1.349217
     37          1           0        6.410704    1.685726    1.224277
     38          1           0        6.916038   -0.529598    0.210897
     39          1           0        5.049214   -1.941937   -0.669981
 ---------------------------------------------------------------------

 SCF Done:  E(RB3LYP) =  -1014.51074334     A.U. after   16 cycles

 Excitation energies and oscillator strengths:

 Excited state symmetry could not be determined.
 Excited State   1:      Triplet-?Sym    2.4777 eV  500.41 nm  f=0.0000  <S**2>=2.000
      82 -> 83         0.68646
      82 -> 88        -0.11922
 This state for optimization and/or second-order correction.
 Total Energy, E(TD-HF/TD-DFT) =  -1014.41969129
 Copying the excited state density for this state as the 1-particle RhoCI density.

 Excited state symmetry could not be determined.
 Excited State   2:      Triplet-?Sym    2.7725 eV  447.20 nm  f=0.0000  <S**2>=2.000
      80 -> 84        -0.17991
      81 -> 83         0.66937

 Excited state symmetry could not be determined.
 Excited State   3:      Singlet-?Sym    3.1895 eV  388.73 nm  f=0.0016  <S**2>=0.000
      80 -> 84        -0.13365
      81 -> 83         0.67745
      82 -> 83         0.11377

 Excited state symmetry could not be determined.
 Excited State   4:      Singlet-?Sym    3.3486 eV  370.25 nm  f=0.0110  <S**2>=0.000
      79 -> 83         0.10662
      80 -> 83         0.63703
      81 -> 84        -0.16345
      82 -> 83         0.21504

 Alpha  occ. eigenvalues --  -19.12463 -19.12354 -14.40578 -10.26784 -10.26628
 Alpha  occ. eigenvalues --  -10.25466 -10.23702 -10.23563 -10.21475 -10.21219
 Alpha  occ. eigenvalues --  -10.20782 -10.20466 -10.20159 -10.20103 -10.20013
 Alpha  occ. eigenvalues --  -10.19940 -10.19885 -10.19752 -10.19698 -10.19493
 Alpha  occ. eigenvalues --  -10.19210 -10.19200 -10.18447 -10.18293  -1.02323
 Alpha  occ. eigenvalues --   -1.01966  -1.00875  -0.87731  -0.86158  -0.83293
 Alpha  occ. eigenvalues --   -0.80978  -0.78388  -0.76809  -0.75706  -0.75297
 Alpha  occ. eigenvalues --   -0.72556  -0.70386  -0.68218  -0.64869  -0.63585
 Alpha  occ. eigenvalues --   -0.62226  -0.60408  -0.59241  -0.57034  -0.53662
 Alpha  occ. eigenvalues --   -0.53422  -0.51753  -0.50583  -0.49385  -0.48257
 Alpha  occ. eigenvalues --   -0.46694  -0.46393  -0.45696  -0.45215  -0.43993
 Alpha  occ. eigenvalues --   -0.43621  -0.42949  -0.42740  -0.42367  -0.42025
 Alpha  occ. eigenvalues --   -0.41924  -0.41360  -0.41162  -0.40671  -0.39118
 Alpha  occ. eigenvalues --   -0.38028  -0.37837  -0.37500  -0.36053  -0.35937
 Alpha  occ. eigenvalues --   -0.35285  -0.35020  -0.34468  -0.34121  -0.26198
 Alpha  occ. eigenvalues --   -0.25856  -0.25453  -0.25207  -0.24793  -0.24696
 Alpha  occ. eigenvalues --   -0.23950  -0.21862
 Alpha virt. eigenvalues --   -0.07672  -0.03446  -0.01644  -0.01327   0.01612
 Alpha virt. eigenvalues --    0.01866   0.07800   0.08095   0.08872   0.10564
 Alpha virt. eigenvalues --    0.11122   0.12040   0.12366   0.12929   0.13359

 Mulliken charges:
               1
     1  C   -0.548763
     2  C    0.313340
     3  C   -0.041418
     4  C   -0.046960
     5  C    0.308898
     6  N   -0.532336
     7  C   -0.209632
     8  C    0.098475
     9  C   -0.185617
    10  C   -0.129192
    11  C   -0.125222
    12  C   -0.190178
    13  C    0.129883
    14  C   -0.420901
    15  C    0.350118
    16  O   -0.519747
    17  C    0.041372
    18  C   -0.175652
    19  C   -0.126405
    20  C   -0.125715
    21  C   -0.176222
    22  C    0.042069
    23  C    0.347711
    24  O   -0.511900
    25  H    0.220991
    26  H    0.161417
    27  H    0.163561
    28  H    0.176317
    29  H    0.182967
    30  H    0.127593
    31  H    0.135672
    32  H    0.136838
    33  H    0.137707
    34  H    0.183503
    35  H    0.206705
    36  H    0.162123
    37  H    0.137938
    38  H    0.137945
    39  H    0.162718
 Sum of Mulliken charges =  -0.00000

 Dipole moment (field-independent basis, Debye):
    X=             -3.9605    Y=             -0.2546    Z=             -0.3880  Tot=              3.9876
 Quadrupole moment (field-independent basis, Debye-Ang):
   XX=           -113.2464   YY=           -140.2886   ZZ=           -135.5658
   XY=              6.2205   XZ=              2.8724   YZ=              0.5095

 Normal termination of Gaussian 16 at Sat Nov  5 09:38:33 2022.
