 Gaussian 16, Revision B.01,
 Gaussian 16:  ES64L-G16RevB.01 20-Dec-2017

 -----------------------------
 #p b3lyp/6-31g(d) opt SCF=XQC
 -----------------------------

 ------------------------------
 Gaussian input prepared by ASE
 ------------------------------
 Symbolic Z-matrix:
 Charge =  0 Multiplicity = 1

 SCF Done:  E(RB3LYP) =  -1014.50581726     A.U. after   16 cycles
 SCF Done:  E(RB3LYP) =  -1014.51035312     A.U. after   12 cycles
 SCF Done:  E(RB3LYP) =  -1014.51052312     A.U. after   11 cycles
 SCF Done:  E(RB3LYP) =  -1014.51060124     A.U. after   12 cycles
 SCF Done:  E(RB3LYP) =  -1014.51064311     A.U. after   10 cycles
 SCF Done:  E(RB3LYP) =  -1014.51068737     A.U. after   11 cycles
 SCF Done:  E(RB3LYP) =  -1014.51072445     A.U. after   11 cycles
 SCF Done:  E(RB3LYP) =  -1014.51074097     A.U. after   11 cycles
 SCF Done:  E(RB3LYP) =  -1014.51074180     A.U. after    8 cycles
 Optimization completed.
    -- Stationary point found.

                         Standard orientation:
 ---------------------------------------------------------------------
 Center     Atomic      Atomic             Coordinates (Angstroms)
 Number     Number       Type             X           Y           Z
 ---------------------------------------------------------------------
      1          6           0       -0.308043    3.397058    0.050438
      2          6           0       -0.170168    1.915571    0.173206
      3          6           0        0.956733    1.109740    0.101015
      4          6           0        0.537341   -0.249953    0.283918
      5          6           0       -0.834327   -0.239000    0.462985
      6          7           0       -1.245980    1.072436    0.389394
      7          6           0       -2.642099    1.469534    0.562616
      8          6           0       -3.589677    0.379025    0.103452
      9          6           0       -4.861803    0.714158   -0.371005
     10          6           0       -5.756490   -0.279974   -0.763171
     11          6           0       -5.373950   -1.620909   -0.692748
     12          6           0       -4.102626   -1.957114   -0.230097
     13          6           0       -3.202689   -0.967192    0.178657
     14          6           0       -1.827214   -1.329843    0.704596
     15          6           0        1.451774   -1.382379    0.250408
     16          8           0        1.095327   -2.552505    0.403649
     17          6           0        2.890977   -1.024833    0.011244
     18          6           0        3.834477   -2.056753   -0.034775
     19          6           0        5.181004   -1.774306   -0.251529
     20          6           0        5.598495   -0.450515   -0.424289
     21          6           0        4.668044    0.585041   -0.380041
     22          6           0        3.312444    0.314048   -0.163652
     23          6           0        2.352807    1.472397   -0.127987
     24          8           0        2.748768    2.628528   -0.284830
     25          1           0        0.685143    3.822334   -0.100663
     26          1           0       -0.748546    3.845330    0.950925
     27          1           0       -0.939890    3.681996   -0.801814
     28          1           0       -2.814774    2.388609   -0.003720
     29          1           0       -2.814571    1.709467    1.622880
     30          1           0       -5.151884    1.760724   -0.436719
     31          1           0       -6.741546   -0.008645   -1.132202
     32          1           0       -6.060321   -2.402514   -1.006505
     33          1           0       -3.799111   -3.000325   -0.185381
     34          1           0       -1.890339   -1.535287    1.786639
     35          1           0       -1.449834   -2.254008    0.258332
     36          1           0        3.483522   -3.074494    0.103087
     37          1           0        5.906168   -2.583023   -0.286036
     38          1           0        6.648831   -0.228450   -0.593278
     39          1           0        4.966195    1.620250   -0.511300
 ---------------------------------------------------------------------

 The electronic state is 1-A.
 Alpha  occ. eigenvalues --  -19.12463 -19.12354 -14.40578 -10.26784 -10.26628
 Alpha  occ. eigenvalues --  -10.25466 -10.23702 -10.23563 -10.21475 -10.21219
 Alpha  occ. eigenvalues --  -10.20782 -10.20466 -10.20159 -10.20103 -10.20013
 Alpha  occ. eigenvalues --  -10.19940 -10.19885 -10.19752 -10.19698 -10.19493
 Alpha  occ. eigenvalues --  -10.19210 -10.19200 -10.18447 -10.18293  -1.02323
 Alpha  occ. eigenvalues --   -1.01966  -1.00875  -0.87731  -0.86158  -0.83293
 Alpha  occ. eigenvalues --   -0.80978  -0.78388  -0.76809  -0.75706  -0.75297
 Alpha  occ. eigenvalues --   -0.72556  -0.70386  -0.68218  -0.64869  -0.63585
 Alpha  occ. eigenvalues --   -0.62226  -0.60408  -0.59241  -0.57034  -0.53662
 Alpha  occ. eigenvalues --   -0.53422  -0.51753  -0.50583  -0.49385  -0.48257
 Alpha  occ. eigenvalues --   -0.46694  -0.46393  -0.45696  -0.45215  -0.43992
 Alpha  occ. eigenvalues --   -0.43621  -0.42949  -0.42740  -0.42367  -0.42025
 Alpha  occ. eigenvalues --   -0.41924  -0.41360  -0.41162  -0.40671  -0.39118
 Alpha  occ. eigenvalues --   -0.38028  -0.37837  -0.37500  -0.36053  -0.35937
 Alpha  occ. eigenvalues --   -0.35285  -0.35020  -0.34468  -0.34121  -0.26198
 Alpha  occ. eigenvalues --   -0.25856  -0.25452  -0.25207  -0.24793  -0.24696
 Alpha  occ. eigenvalues --   -0.23950  -0.21862
 Alpha virt. eigenvalues --   -0.07672  -0.03446  -0.01644  -0.01327   0.01612
 Alpha virt. eigenvalues --    0.01866   0.07800   0.08095   0.08872   0.10564
 Alpha virt. eigenvalues --    0.11122   0.12040   0.12366   0.12929   0.13359

 Mulliken charges:
               1
     1  C   -0.548765
     2  C    0.313333
     3  C   -0.041425
     4  C   -0.046953
     5  C    0.308906
     6  N   -0.532335
     7  C   -0.209647
     8  C    0.098462
     9  C   -0.185614
    10  C   -0.129185
    11  C   -0.125232
    12  C   -0.190175
    13  C    0.129902
    14  C   -0.420891
    15  C    0.350118
    16  O   -0.519754
    17  C    0.041389
    18  C   -0.175655
    19  C   -0.126411
    20  C   -0.125711
    21  C   -0.176217
    22  C    0.042051
    23  C    0.347709
    24  O   -0.511898
    25  H    0.220992
    26  H    0.161419
    27  H    0.163560
    28  H    0.176318
    29  H    0.182970
    30  H    0.127593
    31  H    0.135672
    32  H    0.136839
    33  H    0.137706
    34  H    0.183502
    35  H    0.206702
    36  H    0.162123
    37  H    0.137938
    38  H    0.137944
    39  H    0.162718
 Sum of Mulliken charges =  -0.00000

 Dipole moment (field-independent basis, Debye):
    X=             -3.8863    Y=              0.8265    Z=              0.3387  Tot=              3.9876
 Quadrupole moment (field-independent basis, Debye-Ang):
   XX=           -112.9725   YY=           -136.6559   ZZ=           -137.2544
   XY=             -9.9531   XZ=             -0.2977   YZ=              2.7039

 Normal termination of Gaussian 16 at Fri Nov  4 22:04:09 2022.
