 Gaussian 16, Revision B.01,
 Gaussian 16:  ES64L-G16RevB.01 20-Dec-2017

 -----------------------------
 #p b3lyp/6-31g(d) opt SCF=XQC
 -----------------------------

 ------------------------------
 Gaussian input prepared by ASE
 ------------------------------
 Symbolic Z-matrix:
 Charge =  0 Multiplicity = 1

 SCF Done:  E(RB3LYP) =  -1134.84319690     A.U. after   15 cycles
 SCF Done:  E(RB3LYP) =  -1134.85042427     A.U. after   13 cycles
 SCF Done:  E(RB3LYP) =  -1134.85102649     A.U. after   12 cycles
 SCF Done:  E(RB3LYP) =  -1134.85119681     A.U. after   12 cycles
 SCF Done:  E(RB3LYP) =  -1134.85129550     A.U. after   11 cycles
 SCF Done:  E(RB3LYP) =  -1134.85133117     A.U. after   10 cycles
 SCF Done:  E(RB3LYP) =  -1134.85135159     A.U. after   10 cycles
 SCF Done:  E(RB3LYP) =  -1134.85135920     A.U. after   10 cycles
 SCF Done:  E(RB3LYP) =  -1134.85136644     A.U. after   10 cycles
 SCF Done:  E(RB3LYP) =  -1134.85137326     A.U. after   10 cycles
 SCF Done:  E(RB3LYP) =  -1134.85144619     A.U. after    9 cycles
 SCF Done:  E(RB3LYP) =  -1134.85144641     A.U. after    9 cycles
 SCF Done:  E(RB3LYP) =  -1134.85144708     A.U. after    9 cycles
 SCF Done:  E(RB3LYP) =  -1134.85144851     A.U. after    9 cycles
 SCF Done:  E(RB3LYP) =  -1134.85145070     A.U. after   10 cycles
 SCF Done:  E(RB3LYP) =  -1134.85145176     A.U. after    7 cycles
 SCF Done:  E(RB3LYP) =  -1134.85145355     A.U. after   10 cycles
 SCF Done:  E(RB3LYP) =  -1134.85145363     A.U. after    9 cycles
 SCF Done:  E(RB3LYP) =  -1134.85145380     A.U. after    9 cycles
 SCF Done:  E(RB3LYP) =  -1134.85145387     A.U. after    8 cycles
 Optimization completed on the basis of negligible forces.
    -- Stationary point found.

                         Standard orientation:
 ---------------------------------------------------------------------
 Center     Atomic      Atomic             Coordinates (Angstroms)
 Number     Number       Type             X           Y           Z
 ---------------------------------------------------------------------
      1          6           0        5.511873   -1.338869   -1.425289
      2          6           0        4.249545   -1.537833   -0.617294
      3          6           0        3.695190   -2.817702   -0.461519
      4          6           0        2.546054   -2.996979    0.301302
      5          6           0        1.923698   -1.906359    0.918100
      6          6           0        2.450635   -0.618409    0.769438
      7          6           0        1.814587    0.626873    1.399499
      8          6           0        0.784010    0.339251    2.498032
      9          6           0       -0.536146   -0.180082    1.962964
     10          8           0       -1.223370   -0.999225    2.544487
     11          7           0       -0.949372    0.374072    0.734588
     12          6           0       -2.204103   -0.108772    0.199724
     13          6           0       -2.186786   -1.098983   -0.782672
     14          6           0       -3.387056   -1.575303   -1.320853
     15          6           0       -3.385876   -2.666735   -2.366100
     16          6           0       -4.589815   -1.036064   -0.847586
     17          6           0       -4.622644   -0.053710    0.148766
     18          6           0       -5.936883    0.478291    0.671567
     19          6           0       -3.408651    0.411033    0.667461
     20          6           0       -0.172686    1.320847    0.040632
     21          6           0        1.140105    1.509274    0.358018
     22          6           0        1.916884    2.610373   -0.232581
     23          8           0        3.091982    2.807499    0.070429
     24          6           0        1.201521    3.540797   -1.204184
     25          6           0        0.103636    2.811374   -1.977572
     26          6           0       -0.880443    2.135526   -1.019118
     27          6           0        3.616083   -0.457521    0.000876
     28          1           0        6.370149   -1.835620   -0.954589
     29          1           0        5.413000   -1.759457   -2.433747
     30          1           0        5.757607   -0.277329   -1.526411
     31          1           0        4.172417   -3.673466   -0.934858
     32          1           0        2.126915   -3.992401    0.426218
     33          1           0        1.037981   -2.084322    1.519624
     34          1           0        2.627152    1.218360    1.832616
     35          1           0        0.568689    1.276814    3.030352
     36          1           0        1.140381   -0.379659    3.239498
     37          1           0       -1.232821   -1.496463   -1.119435
     38          1           0       -4.231304   -2.563184   -3.054587
     39          1           0       -3.464822   -3.657934   -1.900459
     40          1           0       -2.463496   -2.657582   -2.955904
     41          1           0       -5.528849   -1.394779   -1.265206
     42          1           0       -6.734167    0.378143   -0.072109
     43          1           0       -5.861618    1.535270    0.948799
     44          1           0       -6.254318   -0.070069    1.568198
     45          1           0       -3.397000    1.174757    1.440187
     46          1           0        1.954860    3.983972   -1.862261
     47          1           0        0.765086    4.365202   -0.619105
     48          1           0       -0.436688    3.502687   -2.633972
     49          1           0        0.558391    2.047978   -2.622159
     50          1           0       -1.574463    1.500360   -1.576104
     51          1           0       -1.505105    2.891576   -0.517474
     52          1           0        4.032345    0.540546   -0.108226
 ---------------------------------------------------------------------

 The electronic state is 1-A.
 Alpha  occ. eigenvalues --  -19.12815 -19.12169 -14.39000 -10.29831 -10.26338
 Alpha  occ. eigenvalues --  -10.25640 -10.23522 -10.20723 -10.20715 -10.20697
 Alpha  occ. eigenvalues --  -10.19988 -10.19873 -10.19731 -10.19530 -10.19493
 Alpha  occ. eigenvalues --  -10.19300 -10.19181 -10.19098 -10.19069 -10.19051
 Alpha  occ. eigenvalues --  -10.18856 -10.18659 -10.17976 -10.17654 -10.17589
 Alpha  occ. eigenvalues --  -10.17525 -10.17012  -1.04980  -1.02029  -0.96500
 Alpha  occ. eigenvalues --   -0.86897  -0.85042  -0.83596  -0.81347  -0.78939
 Alpha  occ. eigenvalues --   -0.76829  -0.75508  -0.75018  -0.73144  -0.72633
 Alpha  occ. eigenvalues --   -0.69812  -0.69199  -0.67425  -0.65862  -0.63750
 Alpha  occ. eigenvalues --   -0.62200  -0.59947  -0.58717  -0.58370  -0.55868
 Alpha  occ. eigenvalues --   -0.54943  -0.51626  -0.50819  -0.50343  -0.49145
 Alpha  occ. eigenvalues --   -0.48827  -0.47343  -0.47010  -0.46455  -0.44534
 Alpha  occ. eigenvalues --   -0.43911  -0.43513  -0.43186  -0.42954  -0.42761
 Alpha  occ. eigenvalues --   -0.42277  -0.41998  -0.41430  -0.41293  -0.41023
 Alpha  occ. eigenvalues --   -0.40572  -0.40405  -0.40294  -0.39274  -0.38752
 Alpha  occ. eigenvalues --   -0.38179  -0.37518  -0.37211  -0.36771  -0.36194
 Alpha  occ. eigenvalues --   -0.35523  -0.34966  -0.34843  -0.34343  -0.33665
 Alpha  occ. eigenvalues --   -0.33235  -0.32765  -0.32157  -0.30802  -0.26068
 Alpha  occ. eigenvalues --   -0.25254  -0.24622  -0.24056  -0.23336  -0.22876
 Alpha  occ. eigenvalues --   -0.22189
 Alpha virt. eigenvalues --   -0.04858  -0.01397  -0.00920   0.00422   0.01068
 Alpha virt. eigenvalues --    0.02244   0.06258   0.08682   0.09666   0.10765
 Alpha virt. eigenvalues --    0.11362   0.11717   0.12051   0.12454   0.12873

 Mulliken charges:
               1
     1  C   -0.531319
     2  C    0.180814
     3  C   -0.176225
     4  C   -0.137018
     5  C   -0.219230
     6  C    0.173096
     7  C   -0.256940
     8  C   -0.382280
     9  C    0.601838
    10  O   -0.491210
    11  N   -0.615022
    12  C    0.250071
    13  C   -0.191104
    14  C    0.170262
    15  C   -0.530208
    16  C   -0.222283
    17  C    0.169244
    18  C   -0.530513
    19  C   -0.180713
    20  C    0.314874
    21  C    0.020285
    22  C    0.412957
    23  O   -0.500121
    24  C   -0.349641
    25  C   -0.278159
    26  C   -0.347744
    27  C   -0.254059
    28  H    0.161053
    29  H    0.155604
    30  H    0.161136
    31  H    0.116679
    32  H    0.126155
    33  H    0.147267
    34  H    0.176129
    35  H    0.174924
    36  H    0.182091
    37  H    0.142439
    38  H    0.158635
    39  H    0.173769
    40  H    0.160159
    41  H    0.119452
    42  H    0.157937
    43  H    0.158153
    44  H    0.175136
    45  H    0.129010
    46  H    0.166794
    47  H    0.159707
    48  H    0.144042
    49  H    0.154829
    50  H    0.177063
    51  H    0.163576
    52  H    0.158612
 Sum of Mulliken charges =  -0.00000

 Dipole moment (field-independent basis, Debye):
    X=             -3.7197    Y=              0.7523    Z=             -2.8119  Tot=              4.7232
 Quadrupole moment (field-independent basis, Debye-Ang):
   XX=           -153.4904   YY=           -153.8348   ZZ=           -157.1564
   XY=            -10.5377   XZ=              1.9813   YZ=              6.3707

 Normal termination of Gaussian 16 at Fri Nov  4 23:31:56 2022.
