 Gaussian 16, Revision B.01,
 Gaussian 16:  ES64L-G16RevB.01 20-Dec-2017

 -------------------------------------------------------------------
 #p b3lyp/6-31g(d) 6D 10F nosymm GFInput td=(50-50,nstate=2) SCF=XQC
 -------------------------------------------------------------------

 ------------------------------
 Gaussian input prepared by ASE
 ------------------------------
 Symbolic Z-matrix:
 Charge =  0 Multiplicity = 1

                          Input orientation:
 ---------------------------------------------------------------------
 Center     Atomic      Atomic             Coordinates (Angstroms)
 Number     Number       Type             X           Y           Z
 ---------------------------------------------------------------------
      1          6           0       -5.598603    0.800579   -1.837544
      2          6           0       -4.349062    1.262711   -1.122703
      3          6           0       -3.796221    2.523990   -1.393229
      4          6           0       -2.659160    2.952017   -0.716151
      5          6           0       -2.047514    2.131538    0.237748
      6          6           0       -2.573060    0.865130    0.518086
      7          6           0       -1.948057   -0.096725    1.536156
      8          6           0       -0.934767    0.544625    2.491929
      9          6           0        0.394106    0.862322    1.834677
     10          8           0        1.072694    1.831361    2.120899
     11          7           0        0.826281   -0.067056    0.867084
     12          6           0        2.089705    0.216004    0.221171
     13          6           0        2.088728    0.822896   -1.034855
     14          6           0        3.297745    1.098454   -1.682554
     15          6           0        3.313979    1.779964   -3.031273
     16          6           0        4.492433    0.752813   -1.038625
     17          6           0        4.508704    0.158043    0.228182
     18          6           0        5.814079   -0.163791    0.918101
     19          6           0        3.286284   -0.113142    0.853446
     20          6           0        0.059920   -1.194263    0.515955
     21          6           0       -1.257880   -1.272292    0.857969
     22          6           0       -2.026092   -2.510647    0.655640
     23          8           0       -3.205996   -2.601040    0.989084
     24          6           0       -1.296184   -3.708069    0.059939
     25          6           0       -0.185614   -3.272540   -0.895303
     26          6           0        0.783711   -2.311894   -0.201485
     27          6           0       -3.726325    0.452460   -0.170770
     28          1           0       -6.463824    1.421750   -1.572031
     29          1           0       -5.483446    0.862156   -2.926858
     30          1           0       -5.843552   -0.235234   -1.583438
     31          1           0       -4.265214    3.171374   -2.131516
     32          1           0       -2.241256    3.934177   -0.923190
     33          1           0       -1.171287    2.503477    0.759173
     34          1           0       -2.767847   -0.514091    2.128996
     35          1           0       -0.728646   -0.161457    3.309067
     36          1           0       -1.302254    1.467642    2.946459
     37          1           0        1.140530    1.081390   -1.499129
     38          1           0        4.170115    1.457081   -3.633157
     39          1           0        3.386337    2.869960   -2.920803
     40          1           0        2.401042    1.570952   -3.598370
     41          1           0        5.438244    0.956395   -1.537486
     42          1           0        6.623113   -0.313158    0.195675
     43          1           0        5.733592   -1.068662    1.530031
     44          1           0        6.117721    0.653054    1.585916
     45          1           0        3.261795   -0.576335    1.835977
     46          1           0       -2.039366   -4.348327   -0.424560
     47          1           0       -0.869721   -4.288891    0.892533
     48          1           0        0.364479   -4.140402   -1.276011
     49          1           0       -0.629501   -2.769133   -1.763988
     50          1           0        1.486966   -1.895082   -0.927455
     51          1           0        1.399751   -2.855163    0.532554
     52          1           0       -4.141605   -0.526920    0.052102
 ---------------------------------------------------------------------

 SCF Done:  E(RB3LYP) =  -1134.85145822     A.U. after   15 cycles

 Excitation energies and oscillator strengths:

 Excited state symmetry could not be determined.
 Excited State   1:      Triplet-?Sym    2.8368 eV  437.06 nm  f=0.0000  <S**2>=2.000
      93 -> 97        -0.11062
      94 -> 97         0.16886
      95 -> 97         0.23356
      96 -> 97         0.61354
 This state for optimization and/or second-order correction.
 Total Energy, E(TD-HF/TD-DFT) =  -1134.74720952
 Copying the excited state density for this state as the 1-particle RhoCI density.

 Excited state symmetry could not be determined.
 Excited State   2:      Triplet-?Sym    3.2682 eV  379.37 nm  f=0.0000  <S**2>=2.000
      93 -> 97         0.46140
      93 ->100         0.10130
      94 -> 97         0.34163
      95 -> 97         0.31624
      96 -> 97        -0.13950

 Excited state symmetry could not be determined.
 Excited State   3:      Singlet-?Sym    3.7086 eV  334.32 nm  f=0.0009  <S**2>=0.000
      93 -> 97         0.42301
      94 -> 97         0.35020
      95 -> 97         0.34986
      96 -> 97        -0.22288

 Excited state symmetry could not be determined.
 Excited State   4:      Singlet-?Sym    4.2645 eV  290.74 nm  f=0.0618  <S**2>=0.000
      93 -> 97         0.39248
      95 -> 97        -0.23310
      96 -> 97         0.51442

 Alpha  occ. eigenvalues --  -19.12815 -19.12169 -14.39000 -10.29831 -10.26338
 Alpha  occ. eigenvalues --  -10.25640 -10.23522 -10.20723 -10.20715 -10.20697
 Alpha  occ. eigenvalues --  -10.19988 -10.19873 -10.19731 -10.19530 -10.19493
 Alpha  occ. eigenvalues --  -10.19300 -10.19181 -10.19098 -10.19069 -10.19051
 Alpha  occ. eigenvalues --  -10.18856 -10.18659 -10.17976 -10.17654 -10.17589
 Alpha  occ. eigenvalues --  -10.17525 -10.17012  -1.04980  -1.02029  -0.96500
 Alpha  occ. eigenvalues --   -0.86897  -0.85042  -0.83596  -0.81348  -0.78939
 Alpha  occ. eigenvalues --   -0.76829  -0.75508  -0.75018  -0.73144  -0.72633
 Alpha  occ. eigenvalues --   -0.69812  -0.69199  -0.67425  -0.65862  -0.63750
 Alpha  occ. eigenvalues --   -0.62200  -0.59947  -0.58717  -0.58370  -0.55868
 Alpha  occ. eigenvalues --   -0.54943  -0.51626  -0.50819  -0.50343  -0.49145
 Alpha  occ. eigenvalues --   -0.48827  -0.47343  -0.47010  -0.46455  -0.44534
 Alpha  occ. eigenvalues --   -0.43911  -0.43513  -0.43186  -0.42954  -0.42761
 Alpha  occ. eigenvalues --   -0.42277  -0.41998  -0.41430  -0.41293  -0.41023
 Alpha  occ. eigenvalues --   -0.40572  -0.40405  -0.40294  -0.39274  -0.38752
 Alpha  occ. eigenvalues --   -0.38179  -0.37518  -0.37211  -0.36771  -0.36194
 Alpha  occ. eigenvalues --   -0.35523  -0.34966  -0.34843  -0.34343  -0.33665
 Alpha  occ. eigenvalues --   -0.33235  -0.32765  -0.32157  -0.30802  -0.26068
 Alpha  occ. eigenvalues --   -0.25254  -0.24622  -0.24056  -0.23336  -0.22876
 Alpha  occ. eigenvalues --   -0.22189
 Alpha virt. eigenvalues --   -0.04858  -0.01396  -0.00920   0.00422   0.01068
 Alpha virt. eigenvalues --    0.02244   0.06258   0.08682   0.09666   0.10765
 Alpha virt. eigenvalues --    0.11362   0.11717   0.12051   0.12454   0.12873

 Mulliken charges:
               1
     1  C   -0.531322
     2  C    0.180813
     3  C   -0.176227
     4  C   -0.137021
     5  C   -0.219237
     6  C    0.173118
     7  C   -0.256969
     8  C   -0.382271
     9  C    0.601828
    10  O   -0.491207
    11  N   -0.615012
    12  C    0.250065
    13  C   -0.191093
    14  C    0.170268
    15  C   -0.530209
    16  C   -0.222280
    17  C    0.169235
    18  C   -0.530510
    19  C   -0.180711
    20  C    0.314888
    21  C    0.020294
    22  C    0.412946
    23  O   -0.500127
    24  C   -0.349647
    25  C   -0.278166
    26  C   -0.347746
    27  C   -0.254054
    28  H    0.161054
    29  H    0.155604
    30  H    0.161137
    31  H    0.116680
    32  H    0.126155
    33  H    0.147269
    34  H    0.176128
    35  H    0.174925
    36  H    0.182090
    37  H    0.142429
    38  H    0.158634
    39  H    0.173769
    40  H    0.160160
    41  H    0.119451
    42  H    0.157937
    43  H    0.158153
    44  H    0.175136
    45  H    0.129008
    46  H    0.166797
    47  H    0.159710
    48  H    0.144044
    49  H    0.154832
    50  H    0.177063
    51  H    0.163576
    52  H    0.158612
 Sum of Mulliken charges =  -0.00000

 Dipole moment (field-independent basis, Debye):
    X=              3.7632    Y=             -1.6281    Z=             -2.3445  Tot=              4.7232
 Quadrupole moment (field-independent basis, Debye-Ang):
   XX=           -154.2811   YY=           -158.4158   ZZ=           -152.9076
   XY=            -10.1624   XZ=              2.0485   YZ=             -6.2997

 Normal termination of Gaussian 16 at Sat Nov  5 09:40:31 2022.
