 Gaussian 16, Revision B.01,
 Gaussian 16:  ES64L-G16RevB.01 20-Dec-2017

 -------------------------------------------------------------------
 #p b3lyp/6-31g(d) 6D 10F nosymm GFInput td=(50-50,nstate=2) SCF=XQC
 -------------------------------------------------------------------

 ------------------------------
 Gaussian input prepared by ASE
 ------------------------------
 Symbolic Z-matrix:
 Charge =  0 Multiplicity = 1

                          Input orientation:
 ---------------------------------------------------------------------
 Center     Atomic      Atomic             Coordinates (Angstroms)
 Number     Number       Type             X           Y           Z
 ---------------------------------------------------------------------
      1          6           0       -1.065400   -1.151723   -2.110525
      2          6           0       -1.279215   -1.206692   -0.577726
      3          6           0       -2.762631   -0.812858   -0.356468
      4          6           0       -1.131152   -2.663846   -0.071160
      5          6           0       -0.291941   -0.200998    0.220764
      6          6           0       -0.776895    1.263489    0.038436
      7          6           0       -1.492868    1.968867    1.014215
      8          6           0       -1.923953    3.277935    0.781168
      9          6           0       -1.655561    3.911530   -0.429842
     10          6           0       -0.935966    3.224326   -1.408234
     11          6           0       -0.497547    1.922473   -1.172675
     12          6           0        1.217040   -0.250944   -0.176686
     13          6           0        1.847134   -1.332821   -0.808876
     14          6           0        3.215038   -1.326529   -1.078743
     15          6           0        4.004777   -0.233098   -0.701731
     16          6           0        5.411343   -0.221631   -0.980146
     17          7           0        6.552120   -0.211684   -1.207099
     18          6           0        3.399222    0.848743   -0.042863
     19          6           0        2.033167    0.830555    0.209124
     20          7           0       -0.296401   -0.594496    1.672040
     21          6           0        0.725930   -1.050477    2.447495
     22          7           0        0.298863   -1.388914    3.651118
     23          6           0       -1.031608   -1.127673    3.572300
     24          7           0       -1.446982   -0.655992    2.407613
     25          1           0       -1.316228   -0.166867   -2.512454
     26          1           0       -0.056345   -1.402461   -2.442279
     27          1           0       -1.749855   -1.869165   -2.576776
     28          1           0       -3.394839   -1.564492   -0.843994
     29          1           0       -2.996290    0.156689   -0.804410
     30          1           0       -3.021997   -0.779543    0.701770
     31          1           0       -1.514369   -2.765025    0.947283
     32          1           0       -1.725464   -3.323793   -0.712798
     33          1           0       -0.106594   -3.042780   -0.074530
     34          1           0       -1.733254    1.494782    1.956229
     35          1           0       -2.475778    3.798614    1.559293
     36          1           0       -1.994307    4.928387   -0.608109
     37          1           0       -0.702053    3.703288   -2.355258
     38          1           0        0.094200    1.427741   -1.935090
     39          1           0        1.287416   -2.207551   -1.103040
     40          1           0        3.671730   -2.174260   -1.579038
     41          1           0        4.000343    1.697143    0.267556
     42          1           0        1.589658    1.676857    0.720761
     43          1           0        1.746726   -1.120084    2.110468
     44          1           0       -1.719212   -1.285022    4.392920
 ---------------------------------------------------------------------

 SCF Done:  E(RB3LYP) =  -993.130240116     A.U. after   16 cycles

 Excitation energies and oscillator strengths:

 Excited state symmetry could not be determined.
 Excited State   1:      Triplet-?Sym    3.3080 eV  374.80 nm  f=0.0000  <S**2>=2.000
      79 -> 86        -0.25162
      80 -> 85        -0.22629
      81 -> 85         0.51485
      84 -> 85         0.29035
 This state for optimization and/or second-order correction.
 Total Energy, E(TD-HF/TD-DFT) =  -993.008673377
 Copying the excited state density for this state as the 1-particle RhoCI density.

 Excited state symmetry could not be determined.
 Excited State   2:      Triplet-?Sym    3.7131 eV  333.91 nm  f=0.0000  <S**2>=2.000
      81 -> 87        -0.10566
      83 -> 86         0.16041
      83 -> 88        -0.39373
      83 -> 89        -0.14412
      84 -> 87         0.50123

 Excited state symmetry could not be determined.
 Excited State   3:      Singlet-?Sym    4.4560 eV  278.24 nm  f=0.0206  <S**2>=0.000
      84 -> 85         0.69695

 Excited state symmetry could not be determined.
 Excited State   4:      Singlet-?Sym    4.6339 eV  267.56 nm  f=0.0009  <S**2>=0.000
      83 -> 85         0.70348

 Alpha  occ. eigenvalues --  -14.42937 -14.36292 -14.34368 -14.32850 -10.28121
 Alpha  occ. eigenvalues --  -10.25791 -10.25150 -10.23884 -10.23769 -10.23617
 Alpha  occ. eigenvalues --  -10.23000 -10.22865 -10.22442 -10.22389 -10.22099
 Alpha  occ. eigenvalues --  -10.21362 -10.20092 -10.20035 -10.19915 -10.19820
 Alpha  occ. eigenvalues --  -10.19439 -10.18503 -10.18340 -10.16994  -1.08014
 Alpha  occ. eigenvalues --   -0.92065  -0.91348  -0.88956  -0.86728  -0.84974
 Alpha  occ. eigenvalues --   -0.81906  -0.79739  -0.78223  -0.76604  -0.75311
 Alpha  occ. eigenvalues --   -0.71201  -0.69725  -0.68615  -0.65709  -0.64336
 Alpha  occ. eigenvalues --   -0.62324  -0.61807  -0.61003  -0.59292  -0.57734
 Alpha  occ. eigenvalues --   -0.56065  -0.54077  -0.52251  -0.50132  -0.48836
 Alpha  occ. eigenvalues --   -0.48020  -0.47302  -0.47042  -0.46045  -0.45567
 Alpha  occ. eigenvalues --   -0.44806  -0.44059  -0.43294  -0.43061  -0.42501
 Alpha  occ. eigenvalues --   -0.42360  -0.40909  -0.40101  -0.39339  -0.38923
 Alpha  occ. eigenvalues --   -0.38355  -0.37510  -0.37020  -0.36773  -0.36443
 Alpha  occ. eigenvalues --   -0.35345  -0.35209  -0.34874  -0.33795  -0.33612
 Alpha  occ. eigenvalues --   -0.32533  -0.31828  -0.29115  -0.28759  -0.27990
 Alpha  occ. eigenvalues --   -0.27625  -0.26861  -0.25822  -0.25278
 Alpha virt. eigenvalues --   -0.06703  -0.03727  -0.01713  -0.00941   0.00128
 Alpha virt. eigenvalues --    0.02929   0.05002   0.05609   0.06932   0.08716
 Alpha virt. eigenvalues --    0.09321   0.10938   0.12218   0.12438   0.12749

 Mulliken charges:
               1
     1  C   -0.466533
     2  C    0.085682
     3  C   -0.469337
     4  C   -0.469902
     5  C    0.115407
     6  C    0.086627
     7  C   -0.171973
     8  C   -0.133911
     9  C   -0.124185
    10  C   -0.140487
    11  C   -0.165000
    12  C    0.076386
    13  C   -0.190420
    14  C   -0.143842
    15  C    0.134353
    16  C    0.242113
    17  N   -0.470624
    18  C   -0.138920
    19  C   -0.164566
    20  N   -0.282440
    21  C    0.222432
    22  N   -0.440500
    23  C    0.157831
    24  N   -0.268942
    25  H    0.157529
    26  H    0.145457
    27  H    0.149171
    28  H    0.135424
    29  H    0.154750
    30  H    0.190925
    31  H    0.172880
    32  H    0.147808
    33  H    0.145472
    34  H    0.170450
    35  H    0.136448
    36  H    0.134697
    37  H    0.135413
    38  H    0.141349
    39  H    0.157662
    40  H    0.164835
    41  H    0.166660
    42  H    0.170493
    43  H    0.182536
    44  H    0.160793
 Sum of Mulliken charges =  -0.00000

 Dipole moment (field-independent basis, Debye):
    X=             -3.8095    Y=              0.8978    Z=             -1.7846  Tot=              4.3015
 Quadrupole moment (field-independent basis, Debye-Ang):
   XX=           -176.1292   YY=           -130.4720   ZZ=           -146.7376
   XY=             -0.0211   XZ=              3.3356   YZ=              5.8981

 Normal termination of Gaussian 16 at Sat Nov  5 09:50:46 2022.
