 Gaussian 16, Revision B.01,
 Gaussian 16:  ES64L-G16RevB.01 20-Dec-2017

 -----------------------------
 #p b3lyp/6-31g(d) opt SCF=XQC
 -----------------------------

 ------------------------------
 Gaussian input prepared by ASE
 ------------------------------
 Symbolic Z-matrix:
 Charge =  0 Multiplicity = 1

 SCF Done:  E(RB3LYP) =  -993.119855097     A.U. after   15 cycles
 SCF Done:  E(RB3LYP) =  -993.126177313     A.U. after   13 cycles
 SCF Done:  E(RB3LYP) =  -993.123901906     A.U. after   13 cycles
 SCF Done:  E(RB3LYP) =  -993.124035629     A.U. after   14 cycles
 SCF Done:  E(RB3LYP) =  -993.128011364     A.U. after   11 cycles
 SCF Done:  E(RB3LYP) =  -993.129518260     A.U. after   13 cycles
 SCF Done:  E(RB3LYP) =  -993.129519332     A.U. after   13 cycles
 SCF Done:  E(RB3LYP) =  -993.129872175     A.U. after   13 cycles
 SCF Done:  E(RB3LYP) =  -993.130085758     A.U. after   12 cycles
 SCF Done:  E(RB3LYP) =  -993.130162283     A.U. after   11 cycles
 SCF Done:  E(RB3LYP) =  -993.130178347     A.U. after   12 cycles
 SCF Done:  E(RB3LYP) =  -993.130211081     A.U. after   10 cycles
 SCF Done:  E(RB3LYP) =  -993.130222629     A.U. after   11 cycles
 SCF Done:  E(RB3LYP) =  -993.130227552     A.U. after   11 cycles
 SCF Done:  E(RB3LYP) =  -993.130228536     A.U. after    8 cycles
 SCF Done:  E(RB3LYP) =  -993.130229070     A.U. after    8 cycles
 SCF Done:  E(RB3LYP) =  -993.130229333     A.U. after    8 cycles
 Optimization completed.
    -- Stationary point found.

                         Standard orientation:
 ---------------------------------------------------------------------
 Center     Atomic      Atomic             Coordinates (Angstroms)
 Number     Number       Type             X           Y           Z
 ---------------------------------------------------------------------
      1          6           0        0.671056    0.085176    2.900915
      2          6           0        1.207818   -0.759864    1.719388
      3          6           0        2.748788   -0.592065    1.762268
      4          6           0        0.922402   -2.262948    1.966579
      5          6           0        0.615858   -0.273559    0.292220
      6          6           0        1.297822    1.056124   -0.132061
      7          6           0        2.325751    1.130399   -1.080832
      8          6           0        2.917431    2.355171   -1.402780
      9          6           0        2.501772    3.531782   -0.784041
     10          6           0        1.472984    3.474548    0.157042
     11          6           0        0.876101    2.254931    0.471342
     12          6           0       -0.928389   -0.055179    0.220851
     13          6           0       -1.863657   -0.632079    1.092403
     14          6           0       -3.234321   -0.436572    0.927823
     15          6           0       -3.715314    0.334707   -0.137630
     16          6           0       -5.124044    0.540494   -0.308529
     17          7           0       -6.266718    0.708540   -0.446498
     18          6           0       -2.797641    0.898743   -1.038145
     19          6           0       -1.434825    0.702334   -0.853509
     20          7           0        0.874178   -1.358600   -0.716255
     21          6           0       -0.013593   -2.110511   -1.423999
     22          7           0        0.604481   -3.036538   -2.135400
     23          6           0        1.908638   -2.821892   -1.822809
     24          7           0        2.130473   -1.833287   -0.971362
     25          1           0        0.995256    1.126145    2.825537
     26          1           0       -0.414501    0.079140    3.013393
     27          1           0        1.097343   -0.314283    3.827901
     28          1           0        3.114224   -1.007883    2.708775
     29          1           0        3.043583    0.460153    1.727576
     30          1           0        3.239054   -1.118633    0.943359
     31          1           0        1.498909   -2.888772    1.280793
     32          1           0        1.233299   -2.519427    2.985400
     33          1           0       -0.127425   -2.547409    1.865248
     34          1           0        2.682694    0.230036   -1.562362
     35          1           0        3.711453    2.379314   -2.144427
     36          1           0        2.965719    4.481593   -1.035315
     37          1           0        1.121990    4.381427    0.642168
     38          1           0        0.051860    2.246396    1.176151
     39          1           0       -1.546311   -1.250239    1.918321
     40          1           0       -3.932758   -0.887458    1.625244
     41          1           0       -3.155697    1.487526   -1.876368
     42          1           0       -0.746753    1.146643   -1.563331
     43          1           0       -1.079728   -1.958318   -1.398471
     44          1           0        2.723077   -3.405203   -2.231969
 ---------------------------------------------------------------------

 The electronic state is 1-A.
 Alpha  occ. eigenvalues --  -14.42937 -14.36292 -14.34368 -14.32850 -10.28121
 Alpha  occ. eigenvalues --  -10.25791 -10.25150 -10.23884 -10.23769 -10.23617
 Alpha  occ. eigenvalues --  -10.23000 -10.22865 -10.22442 -10.22389 -10.22099
 Alpha  occ. eigenvalues --  -10.21362 -10.20092 -10.20035 -10.19915 -10.19820
 Alpha  occ. eigenvalues --  -10.19439 -10.18503 -10.18340 -10.16994  -1.08014
 Alpha  occ. eigenvalues --   -0.92065  -0.91348  -0.88956  -0.86728  -0.84974
 Alpha  occ. eigenvalues --   -0.81906  -0.79739  -0.78223  -0.76604  -0.75311
 Alpha  occ. eigenvalues --   -0.71201  -0.69725  -0.68615  -0.65709  -0.64336
 Alpha  occ. eigenvalues --   -0.62324  -0.61807  -0.61002  -0.59292  -0.57734
 Alpha  occ. eigenvalues --   -0.56065  -0.54077  -0.52251  -0.50132  -0.48836
 Alpha  occ. eigenvalues --   -0.48020  -0.47302  -0.47041  -0.46045  -0.45567
 Alpha  occ. eigenvalues --   -0.44806  -0.44059  -0.43294  -0.43061  -0.42501
 Alpha  occ. eigenvalues --   -0.42360  -0.40909  -0.40101  -0.39339  -0.38923
 Alpha  occ. eigenvalues --   -0.38355  -0.37510  -0.37020  -0.36773  -0.36443
 Alpha  occ. eigenvalues --   -0.35345  -0.35209  -0.34874  -0.33795  -0.33612
 Alpha  occ. eigenvalues --   -0.32533  -0.31828  -0.29115  -0.28759  -0.27990
 Alpha  occ. eigenvalues --   -0.27625  -0.26861  -0.25822  -0.25278
 Alpha virt. eigenvalues --   -0.06703  -0.03727  -0.01713  -0.00941   0.00128
 Alpha virt. eigenvalues --    0.02929   0.05002   0.05609   0.06932   0.08717
 Alpha virt. eigenvalues --    0.09321   0.10938   0.12219   0.12438   0.12749

 Mulliken charges:
               1
     1  C   -0.466528
     2  C    0.085710
     3  C   -0.469347
     4  C   -0.469922
     5  C    0.115446
     6  C    0.086593
     7  C   -0.171976
     8  C   -0.133901
     9  C   -0.124190
    10  C   -0.140490
    11  C   -0.164981
    12  C    0.076364
    13  C   -0.190404
    14  C   -0.143858
    15  C    0.134369
    16  C    0.242114
    17  N   -0.470624
    18  C   -0.138926
    19  C   -0.164574
    20  N   -0.282437
    21  C    0.222435
    22  N   -0.440493
    23  C    0.157818
    24  N   -0.268945
    25  H    0.157529
    26  H    0.145456
    27  H    0.149167
    28  H    0.135424
    29  H    0.154749
    30  H    0.190926
    31  H    0.172881
    32  H    0.147809
    33  H    0.145474
    34  H    0.170451
    35  H    0.136446
    36  H    0.134698
    37  H    0.135412
    38  H    0.141347
    39  H    0.157662
    40  H    0.164835
    41  H    0.166660
    42  H    0.170494
    43  H    0.182534
    44  H    0.160792
 Sum of Mulliken charges =  -0.00000

 Dipole moment (field-independent basis, Debye):
    X=              3.4133    Y=              1.5463    Z=              2.1123  Tot=              4.3016
 Quadrupole moment (field-independent basis, Debye-Ang):
   XX=           -172.0157   YY=           -140.1192   ZZ=           -137.6868
   XY=              6.3613   XZ=             -6.6988   YZ=             -8.2680

 1\1\GINC-NODE55\FOpt\RB3LYP\6-31G(d)\C20H20N4\WYKGROUP\04-Nov-2022\0\\
 #p b3lyp/6-31g(d) opt SCF=XQC\\Gaussian input prepared by ASE\\0,1\C,-
 1.0653998869,-1.151723443,-2.1105252583\C,-1.279215018,-1.2066921537,-
 0.5777260746\C,-2.7626306985,-0.8128577218,-0.3564675412\C,-1.13115195
 8,-2.6638458653,-0.0711604407\C,-0.2919406367,-0.2009980023,0.22076387
 1\C,-0.7768946834,1.2634890837,0.0384355935\C,-1.4928681706,1.96886742
 51,1.0142149406\C,-1.9239531807,3.2779345508,0.7811679012\C,-1.6555613
 546,3.9115295775,-0.4298422011\C,-0.9359655014,3.2243259353,-1.4082344

 Normal termination of Gaussian 16 at Fri Nov  4 22:13:43 2022.
