 Gaussian 16, Revision B.01,
 Gaussian 16:  ES64L-G16RevB.01 20-Dec-2017

 -----------------------------
 #p b3lyp/6-31g(d) opt SCF=XQC
 -----------------------------

 ------------------------------
 Gaussian input prepared by ASE
 ------------------------------
 Symbolic Z-matrix:
 Charge =  0 Multiplicity = 1

 SCF Done:  E(RB3LYP) =  -1490.81244359     A.U. after   15 cycles
 SCF Done:  E(RB3LYP) =  -1490.81988775     A.U. after   13 cycles
 SCF Done:  E(RB3LYP) =  -1490.82061478     A.U. after   14 cycles
 SCF Done:  E(RB3LYP) =  -1490.82139892     A.U. after   13 cycles
 SCF Done:  E(RB3LYP) =  -1490.82173129     A.U. after   12 cycles
 SCF Done:  E(RB3LYP) =  -1490.82178425     A.U. after   11 cycles
 SCF Done:  E(RB3LYP) =  -1490.82186155     A.U. after   11 cycles
 SCF Done:  E(RB3LYP) =  -1490.82190272     A.U. after   11 cycles
 SCF Done:  E(RB3LYP) =  -1490.82191785     A.U. after   11 cycles
 SCF Done:  E(RB3LYP) =  -1490.82192876     A.U. after   10 cycles
 SCF Done:  E(RB3LYP) =  -1490.82193441     A.U. after   10 cycles
 SCF Done:  E(RB3LYP) =  -1490.82193718     A.U. after    9 cycles
 SCF Done:  E(RB3LYP) =  -1490.82193894     A.U. after    9 cycles
 SCF Done:  E(RB3LYP) =  -1490.82193933     A.U. after    8 cycles
 SCF Done:  E(RB3LYP) =  -1490.82193960     A.U. after    8 cycles
 SCF Done:  E(RB3LYP) =  -1490.82193972     A.U. after    8 cycles
 SCF Done:  E(RB3LYP) =  -1490.82193980     A.U. after    8 cycles
 SCF Done:  E(RB3LYP) =  -1490.82193986     A.U. after    8 cycles
 SCF Done:  E(RB3LYP) =  -1490.82193989     A.U. after    7 cycles
 SCF Done:  E(RB3LYP) =  -1490.82193992     A.U. after    7 cycles
 Optimization completed.
    -- Stationary point found.

                         Standard orientation:
 ---------------------------------------------------------------------
 Center     Atomic      Atomic             Coordinates (Angstroms)
 Number     Number       Type             X           Y           Z
 ---------------------------------------------------------------------
      1          6           0        3.959844   -2.700276   -1.548595
      2          6           0        3.850770   -1.444353   -0.711184
      3          6           0        4.649621   -0.340421   -1.016950
      4          6           0        4.628970    0.836214   -0.263606
      5          6           0        3.760192    0.925963    0.839493
      6          6           0        2.974277   -0.180983    1.162206
      7          6           0        3.001854   -1.359573    0.412616
      8          6           0        2.065913   -2.487339    0.802835
      9          7           0        0.763688   -2.389849    0.134313
     10          6           0        0.282987   -3.335311   -0.707208
     11          8           0        0.855045   -4.381835   -0.993231
     12          6           0       -1.076690   -3.032741   -1.369981
     13          7           0       -1.834301   -1.916811   -0.834752
     14          6           0       -1.889451   -0.652827   -1.365110
     15          6           0       -2.715506    0.158413   -0.614706
     16          6           0       -2.906480    1.575283   -0.992072
     17          8           0       -2.042202    2.181626   -1.622810
     18          6           0       -4.182810    2.236895   -0.663345
     19          6           0       -5.449248    1.785041   -0.376622
     20          6           0       -6.290564    2.933457   -0.308189
     21          6           0       -5.477937    4.002654   -0.558599
     22          8           0       -4.206727    3.602774   -0.783357
     23          6           0       -3.195227   -0.656340    0.487229
     24          6           0       -3.987635   -0.430289    1.627906
     25          6           0       -4.209633   -1.473449    2.518690
     26          6           0       -3.649707   -2.748222    2.308997
     27          6           0       -2.840109   -2.999858    1.207667
     28          6           0       -2.621746   -1.946473    0.314525
     29          8           0        3.643092    2.037652    1.643889
     30          6           0        3.696384    3.304850    0.971984
     31          6           0        5.135863    3.794957    0.796774
     32          6           0        6.052045    2.649529    0.362473
     33          8           0        5.462672    1.850537   -0.673289
     34          1           0        4.506089   -3.489273   -1.013591
     35          1           0        2.985072   -3.122524   -1.810347
     36          1           0        4.505551   -2.499669   -2.475682
     37          1           0        5.335290   -0.375865   -1.858978
     38          1           0        2.317931   -0.088557    2.024280
     39          1           0        2.464790   -3.468255    0.539830
     40          1           0        1.900707   -2.472484    1.886842
     41          1           0        0.232417   -1.538625    0.261046
     42          1           0       -1.671822   -3.948080   -1.308793
     43          1           0       -0.887674   -2.846957   -2.431542
     44          1           0       -1.345088   -0.399626   -2.264316
     45          1           0       -5.741580    0.752809   -0.251108
     46          1           0       -7.351852    2.961380   -0.104669
     47          1           0       -5.649145    5.068030   -0.603584
     48          1           0       -4.414279    0.548724    1.816500
     49          1           0       -4.822119   -1.300399    3.399220
     50          1           0       -3.841234   -3.543272    3.023876
     51          1           0       -2.384746   -3.974438    1.058671
     52          1           0        3.118547    3.994042    1.594492
     53          1           0        3.194680    3.220874    0.001083
     54          1           0        5.521677    4.211177    1.735966
     55          1           0        5.143953    4.601419    0.052966
     56          1           0        6.300105    2.008949    1.216785
     57          1           0        6.986088    3.032410   -0.058849
 ---------------------------------------------------------------------

 The electronic state is 1-A.
 Alpha  occ. eigenvalues --  -19.22180 -19.16997 -19.16852 -19.12111 -19.11713
 Alpha  occ. eigenvalues --  -14.40518 -14.36848 -10.29615 -10.27372 -10.25137
 Alpha  occ. eigenvalues --  -10.25065 -10.24340 -10.24246 -10.24214 -10.24089
 Alpha  occ. eigenvalues --  -10.24045 -10.23632 -10.23099 -10.22620 -10.20259
 Alpha  occ. eigenvalues --  -10.20211 -10.20034 -10.19796 -10.19466 -10.19427
 Alpha  occ. eigenvalues --  -10.19360 -10.19344 -10.19341 -10.19122 -10.19082
 Alpha  occ. eigenvalues --  -10.18593 -10.18133 -10.17470  -1.11866  -1.06637
 Alpha  occ. eigenvalues --   -1.04188  -1.03875  -1.02106  -1.00564  -0.92895
 Alpha  occ. eigenvalues --   -0.85734  -0.85351  -0.81980  -0.80913  -0.79671
 Alpha  occ. eigenvalues --   -0.77144  -0.76360  -0.75866  -0.75111  -0.73580
 Alpha  occ. eigenvalues --   -0.72534  -0.71374  -0.67667  -0.66777  -0.64878
 Alpha  occ. eigenvalues --   -0.62929  -0.61113  -0.60924  -0.60329  -0.59967
 Alpha  occ. eigenvalues --   -0.58974  -0.57881  -0.57388  -0.55393  -0.54825
 Alpha  occ. eigenvalues --   -0.52763  -0.50976  -0.50906  -0.50431  -0.50247
 Alpha  occ. eigenvalues --   -0.49750  -0.48054  -0.47281  -0.46930  -0.46165
 Alpha  occ. eigenvalues --   -0.45709  -0.45568  -0.44715  -0.44282  -0.44052
 Alpha  occ. eigenvalues --   -0.43632  -0.43224  -0.42763  -0.42480  -0.41572
 Alpha  occ. eigenvalues --   -0.41303  -0.41110  -0.40976  -0.40709  -0.40396
 Alpha  occ. eigenvalues --   -0.40127  -0.39866  -0.39316  -0.38642  -0.37699
 Alpha  occ. eigenvalues --   -0.37582  -0.37321  -0.36174  -0.35996  -0.35380
 Alpha  occ. eigenvalues --   -0.35017  -0.34589  -0.34254  -0.33832  -0.32342
 Alpha  occ. eigenvalues --   -0.29606  -0.29132  -0.28872  -0.28660  -0.26220
 Alpha  occ. eigenvalues --   -0.25784  -0.24727  -0.23696  -0.23473  -0.23184
 Alpha  occ. eigenvalues --   -0.21485  -0.20664
 Alpha virt. eigenvalues --   -0.05405  -0.02140  -0.00090   0.00811   0.01159
 Alpha virt. eigenvalues --    0.02178   0.02905   0.05901   0.07688   0.08367
 Alpha virt. eigenvalues --    0.09733   0.10318   0.10922   0.11407   0.11700

 Mulliken charges:
               1
     1  C   -0.550739
     2  C    0.141141
     3  C   -0.261064
     4  C    0.346213
     5  C    0.337741
     6  C   -0.259865
     7  C    0.103471
     8  C   -0.233441
     9  N   -0.580355
    10  C    0.604119
    11  O   -0.523313
    12  C   -0.257702
    13  N   -0.513008
    14  C    0.018945
    15  C   -0.032346
    16  C    0.327363
    17  O   -0.487729
    18  C    0.271956
    19  C   -0.191735
    20  C   -0.193582
    21  C    0.108578
    22  O   -0.411037
    23  C    0.068274
    24  C   -0.220109
    25  C   -0.138575
    26  C   -0.150990
    27  C   -0.162702
    28  C    0.280683
    29  O   -0.537170
    30  C   -0.052268
    31  C   -0.288644
    32  C   -0.050714
    33  O   -0.534094
    34  H    0.163292
    35  H    0.185511
    36  H    0.153791
    37  H    0.133807
    38  H    0.132591
    39  H    0.196406
    40  H    0.161496
    41  H    0.350045
    42  H    0.198770
    43  H    0.198604
    44  H    0.184538
    45  H    0.166949
    46  H    0.149774
    47  H    0.164998
    48  H    0.144984
    49  H    0.128836
    50  H    0.132336
    51  H    0.143512
    52  H    0.157495
    53  H    0.162931
    54  H    0.147867
    55  H    0.150377
    56  H    0.157762
    57  H    0.156028
 Sum of Mulliken charges =  -0.00000

 Dipole moment (field-independent basis, Debye):
    X=             -1.7317    Y=              1.3769    Z=              1.9268  Tot=              2.9338
 Quadrupole moment (field-independent basis, Debye-Ang):
   XX=           -159.1793   YY=           -187.1745   ZZ=           -188.3812
   XY=              7.5737   XZ=             -1.3006   YZ=              3.5368

 Normal termination of Gaussian 16 at Fri Nov  4 22:28:50 2022.
