 Gaussian 16, Revision B.01,
 Gaussian 16:  ES64L-G16RevB.01 20-Dec-2017

 -------------------------------------------------------------------
 #p b3lyp/6-31g(d) 6D 10F nosymm GFInput td=(50-50,nstate=2) SCF=XQC
 -------------------------------------------------------------------

 ------------------------------
 Gaussian input prepared by ASE
 ------------------------------
 Symbolic Z-matrix:
 Charge =  0 Multiplicity = 1

                          Input orientation:
 ---------------------------------------------------------------------
 Center     Atomic      Atomic             Coordinates (Angstroms)
 Number     Number       Type             X           Y           Z
 ---------------------------------------------------------------------
      1          6           0       -3.663816   -2.750856    1.671077
      2          6           0       -3.552226   -1.668036    0.619628
      3          6           0       -4.494427   -0.637692    0.588498
      4          6           0       -4.474847    0.372137   -0.377052
      5          6           0       -3.459534    0.366381   -1.351097
      6          6           0       -2.527135   -0.671686   -1.337515
      7          6           0       -2.552750   -1.684997   -0.376130
      8          6           0       -1.460386   -2.736699   -0.404069
      9          7           0       -0.293138   -2.351906    0.396980
     10          6           0        0.143528   -3.056201    1.467690
     11          8           0       -0.358911   -4.096037    1.880689
     12          6           0        1.347753   -2.465307    2.229415
     13          7           0        2.064149   -1.380265    1.585050
     14          6           0        1.910872   -0.043466    1.852351
     15          6           0        2.758040    0.713608    1.069583
     16          6           0        2.746689    2.188412    1.175512
     17          8           0        1.739492    2.785657    1.551425
     18          6           0        3.986288    2.935129    0.891581
     19          6           0        5.320370    2.603363    0.871496
     20          6           0        6.043788    3.817085    0.684682
     21          6           0        5.100040    4.801586    0.605008
     22          8           0        3.855499    4.291329    0.735964
     23          6           0        3.480642   -0.222939    0.227596
     24          6           0        4.413132   -0.112574   -0.820468
     25          6           0        4.872513   -1.265508   -1.445505
     26          6           0        4.416467   -2.540327   -1.058991
     27          6           0        3.475695   -2.685095   -0.046229
     28          6           0        3.018507   -1.521297    0.579517
     29          8           0       -3.330810    1.315786   -2.340379
     30          6           0       -3.612849    2.668065   -1.950657
     31          6           0       -5.103627    2.994403   -2.069348
     32          6           0       -5.957393    1.841718   -1.537923
     33          8           0       -5.458434    1.329940   -0.293866
     34          1           0       -4.039791   -3.688328    1.238736
     35          1           0       -2.704022   -2.989529    2.138858
     36          1           0       -4.363251   -2.453510    2.458419
     37          1           0       -5.294854   -0.603950    1.322382
     38          1           0       -1.758104   -0.657351   -2.106208
     39          1           0       -1.795559   -3.694768   -0.003777
     40          1           0       -1.132193   -2.901662   -1.437347
     41          1           0        0.164043   -1.478114    0.172555
     42          1           0        2.033208   -3.292631    2.433030
     43          1           0        0.979672   -2.112025    3.197331
     44          1           0        1.211832    0.300143    2.602212
     45          1           0        5.729716    1.611606    0.996273
     46          1           0        7.115673    3.942045    0.621591
     47          1           0        5.155490    5.869880    0.456570
     48          1           0        4.764305    0.860948   -1.144492
     49          1           0        5.593263   -1.181621   -2.254146
     50          1           0        4.794087   -3.422846   -1.567324
     51          1           0        3.101960   -3.665286    0.234681
     52          1           0       -3.017283    3.298202   -2.617461
     53          1           0       -3.261140    2.829837   -0.925212
     54          1           0       -5.379336    3.177029   -3.115677
     55          1           0       -5.306526    3.916796   -1.511028
     56          1           0       -6.005731    1.027845   -2.270725
     57          1           0       -6.978641    2.173579   -1.329435
 ---------------------------------------------------------------------

 SCF Done:  E(RB3LYP) =  -1490.82193592     A.U. after   15 cycles

 Excitation energies and oscillator strengths:

 Excited state symmetry could not be determined.
 Excited State   1:      Triplet-?Sym    2.8781 eV  430.78 nm  f=0.0000  <S**2>=2.000
     109 ->118         0.10178
     112 ->118        -0.13306
     113 ->118         0.29479
     114 ->118         0.27602
     115 ->118         0.10896
     116 ->118         0.48235
     116 ->119        -0.18708
 This state for optimization and/or second-order correction.
 Total Energy, E(TD-HF/TD-DFT) =  -1490.71616665
 Copying the excited state density for this state as the 1-particle RhoCI density.

 Excited state symmetry could not be determined.
 Excited State   2:      Triplet-?Sym    3.0699 eV  403.87 nm  f=0.0000  <S**2>=2.000
     112 ->118         0.13348
     113 ->118         0.45426
     113 ->124         0.10370
     114 ->118         0.25730
     116 ->118        -0.34228
     116 ->119         0.17116

 Excited state symmetry could not be determined.
 Excited State   3:      Singlet-?Sym    3.6065 eV  343.78 nm  f=0.0242  <S**2>=0.000
     112 ->118         0.51331
     113 ->118        -0.12532
     114 ->118        -0.17667
     116 ->118        -0.41011

 Excited state symmetry could not be determined.
 Excited State   4:      Singlet-?Sym    3.7707 eV  328.81 nm  f=0.0017  <S**2>=0.000
     117 ->118         0.70463

 Alpha  occ. eigenvalues --  -19.22180 -19.16997 -19.16852 -19.12111 -19.11713
 Alpha  occ. eigenvalues --  -14.40518 -14.36848 -10.29615 -10.27372 -10.25137
 Alpha  occ. eigenvalues --  -10.25065 -10.24340 -10.24246 -10.24215 -10.24089
 Alpha  occ. eigenvalues --  -10.24045 -10.23632 -10.23099 -10.22620 -10.20259
 Alpha  occ. eigenvalues --  -10.20211 -10.20034 -10.19796 -10.19466 -10.19427
 Alpha  occ. eigenvalues --  -10.19360 -10.19344 -10.19341 -10.19122 -10.19082
 Alpha  occ. eigenvalues --  -10.18593 -10.18133 -10.17470  -1.11866  -1.06637
 Alpha  occ. eigenvalues --   -1.04188  -1.03875  -1.02106  -1.00564  -0.92895
 Alpha  occ. eigenvalues --   -0.85734  -0.85351  -0.81980  -0.80913  -0.79671
 Alpha  occ. eigenvalues --   -0.77143  -0.76360  -0.75866  -0.75111  -0.73580
 Alpha  occ. eigenvalues --   -0.72534  -0.71374  -0.67667  -0.66777  -0.64878
 Alpha  occ. eigenvalues --   -0.62929  -0.61113  -0.60924  -0.60329  -0.59967
 Alpha  occ. eigenvalues --   -0.58974  -0.57881  -0.57388  -0.55393  -0.54825
 Alpha  occ. eigenvalues --   -0.52763  -0.50976  -0.50906  -0.50431  -0.50247
 Alpha  occ. eigenvalues --   -0.49750  -0.48054  -0.47281  -0.46930  -0.46165
 Alpha  occ. eigenvalues --   -0.45709  -0.45568  -0.44715  -0.44282  -0.44052
 Alpha  occ. eigenvalues --   -0.43632  -0.43224  -0.42763  -0.42480  -0.41572
 Alpha  occ. eigenvalues --   -0.41303  -0.41110  -0.40976  -0.40709  -0.40396
 Alpha  occ. eigenvalues --   -0.40127  -0.39866  -0.39316  -0.38642  -0.37699
 Alpha  occ. eigenvalues --   -0.37582  -0.37321  -0.36174  -0.35996  -0.35380
 Alpha  occ. eigenvalues --   -0.35017  -0.34589  -0.34254  -0.33832  -0.32342
 Alpha  occ. eigenvalues --   -0.29606  -0.29132  -0.28872  -0.28660  -0.26220
 Alpha  occ. eigenvalues --   -0.25784  -0.24727  -0.23696  -0.23473  -0.23184
 Alpha  occ. eigenvalues --   -0.21485  -0.20664
 Alpha virt. eigenvalues --   -0.05405  -0.02140  -0.00090   0.00811   0.01159
 Alpha virt. eigenvalues --    0.02178   0.02905   0.05901   0.07688   0.08367
 Alpha virt. eigenvalues --    0.09734   0.10318   0.10922   0.11407   0.11700

 Mulliken charges:
               1
     1  C   -0.550736
     2  C    0.141135
     3  C   -0.261064
     4  C    0.346212
     5  C    0.337749
     6  C   -0.259865
     7  C    0.103488
     8  C   -0.233458
     9  N   -0.580348
    10  C    0.604111
    11  O   -0.523310
    12  C   -0.257703
    13  N   -0.512986
    14  C    0.018940
    15  C   -0.032353
    16  C    0.327347
    17  O   -0.487725
    18  C    0.271964
    19  C   -0.191739
    20  C   -0.193584
    21  C    0.108586
    22  O   -0.411039
    23  C    0.068284
    24  C   -0.220102
    25  C   -0.138573
    26  C   -0.150991
    27  C   -0.162700
    28  C    0.280660
    29  O   -0.537172
    30  C   -0.052266
    31  C   -0.288634
    32  C   -0.050717
    33  O   -0.534104
    34  H    0.163292
    35  H    0.185510
    36  H    0.153790
    37  H    0.133807
    38  H    0.132589
    39  H    0.196406
    40  H    0.161499
    41  H    0.350046
    42  H    0.198771
    43  H    0.198605
    44  H    0.184537
    45  H    0.166949
    46  H    0.149773
    47  H    0.164998
    48  H    0.144983
    49  H    0.128836
    50  H    0.132335
    51  H    0.143510
    52  H    0.157495
    53  H    0.162930
    54  H    0.147864
    55  H    0.150376
    56  H    0.157763
    57  H    0.156028
 Sum of Mulliken charges =  -0.00000

 Dipole moment (field-independent basis, Debye):
    X=              1.8627    Y=              1.2063    Z=             -1.9190  Tot=              2.9338
 Quadrupole moment (field-independent basis, Debye-Ang):
   XX=           -157.6428   YY=           -189.7405   ZZ=           -186.9329
   XY=             -2.8023   XZ=              4.3198   YZ=             -3.9438

 Normal termination of Gaussian 16 at Sat Nov  5 09:49:11 2022.
