 Gaussian 16, Revision B.01,
 Gaussian 16:  ES64L-G16RevB.01 20-Dec-2017

 -----------------------------
 #p b3lyp/6-31g(d) opt SCF=XQC
 -----------------------------

 ------------------------------
 Gaussian input prepared by ASE
 ------------------------------
 Symbolic Z-matrix:
 Charge =  0 Multiplicity = 1

 SCF Done:  E(RB3LYP) =  -1452.52540489     A.U. after   15 cycles
 SCF Done:  E(RB3LYP) =  -1452.53186405     A.U. after   13 cycles
 SCF Done:  E(RB3LYP) =  -1452.53226859     A.U. after   12 cycles
 SCF Done:  E(RB3LYP) =  -1452.53316209     A.U. after   12 cycles
 SCF Done:  E(RB3LYP) =  -1452.53344914     A.U. after   13 cycles
 SCF Done:  E(RB3LYP) =  -1452.53353503     A.U. after   12 cycles
 SCF Done:  E(RB3LYP) =  -1452.53359790     A.U. after   12 cycles
 SCF Done:  E(RB3LYP) =  -1452.53364288     A.U. after   11 cycles
 SCF Done:  E(RB3LYP) =  -1452.53365052     A.U. after   10 cycles
 SCF Done:  E(RB3LYP) =  -1452.53365367     A.U. after    9 cycles
 SCF Done:  E(RB3LYP) =  -1452.53365964     A.U. after    7 cycles
 SCF Done:  E(RB3LYP) =  -1452.53365969     A.U. after    7 cycles
 SCF Done:  E(RB3LYP) =  -1452.53365974     A.U. after    7 cycles
 SCF Done:  E(RB3LYP) =  -1452.53365980     A.U. after    7 cycles
 SCF Done:  E(RB3LYP) =  -1452.53365986     A.U. after    7 cycles
 SCF Done:  E(RB3LYP) =  -1452.53365990     A.U. after    7 cycles
 SCF Done:  E(RB3LYP) =  -1452.53365993     A.U. after    7 cycles
 SCF Done:  E(RB3LYP) =  -1452.53365996     A.U. after    7 cycles
 SCF Done:  E(RB3LYP) =  -1452.53365997     A.U. after    7 cycles
 SCF Done:  E(RB3LYP) =  -1452.53365998     A.U. after    7 cycles
 Optimization completed.
    -- Stationary point found.

                         Standard orientation:
 ---------------------------------------------------------------------
 Center     Atomic      Atomic             Coordinates (Angstroms)
 Number     Number       Type             X           Y           Z
 ---------------------------------------------------------------------
      1          6           0       -1.703245    5.698204    0.896508
      2          6           0       -1.827582    4.244381    0.510879
      3          6           0       -0.688707    3.418719    0.496077
      4          6           0       -0.772707    2.076336    0.141513
      5          8           0        0.328661    1.264989    0.114078
      6          6           0        1.609406    1.832148    0.231485
      7          6           0        2.625119    0.753740   -0.177719
      8          8           0        2.371625   -0.093786   -1.013317
      9          7           0        3.840934    0.899661    0.455699
     10          6           0        5.033740    0.180352    0.250537
     11          6           0        5.147920   -0.872468   -0.672539
     12          6           0        6.365420   -1.528079   -0.815342
     13          6           0        7.482602   -1.156612   -0.049850
     14          6           0        8.731369   -1.840255   -0.205604
     15          7           0        9.747518   -2.393401   -0.330311
     16          6           0        7.361177   -0.104504    0.873516
     17          6           0        6.149686    0.554087    1.018856
     18          6           0       -2.019347    1.473912   -0.209786
     19          6           0       -2.242640    0.077237   -0.595025
     20          6           0       -1.105738   -0.915237   -0.582220
     21          6           0       -3.506022   -0.320670   -0.951100
     22          6           0       -3.879818   -1.722436   -1.415023
     23          6           0       -4.139220   -2.720192   -0.292131
     24          6           0       -5.165833   -2.499698    0.638833
     25          6           0       -5.409217   -3.418458    1.658919
     26          6           0       -4.634947   -4.576643    1.766913
     27          6           0       -3.618661   -4.810631    0.841399
     28          6           0       -3.375440   -3.887763   -0.178866
     29          6           0       -4.638591    0.603791   -0.895967
     30          8           0       -5.794912    0.332203   -1.147124
     31          8           0       -4.374269    1.906701   -0.511882
     32          6           0       -3.127986    2.340578   -0.186085
     33          6           0       -3.050120    3.692212    0.163378
     34          1           0       -2.677056    6.195753    0.894177
     35          1           0       -1.270954    5.807812    1.898780
     36          1           0       -1.048031    6.238395    0.201653
     37          1           0        0.265749    3.848111    0.778482
     38          1           0        1.726665    2.687443   -0.451271
     39          1           0        1.793333    2.190804    1.255890
     40          1           0        3.895660    1.619343    1.165041
     41          1           0        4.289716   -1.164624   -1.260253
     42          1           0        6.453684   -2.341188   -1.528550
     43          1           0        8.217297    0.190859    1.470976
     44          1           0        6.066111    1.368346    1.735322
     45          1           0       -1.448236   -1.913419   -0.846570
     46          1           0       -0.297443   -0.620620   -1.256359
     47          1           0       -0.659534   -0.969731    0.415344
     48          1           0       -3.104310   -2.117384   -2.078021
     49          1           0       -4.789564   -1.624422   -2.015056
     50          1           0       -5.784044   -1.611266    0.548097
     51          1           0       -6.211194   -3.232265    2.368905
     52          1           0       -4.827350   -5.292230    2.562018
     53          1           0       -3.013837   -5.711447    0.908994
     54          1           0       -2.586167   -4.084555   -0.901775
     55          1           0       -3.962207    4.279304    0.153092
 ---------------------------------------------------------------------

 The electronic state is 1-A.
 Alpha  occ. eigenvalues --  -19.21019 -19.20893 -19.15873 -19.12393 -14.41761
 Alpha  occ. eigenvalues --  -14.33870 -10.33287 -10.31119 -10.28883 -10.27860
 Alpha  occ. eigenvalues --  -10.27621 -10.27151 -10.24577 -10.23232 -10.23216
 Alpha  occ. eigenvalues --  -10.23027 -10.22919 -10.22858 -10.22222 -10.21906
 Alpha  occ. eigenvalues --  -10.21759 -10.20674 -10.20380 -10.20178 -10.19726
 Alpha  occ. eigenvalues --  -10.19071 -10.18913 -10.18248 -10.18120 -10.18098
 Alpha  occ. eigenvalues --  -10.18044 -10.17978 -10.17578  -1.11460  -1.10472
 Alpha  occ. eigenvalues --   -1.07376  -1.02010  -0.98219  -0.91058  -0.88380
 Alpha  occ. eigenvalues --   -0.87884  -0.85104  -0.83707  -0.81026  -0.79256
 Alpha  occ. eigenvalues --   -0.78416  -0.77614  -0.76181  -0.74621  -0.73433
 Alpha  occ. eigenvalues --   -0.72121  -0.71018  -0.68578  -0.67474  -0.65937
 Alpha  occ. eigenvalues --   -0.64871  -0.62028  -0.60868  -0.60160  -0.59524
 Alpha  occ. eigenvalues --   -0.57908  -0.57503  -0.57129  -0.55658  -0.54641
 Alpha  occ. eigenvalues --   -0.52435  -0.52291  -0.51282  -0.50429  -0.49858
 Alpha  occ. eigenvalues --   -0.48359  -0.47278  -0.47124  -0.46471  -0.45974
 Alpha  occ. eigenvalues --   -0.45470  -0.45066  -0.45018  -0.44669  -0.43652
 Alpha  occ. eigenvalues --   -0.43632  -0.42563  -0.42190  -0.41996  -0.41169
 Alpha  occ. eigenvalues --   -0.41144  -0.40889  -0.40742  -0.40216  -0.40094
 Alpha  occ. eigenvalues --   -0.39408  -0.38861  -0.38678  -0.38216  -0.38088
 Alpha  occ. eigenvalues --   -0.36832  -0.36160  -0.35853  -0.35032  -0.34880
 Alpha  occ. eigenvalues --   -0.34002  -0.33613  -0.33415  -0.32531  -0.32441
 Alpha  occ. eigenvalues --   -0.31775  -0.29539  -0.28934  -0.28696  -0.26901
 Alpha  occ. eigenvalues --   -0.25198  -0.24084  -0.23948  -0.23588  -0.22259
 Alpha virt. eigenvalues --   -0.06453  -0.05721  -0.03461  -0.01325  -0.00650
 Alpha virt. eigenvalues --    0.00429   0.00885   0.01015   0.03003   0.03426
 Alpha virt. eigenvalues --    0.06752   0.07748   0.07899   0.08114   0.08608

 Mulliken charges:
               1
     1  C   -0.535153
     2  C    0.183004
     3  C   -0.251245
     4  C    0.306206
     5  O   -0.509099
     6  C   -0.125022
     7  C    0.614017
     8  O   -0.471901
     9  N   -0.726093
    10  C    0.374379
    11  C   -0.164888
    12  C   -0.152122
    13  C    0.136221
    14  C    0.233266
    15  N   -0.475662
    16  C   -0.139528
    17  C   -0.202048
    18  C    0.043294
    19  C    0.133643
    20  C   -0.515667
    21  C   -0.009782
    22  C   -0.448967
    23  C    0.182049
    24  C   -0.186187
    25  C   -0.128900
    26  C   -0.131289
    27  C   -0.129220
    28  C   -0.194351
    29  C    0.577123
    30  O   -0.485432
    31  O   -0.514442
    32  C    0.306368
    33  C   -0.241199
    34  H    0.168465
    35  H    0.165736
    36  H    0.167512
    37  H    0.125050
    38  H    0.182342
    39  H    0.148826
    40  H    0.337548
    41  H    0.201910
    42  H    0.167807
    43  H    0.164512
    44  H    0.138457
    45  H    0.159341
    46  H    0.198842
    47  H    0.172387
    48  H    0.152142
    49  H    0.192646
    50  H    0.157149
    51  H    0.128268
    52  H    0.125104
    53  H    0.125448
    54  H    0.120522
    55  H    0.148614
 Sum of Mulliken charges =  -0.00000

 Dipole moment (field-independent basis, Debye):
    X=              2.6521    Y=              6.0520    Z=              3.5313  Tot=              7.4920
 Quadrupole moment (field-independent basis, Debye-Ang):
   XX=           -273.3183   YY=           -171.7496   ZZ=           -184.7099
   XY=             30.2925   XZ=              3.9964   YZ=              6.5127

 Normal termination of Gaussian 16 at Fri Nov  4 23:00:59 2022.
