 Gaussian 16, Revision B.01,
 Gaussian 16:  ES64L-G16RevB.01 20-Dec-2017

 -------------------------------------------------------------------
 #p b3lyp/6-31g(d) 6D 10F nosymm GFInput td=(50-50,nstate=2) SCF=XQC
 -------------------------------------------------------------------

 ------------------------------
 Gaussian input prepared by ASE
 ------------------------------
 Symbolic Z-matrix:
 Charge =  0 Multiplicity = 1

                          Input orientation:
 ---------------------------------------------------------------------
 Center     Atomic      Atomic             Coordinates (Angstroms)
 Number     Number       Type             X           Y           Z
 ---------------------------------------------------------------------
      1          6           0       -0.325782    5.802616   -1.152104
      2          6           0       -0.712377    4.343747   -1.156250
      3          6           0        0.184764    3.374973   -0.670876
      4          6           0       -0.143069    2.023210   -0.665729
      5          8           0        0.723951    1.070219   -0.205153
      6          6           0        2.057136    1.421539    0.068622
      7          6           0        2.850788    0.114508    0.223128
      8          8           0        2.565794   -0.895294   -0.393200
      9          7           0        3.928064    0.243087    1.073811
     10          6           0        4.936779   -0.694443    1.366749
     11          6           0        4.971041   -1.985398    0.813759
     12          6           0        6.006644   -2.848122    1.153994
     13          6           0        7.017947   -2.450899    2.043681
     14          6           0        8.079251   -3.349136    2.386970
     15          7           0        8.943217   -4.076473    2.667372
     16          6           0        6.976549   -1.159300    2.595349
     17          6           0        5.946908   -0.294011    2.258165
     18          6           0       -1.408598    1.560469   -1.139803
     19          6           0       -1.876384    0.171846   -1.183086
     20          6           0       -1.025178   -0.944058   -0.628179
     21          6           0       -3.109270   -0.098247   -1.720019
     22          6           0       -3.707331   -1.490736   -1.872305
     23          6           0       -4.395886   -2.031414   -0.624406
     24          6           0       -5.496866   -1.362921   -0.067445
     25          6           0       -6.132644   -1.864351    1.067583
     26          6           0       -5.683910   -3.044609    1.666063
     27          6           0       -4.596947   -3.722291    1.115225
     28          6           0       -3.960332   -3.217047   -0.021099
     29          6           0       -3.984802    0.974419   -2.192470
     30          8           0       -5.105444    0.837065   -2.638805
     31          8           0       -3.499524    2.268061   -2.115287
     32          6           0       -2.268954    2.565272   -1.620332
     33          6           0       -1.943871    3.925136   -1.634199
     34          1           0       -1.138775    6.431333   -1.525769
     35          1           0       -0.073243    6.143825   -0.140550
     36          1           0        0.554490    5.981629   -1.782190
     37          1           0        1.143758    3.703654   -0.286931
     38          1           0        2.495208    1.989680   -0.766090
     39          1           0        2.126629    2.044427    0.973636
     40          1           0        4.016870    1.127539    1.557506
     41          1           0        4.192524   -2.296798    0.132424
     42          1           0        6.033238   -3.845253    0.726650
     43          1           0        7.752020   -0.841518    3.284406
     44          1           0        5.924454    0.704419    2.689394
     45          1           0       -1.536135   -1.902266   -0.693852
     46          1           0       -0.059941   -1.014108   -1.136129
     47          1           0       -0.796791   -0.760162    0.425967
     48          1           0       -2.936415   -2.196849   -2.194882
     49          1           0       -4.441691   -1.432304   -2.681370
     50          1           0       -5.862796   -0.455923   -0.539861
     51          1           0       -6.986261   -1.334455    1.482871
     52          1           0       -6.181915   -3.434488    2.549952
     53          1           0       -4.242399   -4.645811    1.566065
     54          1           0       -3.118923   -3.758734   -0.448745
     55          1           0       -2.675569    4.624748   -2.023875
 ---------------------------------------------------------------------

 SCF Done:  E(RB3LYP) =  -1452.53365869     A.U. after   15 cycles

 Excitation energies and oscillator strengths:

 Excited state symmetry could not be determined.
 Excited State   1:      Triplet-?Sym    2.6995 eV  459.29 nm  f=0.0000  <S**2>=2.000
     114 ->117         0.20083
     115 ->117         0.64733
 This state for optimization and/or second-order correction.
 Total Energy, E(TD-HF/TD-DFT) =  -1452.43445381
 Copying the excited state density for this state as the 1-particle RhoCI density.

 Excited state symmetry could not be determined.
 Excited State   2:      Triplet-?Sym    3.1924 eV  388.37 nm  f=0.0000  <S**2>=2.000
     109 ->118        -0.22812
     111 ->116         0.65083

 Excited state symmetry could not be determined.
 Excited State   3:      Singlet-?Sym    3.9456 eV  314.24 nm  f=0.0043  <S**2>=0.000
     115 ->116         0.69887

 Excited state symmetry could not be determined.
 Excited State   4:      Singlet-?Sym    4.0736 eV  304.36 nm  f=0.2121  <S**2>=0.000
     114 ->117        -0.31403
     115 ->117         0.61441

 Alpha  occ. eigenvalues --  -19.21019 -19.20893 -19.15873 -19.12392 -14.41761
 Alpha  occ. eigenvalues --  -14.33870 -10.33287 -10.31119 -10.28883 -10.27860
 Alpha  occ. eigenvalues --  -10.27621 -10.27151 -10.24577 -10.23232 -10.23216
 Alpha  occ. eigenvalues --  -10.23027 -10.22919 -10.22858 -10.22222 -10.21906
 Alpha  occ. eigenvalues --  -10.21759 -10.20674 -10.20380 -10.20178 -10.19726
 Alpha  occ. eigenvalues --  -10.19071 -10.18913 -10.18248 -10.18120 -10.18098
 Alpha  occ. eigenvalues --  -10.18043 -10.17978 -10.17578  -1.11460  -1.10472
 Alpha  occ. eigenvalues --   -1.07376  -1.02010  -0.98219  -0.91058  -0.88380
 Alpha  occ. eigenvalues --   -0.87884  -0.85104  -0.83707  -0.81026  -0.79256
 Alpha  occ. eigenvalues --   -0.78416  -0.77614  -0.76181  -0.74621  -0.73433
 Alpha  occ. eigenvalues --   -0.72121  -0.71018  -0.68578  -0.67474  -0.65937
 Alpha  occ. eigenvalues --   -0.64871  -0.62028  -0.60868  -0.60160  -0.59524
 Alpha  occ. eigenvalues --   -0.57908  -0.57503  -0.57129  -0.55658  -0.54641
 Alpha  occ. eigenvalues --   -0.52435  -0.52291  -0.51282  -0.50429  -0.49858
 Alpha  occ. eigenvalues --   -0.48359  -0.47278  -0.47124  -0.46471  -0.45974
 Alpha  occ. eigenvalues --   -0.45470  -0.45066  -0.45018  -0.44669  -0.43652
 Alpha  occ. eigenvalues --   -0.43632  -0.42563  -0.42190  -0.41996  -0.41170
 Alpha  occ. eigenvalues --   -0.41144  -0.40889  -0.40742  -0.40216  -0.40094
 Alpha  occ. eigenvalues --   -0.39408  -0.38861  -0.38678  -0.38216  -0.38088
 Alpha  occ. eigenvalues --   -0.36832  -0.36160  -0.35853  -0.35032  -0.34880
 Alpha  occ. eigenvalues --   -0.34002  -0.33613  -0.33415  -0.32531  -0.32441
 Alpha  occ. eigenvalues --   -0.31775  -0.29539  -0.28934  -0.28696  -0.26901
 Alpha  occ. eigenvalues --   -0.25198  -0.24084  -0.23948  -0.23588  -0.22259
 Alpha virt. eigenvalues --   -0.06453  -0.05721  -0.03461  -0.01325  -0.00650
 Alpha virt. eigenvalues --    0.00429   0.00885   0.01015   0.03003   0.03426
 Alpha virt. eigenvalues --    0.06752   0.07748   0.07899   0.08114   0.08608

 Mulliken charges:
               1
     1  C   -0.535148
     2  C    0.182998
     3  C   -0.251248
     4  C    0.306200
     5  O   -0.509094
     6  C   -0.125024
     7  C    0.614020
     8  O   -0.471901
     9  N   -0.726104
    10  C    0.374392
    11  C   -0.164886
    12  C   -0.152126
    13  C    0.136213
    14  C    0.233263
    15  N   -0.475656
    16  C   -0.139519
    17  C   -0.202054
    18  C    0.043353
    19  C    0.133611
    20  C   -0.515669
    21  C   -0.009766
    22  C   -0.448998
    23  C    0.182073
    24  C   -0.186203
    25  C   -0.128890
    26  C   -0.131291
    27  C   -0.129223
    28  C   -0.194348
    29  C    0.577130
    30  O   -0.485429
    31  O   -0.514437
    32  C    0.306330
    33  C   -0.241201
    34  H    0.168465
    35  H    0.165736
    36  H    0.167512
    37  H    0.125053
    38  H    0.182342
    39  H    0.148826
    40  H    0.337549
    41  H    0.201910
    42  H    0.167808
    43  H    0.164512
    44  H    0.138458
    45  H    0.159346
    46  H    0.198839
    47  H    0.172387
    48  H    0.152144
    49  H    0.192648
    50  H    0.157149
    51  H    0.128267
    52  H    0.125104
    53  H    0.125448
    54  H    0.120522
    55  H    0.148613
 Sum of Mulliken charges =  -0.00000

 Dipole moment (field-independent basis, Debye):
    X=              3.2900    Y=              6.3120    Z=              2.3376  Tot=              7.4920
 Quadrupole moment (field-independent basis, Debye-Ang):
   XX=           -252.3250   YY=           -183.2361   ZZ=           -194.7621
   XY=             44.1406   XZ=            -22.2913   YZ=             13.0176

 Normal termination of Gaussian 16 at Sat Nov  5 09:43:07 2022.
