 Gaussian 16, Revision B.01,
 Gaussian 16:  ES64L-G16RevB.01 20-Dec-2017

 -------------------------------------------------------------------
 #p b3lyp/6-31g(d) 6D 10F nosymm GFInput td=(50-50,nstate=2) SCF=XQC
 -------------------------------------------------------------------

 ------------------------------
 Gaussian input prepared by ASE
 ------------------------------
 Symbolic Z-matrix:
 Charge =  0 Multiplicity = 1

                          Input orientation:
 ---------------------------------------------------------------------
 Center     Atomic      Atomic             Coordinates (Angstroms)
 Number     Number       Type             X           Y           Z
 ---------------------------------------------------------------------
      1          6           0       -5.133243   -3.913785    1.278039
      2          6           0       -4.376343   -2.742438    0.699007
      3          6           0       -3.572220   -1.947048    1.522764
      4          6           0       -2.858645   -0.856655    1.024620
      5          6           0       -2.962652   -0.554730   -0.331500
      6          7           0       -2.251973    0.570404   -0.870322
      7          6           0       -1.014100    0.535053   -1.493050
      8         16           0       -0.115699   -0.921482   -1.908637
      9          6           0        0.505006   -1.487289   -0.251779
     10          6           0        1.094070   -0.366987    0.606034
     11          8           0        0.383232    0.069025    1.511172
     12          6           0        2.431554    0.187281    0.383004
     13          6           0        2.926489    1.240464    1.222265
     14          6           0        4.171721    1.592962    0.788703
     15          6           0        5.119897    2.630267    1.298974
     16          7           0        4.467125    0.782871   -0.312521
     17          6           0        5.720463    0.825031   -1.048240
     18          6           0        6.747166   -0.112918   -0.482446
     19          6           0        6.765505   -0.971691    0.575887
     20          6           0        8.069260   -1.575388    0.580636
     21          6           0        8.740605   -1.038556   -0.471755
     22          8           0        7.948366   -0.141586   -1.134549
     23          6           0        3.425263   -0.082849   -0.565884
     24          6           0        3.521582   -1.038252   -1.715895
     25          7           0       -0.620147    1.753901   -1.794304
     26          7           0       -1.587996    2.616762   -1.367243
     27          6           0       -2.557794    1.915079   -0.800144
     28          6           0       -3.739812    2.542665   -0.187753
     29          6           0       -4.975035    1.895310   -0.024859
     30          6           0       -6.054807    2.571612    0.543139
     31          6           0       -5.923193    3.898957    0.951072
     32          6           0       -4.700017    4.553168    0.782853
     33          6           0       -3.617813    3.883705    0.220391
     34          6           0       -3.750511   -1.341087   -1.175079
     35          6           0       -4.461774   -2.436367   -0.677951
     36          6           0       -5.305678   -3.274066   -1.609263
     37          1           0       -4.840144   -4.859884    0.804830
     38          1           0       -6.215895   -3.810406    1.129252
     39          1           0       -4.952101   -4.007982    2.352706
     40          1           0       -3.497571   -2.187893    2.580305
     41          1           0       -2.205364   -0.268197    1.659861
     42          1           0       -0.320312   -1.927731    0.308706
     43          1           0        1.230481   -2.270461   -0.488215
     44          1           0        2.380713    1.675575    2.046358
     45          1           0        4.694530    3.095251    2.192277
     46          1           0        5.300609    3.431229    0.568822
     47          1           0        6.094960    2.207320    1.573422
     48          1           0        6.097657    1.853410   -1.031129
     49          1           0        5.528265    0.590101   -2.100551
     50          1           0        5.954558   -1.150086    1.267510
     51          1           0        8.446485   -2.309731    1.278591
     52          1           0        9.732599   -1.171428   -0.875481
     53          1           0        4.492747   -1.546690   -1.728863
     54          1           0        2.753687   -1.807391   -1.665821
     55          1           0        3.392306   -0.526669   -2.678942
     56          1           0       -5.104284    0.870320   -0.350677
     57          1           0       -7.004609    2.056571    0.660324
     58          1           0       -6.767025    4.421089    1.394223
     59          1           0       -4.587017    5.587851    1.095270
     60          1           0       -2.664725    4.382580    0.083511
     61          1           0       -3.807145   -1.089863   -2.230536
     62          1           0       -5.260188   -2.893560   -2.633776
     63          1           0       -4.971622   -4.319478   -1.626394
     64          1           0       -6.359446   -3.285188   -1.302392
 ---------------------------------------------------------------------

 SCF Done:  E(RB3LYP) =  -1889.56049909     A.U. after   16 cycles

 Excitation energies and oscillator strengths:

 Excited state symmetry could not be determined.
 Excited State   1:      Triplet-?Sym    3.0602 eV  405.15 nm  f=0.0000  <S**2>=2.000
     126 ->132         0.14631
     131 ->132         0.61029
     131 ->133        -0.23318
     131 ->138         0.11427
     131 ->139        -0.10097
 This state for optimization and/or second-order correction.
 Total Energy, E(TD-HF/TD-DFT) =  -1889.44803965
 Copying the excited state density for this state as the 1-particle RhoCI density.

 Excited state symmetry could not be determined.
 Excited State   2:      Triplet-?Sym    3.2746 eV  378.62 nm  f=0.0000  <S**2>=2.000
     125 ->137        -0.18749
     127 ->133        -0.15435
     128 ->133        -0.18128
     130 ->132         0.35736
     130 ->133         0.44497

 Excited state symmetry could not be determined.
 Excited State   3:      Singlet-?Sym    3.8430 eV  322.62 nm  f=0.0530  <S**2>=0.000
     124 ->132         0.20162
     126 ->132         0.22592
     127 ->132         0.25273
     128 ->132         0.24026
     130 ->132         0.39527
     131 ->132        -0.28505

 Excited state symmetry could not be determined.
 Excited State   4:      Singlet-?Sym    4.0639 eV  305.09 nm  f=0.0631  <S**2>=0.000
     124 ->132         0.14500
     127 ->132         0.13347
     128 ->132         0.12374
     130 ->132         0.15993
     131 ->132         0.62871

 Alpha  occ. eigenvalues --  -88.88876 -19.22149 -19.12067 -14.39956 -14.38919
 Alpha  occ. eigenvalues --  -14.33388 -14.32817 -10.26651 -10.25780 -10.25126
 Alpha  occ. eigenvalues --  -10.24991 -10.24672 -10.24210 -10.23655 -10.22856
 Alpha  occ. eigenvalues --  -10.21803 -10.21109 -10.20685 -10.20605 -10.20200
 Alpha  occ. eigenvalues --  -10.19879 -10.19562 -10.19561 -10.19444 -10.19401
 Alpha  occ. eigenvalues --  -10.19335 -10.19207 -10.19193 -10.19133 -10.18847
 Alpha  occ. eigenvalues --  -10.18780 -10.18699 -10.18526 -10.18342 -10.17559
 Alpha  occ. eigenvalues --  -10.16339  -7.94877  -5.91429  -5.91043  -5.90303
 Alpha  occ. eigenvalues --   -1.11513  -1.05216  -1.01952  -0.99088  -0.92659
 Alpha  occ. eigenvalues --   -0.86223  -0.85635  -0.82693  -0.82253  -0.80230
 Alpha  occ. eigenvalues --   -0.78888  -0.78375  -0.77734  -0.77102  -0.75811
 Alpha  occ. eigenvalues --   -0.74153  -0.73772  -0.72970  -0.70923  -0.69886
 Alpha  occ. eigenvalues --   -0.68836  -0.67720  -0.65084  -0.63057  -0.61631
 Alpha  occ. eigenvalues --   -0.61187  -0.60707  -0.60320  -0.59685  -0.57586
 Alpha  occ. eigenvalues --   -0.56991  -0.55624  -0.55405  -0.53497  -0.53142
 Alpha  occ. eigenvalues --   -0.51358  -0.50188  -0.49357  -0.49194  -0.47710
 Alpha  occ. eigenvalues --   -0.47358  -0.47056  -0.46311  -0.45608  -0.45183
 Alpha  occ. eigenvalues --   -0.44214  -0.44088  -0.44003  -0.43612  -0.43325
 Alpha  occ. eigenvalues --   -0.43228  -0.42411  -0.42177  -0.41926  -0.41663
 Alpha  occ. eigenvalues --   -0.41482  -0.41293  -0.41170  -0.40741  -0.40378
 Alpha  occ. eigenvalues --   -0.40158  -0.39572  -0.39535  -0.39361  -0.38973
 Alpha  occ. eigenvalues --   -0.38184  -0.37820  -0.37103  -0.36540  -0.36290
 Alpha  occ. eigenvalues --   -0.35776  -0.35529  -0.35133  -0.34741  -0.34624
 Alpha  occ. eigenvalues --   -0.33810  -0.33052  -0.30042  -0.28656  -0.28456
 Alpha  occ. eigenvalues --   -0.27754  -0.26212  -0.25282  -0.24879  -0.24434
 Alpha  occ. eigenvalues --   -0.23767  -0.23499  -0.23097  -0.23060  -0.21559
 Alpha  occ. eigenvalues --   -0.20466
 Alpha virt. eigenvalues --   -0.03638  -0.02467  -0.01519  -0.01000   0.00484
 Alpha virt. eigenvalues --    0.00637   0.01601   0.03945   0.06126   0.06606
 Alpha virt. eigenvalues --    0.07499   0.07763   0.08377   0.08652   0.10153

 Mulliken charges:
               1
     1  C   -0.534747
     2  C    0.145740
     3  C   -0.208848
     4  C   -0.129224
     5  C    0.208271
     6  N   -0.549066
     7  C    0.232897
     8  S    0.150399
     9  C   -0.544804
    10  C    0.420650
    11  O   -0.486723
    12  C   -0.023685
    13  C   -0.235868
    14  C    0.335994
    15  C   -0.537309
    16  N   -0.493186
    17  C   -0.248274
    18  C    0.342058
    19  C   -0.202050
    20  C   -0.183362
    21  C    0.083663
    22  O   -0.440105
    23  C    0.313931
    24  C   -0.538877
    25  N   -0.285280
    26  N   -0.363188
    27  C    0.428255
    28  C    0.122221
    29  C   -0.174248
    30  C   -0.141920
    31  C   -0.121435
    32  C   -0.138359
    33  C   -0.157447
    34  C   -0.184196
    35  C    0.118914
    36  C   -0.533350
    37  H    0.163443
    38  H    0.163363
    39  H    0.160123
    40  H    0.135354
    41  H    0.186811
    42  H    0.207733
    43  H    0.183423
    44  H    0.146344
    45  H    0.175459
    46  H    0.163640
    47  H    0.164826
    48  H    0.188186
    49  H    0.188516
    50  H    0.159056
    51  H    0.146013
    52  H    0.158303
    53  H    0.166766
    54  H    0.168324
    55  H    0.186980
    56  H    0.145555
    57  H    0.129163
    58  H    0.129754
    59  H    0.133487
    60  H    0.168933
    61  H    0.143517
    62  H    0.162111
    63  H    0.164531
    64  H    0.162842
 Sum of Mulliken charges =  -0.00000

 Dipole moment (field-independent basis, Debye):
    X=              1.1631    Y=             -4.7590    Z=              1.2967  Tot=              5.0677
 Quadrupole moment (field-independent basis, Debye-Ang):
   XX=           -159.4685   YY=           -205.4390   ZZ=           -218.3377
   XY=              7.3381   XZ=             -4.5164   YZ=              8.0315

 Normal termination of Gaussian 16 at Sat Nov  5 09:49:38 2022.
