 Gaussian 16, Revision B.01,
 Gaussian 16:  ES64L-G16RevB.01 20-Dec-2017

 -----------------------------
 #p b3lyp/6-31g(d) opt SCF=XQC
 -----------------------------

 ------------------------------
 Gaussian input prepared by ASE
 ------------------------------
 Symbolic Z-matrix:
 Charge =  0 Multiplicity = 1

 SCF Done:  E(RB3LYP) =  -1889.53368736     A.U. after   17 cycles
 SCF Done:  E(RB3LYP) =  -1889.54654716     A.U. after   16 cycles
 SCF Done:  E(RB3LYP) =  -1889.54926220     A.U. after   16 cycles
 SCF Done:  E(RB3LYP) =  -1889.55410252     A.U. after   15 cycles
 SCF Done:  E(RB3LYP) =  -1889.55554641     A.U. after   13 cycles
 SCF Done:  E(RB3LYP) =  -1889.55707806     A.U. after   13 cycles
 SCF Done:  E(RB3LYP) =  -1889.55790039     A.U. after   14 cycles
 SCF Done:  E(RB3LYP) =  -1889.55935501     A.U. after   13 cycles
 SCF Done:  E(RB3LYP) =  -1889.56010426     A.U. after   13 cycles
 SCF Done:  E(RB3LYP) =  -1889.56032807     A.U. after   12 cycles
 SCF Done:  E(RB3LYP) =  -1889.56050873     A.U. after    7 cycles
 SCF Done:  E(RB3LYP) =  -1889.56050889     A.U. after    8 cycles
 SCF Done:  E(RB3LYP) =  -1889.56050899     A.U. after    8 cycles
 SCF Done:  E(RB3LYP) =  -1889.56050908     A.U. after    8 cycles
 SCF Done:  E(RB3LYP) =  -1889.56050917     A.U. after    7 cycles
 SCF Done:  E(RB3LYP) =  -1889.56050926     A.U. after    7 cycles
 SCF Done:  E(RB3LYP) =  -1889.56050933     A.U. after    7 cycles
 SCF Done:  E(RB3LYP) =  -1889.56050937     A.U. after    7 cycles
 SCF Done:  E(RB3LYP) =  -1889.56050941     A.U. after    7 cycles
 SCF Done:  E(RB3LYP) =  -1889.56050943     A.U. after    6 cycles
 Optimization completed.
    -- Stationary point found.

                         Standard orientation:
 ---------------------------------------------------------------------
 Center     Atomic      Atomic             Coordinates (Angstroms)
 Number     Number       Type             X           Y           Z
 ---------------------------------------------------------------------
      1          6           0       -5.130789   -4.098234    1.749353
      2          6           0       -4.401341   -2.961858    1.073494
      3          6           0       -3.640139   -2.064493    1.830555
      4          6           0       -2.952934   -1.002457    1.242232
      5          6           0       -3.039930   -0.834619   -0.138093
      6          7           0       -2.355951    0.258012   -0.770274
      7          6           0       -1.105512    0.206306   -1.366173
      8         16           0       -0.151862   -1.251302   -1.625524
      9          6           0        0.454146   -1.635257    0.087930
     10          6           0        0.989135   -0.418822    0.844230
     11          8           0        0.246642    0.076515    1.691588
     12          6           0        2.311904    0.157510    0.591362
     13          6           0        2.755398    1.302160    1.334061
     14          6           0        3.996753    1.654556    0.889439
     15          6           0        4.900182    2.767754    1.313729
     16          7           0        4.340242    0.754090   -0.124160
     17          6           0        5.605832    0.769287   -0.839677
     18          6           0        6.651303   -0.074651   -0.169791
     19          6           0        6.676814   -0.827752    0.966028
     20          6           0        7.999286   -1.382950    1.050123
     21          6           0        8.673378   -0.925796   -0.037549
     22          8           0        7.865459   -0.123766   -0.796172
     23          6           0        3.332496   -0.167203   -0.310730
     24          6           0        3.482769   -1.223739   -1.362276
     25          7           0       -0.745794    1.403840   -1.776124
     26          7           0       -1.749631    2.269516   -1.449688
     27          6           0       -2.706962    1.591919   -0.834181
     28          6           0       -3.920773    2.233765   -0.304323
     29          6           0       -5.137119    1.562632   -0.100704
     30          6           0       -6.249477    2.252247    0.382002
     31          6           0       -6.169483    3.616113    0.663156
     32          6           0       -4.965295    4.293146    0.453383
     33          6           0       -3.850841    3.610944   -0.024428
     34          6           0       -3.784784   -1.724322   -0.915477
     35          6           0       -4.469498   -2.791237   -0.327660
     36          6           0       -5.266940   -3.742293   -1.188378
     37          1           0       -4.797570   -5.074374    1.373779
     38          1           0       -6.213090   -4.046861    1.573444
     39          1           0       -4.967948   -4.083514    2.830953
     40          1           0       -3.578574   -2.200968    2.907382
     41          1           0       -2.331961   -0.334088    1.828974
     42          1           0       -0.367232   -2.048599    0.674247
     43          1           0        1.209407   -2.411882   -0.060421
     44          1           0        2.179478    1.794585    2.103578
     45          1           0        4.442236    3.300631    2.151264
     46          1           0        5.068978    3.501409    0.513369
     47          1           0        5.882950    2.406692    1.643505
     48          1           0        5.948743    1.807024   -0.914817
     49          1           0        5.442278    0.428873   -1.867713
     50          1           0        5.858623   -0.967426    1.658023
     51          1           0        8.386474   -2.034153    1.821304
     52          1           0        9.676980   -1.062175   -0.410220
     53          1           0        4.470126   -1.697319   -1.310439
     54          1           0        2.739627   -2.010647   -1.251549
     55          1           0        3.355884   -0.810812   -2.371870
     56          1           0       -5.226272    0.507460   -0.329030
     57          1           0       -7.184038    1.718243    0.532192
     58          1           0       -7.038557    4.148613    1.040268
     59          1           0       -4.892432    5.356126    0.667173
     60          1           0       -2.912076    4.127105   -0.192618
     61          1           0       -3.828727   -1.576702   -1.990925
     62          1           0       -5.213679   -3.459591   -2.243708
     63          1           0       -4.898563   -4.772456   -1.099847
     64          1           0       -6.325642   -3.760510   -0.899345
 ---------------------------------------------------------------------

 The electronic state is 1-A.
 Alpha  occ. eigenvalues --  -88.88877 -19.22149 -19.12067 -14.39956 -14.38919
 Alpha  occ. eigenvalues --  -14.33388 -14.32817 -10.26651 -10.25780 -10.25125
 Alpha  occ. eigenvalues --  -10.24991 -10.24672 -10.24210 -10.23655 -10.22856
 Alpha  occ. eigenvalues --  -10.21803 -10.21109 -10.20685 -10.20605 -10.20200
 Alpha  occ. eigenvalues --  -10.19879 -10.19562 -10.19561 -10.19445 -10.19401
 Alpha  occ. eigenvalues --  -10.19335 -10.19207 -10.19193 -10.19133 -10.18847
 Alpha  occ. eigenvalues --  -10.18780 -10.18700 -10.18527 -10.18342 -10.17559
 Alpha  occ. eigenvalues --  -10.16339  -7.94878  -5.91429  -5.91044  -5.90303
 Alpha  occ. eigenvalues --   -1.11513  -1.05216  -1.01952  -0.99087  -0.92659
 Alpha  occ. eigenvalues --   -0.86223  -0.85635  -0.82693  -0.82253  -0.80230
 Alpha  occ. eigenvalues --   -0.78888  -0.78375  -0.77734  -0.77102  -0.75811
 Alpha  occ. eigenvalues --   -0.74153  -0.73772  -0.72970  -0.70923  -0.69886
 Alpha  occ. eigenvalues --   -0.68836  -0.67720  -0.65084  -0.63057  -0.61631
 Alpha  occ. eigenvalues --   -0.61187  -0.60707  -0.60320  -0.59685  -0.57586
 Alpha  occ. eigenvalues --   -0.56991  -0.55624  -0.55405  -0.53497  -0.53142
 Alpha  occ. eigenvalues --   -0.51358  -0.50188  -0.49357  -0.49194  -0.47710
 Alpha  occ. eigenvalues --   -0.47358  -0.47056  -0.46311  -0.45608  -0.45183
 Alpha  occ. eigenvalues --   -0.44214  -0.44088  -0.44003  -0.43612  -0.43325
 Alpha  occ. eigenvalues --   -0.43228  -0.42411  -0.42177  -0.41926  -0.41663
 Alpha  occ. eigenvalues --   -0.41482  -0.41293  -0.41170  -0.40741  -0.40378
 Alpha  occ. eigenvalues --   -0.40158  -0.39572  -0.39535  -0.39361  -0.38973
 Alpha  occ. eigenvalues --   -0.38184  -0.37820  -0.37103  -0.36541  -0.36290
 Alpha  occ. eigenvalues --   -0.35776  -0.35529  -0.35133  -0.34741  -0.34624
 Alpha  occ. eigenvalues --   -0.33810  -0.33052  -0.30042  -0.28656  -0.28456
 Alpha  occ. eigenvalues --   -0.27754  -0.26212  -0.25283  -0.24879  -0.24434
 Alpha  occ. eigenvalues --   -0.23767  -0.23499  -0.23098  -0.23060  -0.21559
 Alpha  occ. eigenvalues --   -0.20465
 Alpha virt. eigenvalues --   -0.03638  -0.02467  -0.01519  -0.01000   0.00484
 Alpha virt. eigenvalues --    0.00637   0.01601   0.03945   0.06126   0.06606
 Alpha virt. eigenvalues --    0.07499   0.07763   0.08377   0.08652   0.10153

 Mulliken charges:
               1
     1  C   -0.534750
     2  C    0.145754
     3  C   -0.208853
     4  C   -0.129225
     5  C    0.208251
     6  N   -0.549017
     7  C    0.232899
     8  S    0.150366
     9  C   -0.544796
    10  C    0.420668
    11  O   -0.486729
    12  C   -0.023676
    13  C   -0.235861
    14  C    0.335984
    15  C   -0.537316
    16  N   -0.493179
    17  C   -0.248263
    18  C    0.342058
    19  C   -0.202065
    20  C   -0.183351
    21  C    0.083655
    22  O   -0.440099
    23  C    0.313911
    24  C   -0.538877
    25  N   -0.285276
    26  N   -0.363177
    27  C    0.428214
    28  C    0.122211
    29  C   -0.174225
    30  C   -0.141935
    31  C   -0.121431
    32  C   -0.138359
    33  C   -0.157446
    34  C   -0.184180
    35  C    0.118898
    36  C   -0.533354
    37  H    0.163444
    38  H    0.163363
    39  H    0.160124
    40  H    0.135354
    41  H    0.186813
    42  H    0.207731
    43  H    0.183424
    44  H    0.146343
    45  H    0.175460
    46  H    0.163641
    47  H    0.164831
    48  H    0.188185
    49  H    0.188514
    50  H    0.159060
    51  H    0.146013
    52  H    0.158303
    53  H    0.166767
    54  H    0.168326
    55  H    0.186982
    56  H    0.145551
    57  H    0.129163
    58  H    0.129755
    59  H    0.133487
    60  H    0.168933
    61  H    0.143517
    62  H    0.162112
    63  H    0.164533
    64  H    0.162843
 Sum of Mulliken charges =  -0.00000

 Dipole moment (field-independent basis, Debye):
    X=              1.2922    Y=             -4.5713    Z=              1.7653  Tot=              5.0678
 Quadrupole moment (field-independent basis, Debye-Ang):
   XX=           -160.1017   YY=           -202.1443   ZZ=           -219.2425
   XY=              8.5697   XZ=             -4.3687   YZ=              5.4980

 Normal termination of Gaussian 16 at Fri Nov  4 22:57:54 2022.
