 Gaussian 16, Revision B.01,
 Gaussian 16:  ES64L-G16RevB.01 20-Dec-2017

 -------------------------------------------------------------------
 #p b3lyp/6-31g(d) 6D 10F nosymm GFInput td=(50-50,nstate=2) SCF=XQC
 -------------------------------------------------------------------

 ------------------------------
 Gaussian input prepared by ASE
 ------------------------------
 Symbolic Z-matrix:
 Charge =  0 Multiplicity = 1

                          Input orientation:
 ---------------------------------------------------------------------
 Center     Atomic      Atomic             Coordinates (Angstroms)
 Number     Number       Type             X           Y           Z
 ---------------------------------------------------------------------
      1          8           0       -5.779149    0.752426   -0.429093
      2          6           0       -4.564688    0.637678   -0.437650
      3          6           0       -3.663459    1.161227   -1.467340
      4          6           0       -4.185090    1.865970   -2.563984
      5          6           0       -3.330383    2.362661   -3.536056
      6          6           0       -1.943208    2.159448   -3.419168
      7          6           0       -1.416031    1.465077   -2.340932
      8          6           0       -2.272591    0.953810   -1.347084
      9          7           0       -1.723311    0.264655   -0.277430
     10          6           0       -2.517004   -0.197542    0.627919
     11         16           0       -1.857647   -1.105041    2.025089
     12          6           0       -0.060723   -1.054592    1.640529
     13          6           0        0.613383    0.248213    2.086545
     14          8           0        0.458547    0.481959    3.479931
     15          6           0        2.124767    0.195166    1.867560
     16          8           0        2.356332    0.007803    0.477923
     17          6           0        3.643987   -0.078562    0.021815
     18          6           0        4.782834    0.036678    0.861278
     19          6           0        6.045765   -0.060310    0.318193
     20          6           0        6.244560   -0.274248   -1.068473
     21          6           0        7.537903   -0.377526   -1.648564
     22          6           0        7.690467   -0.586066   -2.999801
     23          6           0        6.549349   -0.701186   -3.834289
     24          6           0        5.283280   -0.605864   -3.305002
     25          6           0        5.089241   -0.390033   -1.911241
     26          6           0        3.801288   -0.287819   -1.335863
     27          7           0       -3.898484   -0.055552    0.616668
     28          6           0       -4.727107   -0.605961    1.665952
     29          6           0       -5.069662    0.188310    2.761266
     30          6           0       -5.876778   -0.341245    3.767398
     31          6           0       -6.340858   -1.654909    3.673789
     32          6           0       -6.001081   -2.440502    2.570715
     33          6           0       -5.195173   -1.916522    1.560446
     34          1           0       -5.259712    2.005533   -2.622538
     35          1           0       -3.729215    2.908364   -4.386165
     36          1           0       -1.276322    2.551744   -4.182421
     37          1           0       -0.348565    1.300451   -2.233008
     38          1           0        0.352698   -1.901424    2.199103
     39          1           0        0.071317   -1.217354    0.570646
     40          1           0        0.201370    1.075121    1.493073
     41          1           0       -0.495042    0.548929    3.652790
     42          1           0        2.553336   -0.629817    2.454370
     43          1           0        2.567232    1.135802    2.220054
     44          1           0        4.668063    0.201449    1.926387
     45          1           0        6.915277    0.028938    0.965258
     46          1           0        8.408345   -0.288390   -1.002292
     47          1           0        8.683931   -0.663491   -3.432873
     48          1           0        6.680319   -0.866233   -4.900547
     49          1           0        4.409659   -0.694803   -3.946464
     50          1           0        2.915772   -0.374637   -1.959044
     51          1           0       -4.708387    1.210608    2.815547
     52          1           0       -6.145544    0.273702    4.621457
     53          1           0       -6.970328   -2.065008    4.458593
     54          1           0       -6.365640   -3.460700    2.493200
     55          1           0       -4.927841   -2.513056    0.693822
 ---------------------------------------------------------------------

 SCF Done:  E(RB3LYP) =  -1775.50952508     A.U. after   16 cycles

 Excitation energies and oscillator strengths:

 Excited state symmetry could not be determined.
 Excited State   1:      Triplet-?Sym    2.6143 eV  474.26 nm  f=0.0000  <S**2>=2.000
     111 ->128         0.12013
     117 ->121        -0.17342
     117 ->125         0.12083
     119 ->121         0.65319
 This state for optimization and/or second-order correction.
 Total Energy, E(TD-HF/TD-DFT) =  -1775.41345168
 Copying the excited state density for this state as the 1-particle RhoCI density.

 Excited state symmetry could not be determined.
 Excited State   2:      Triplet-?Sym    3.2595 eV  380.38 nm  f=0.0000  <S**2>=2.000
     114 ->120        -0.21994
     115 ->120        -0.16946
     118 ->120         0.16045
     118 ->122         0.58069

 Excited state symmetry could not be determined.
 Excited State   3:      Singlet-?Sym    3.9820 eV  311.36 nm  f=0.0001  <S**2>=0.000
     119 ->120         0.70621

 Excited state symmetry could not be determined.
 Excited State   4:      Singlet-?Sym    4.1002 eV  302.39 nm  f=0.0467  <S**2>=0.000
     117 ->121         0.13957
     117 ->125         0.15554
     119 ->121         0.65228
     119 ->125        -0.15284

 Alpha  occ. eigenvalues --  -88.90415 -19.18046 -19.15106 -19.12528 -14.40472
 Alpha  occ. eigenvalues --  -14.33541 -10.30715 -10.30206 -10.24970 -10.24711
 Alpha  occ. eigenvalues --  -10.24532 -10.24297 -10.23800 -10.22146 -10.20673
 Alpha  occ. eigenvalues --  -10.20644 -10.20455 -10.20442 -10.20407 -10.20378
 Alpha  occ. eigenvalues --  -10.20349 -10.20055 -10.19797 -10.19677 -10.19574
 Alpha  occ. eigenvalues --  -10.19409 -10.19270 -10.19243 -10.18810 -10.18801
 Alpha  occ. eigenvalues --  -10.18601 -10.18578 -10.18220  -7.96513  -5.93022
 Alpha  occ. eigenvalues --   -5.92586  -5.92055  -1.06748  -1.05268  -1.02695
 Alpha  occ. eigenvalues --   -0.99586  -0.92682  -0.86869  -0.86247  -0.85636
 Alpha  occ. eigenvalues --   -0.82099  -0.81234  -0.77996  -0.77379  -0.76514
 Alpha  occ. eigenvalues --   -0.76056  -0.75152  -0.74606  -0.73133  -0.71361
 Alpha  occ. eigenvalues --   -0.68673  -0.66436  -0.63792  -0.62525  -0.62346
 Alpha  occ. eigenvalues --   -0.61589  -0.61008  -0.60195  -0.59473  -0.58423
 Alpha  occ. eigenvalues --   -0.56111  -0.55296  -0.54731  -0.51603  -0.51356
 Alpha  occ. eigenvalues --   -0.50506  -0.50190  -0.49862  -0.48650  -0.48219
 Alpha  occ. eigenvalues --   -0.47748  -0.46650  -0.45951  -0.45426  -0.44746
 Alpha  occ. eigenvalues --   -0.44469  -0.44260  -0.43689  -0.43666  -0.43456
 Alpha  occ. eigenvalues --   -0.42873  -0.41942  -0.41829  -0.41112  -0.40708
 Alpha  occ. eigenvalues --   -0.39375  -0.38713  -0.38495  -0.38403  -0.37977
 Alpha  occ. eigenvalues --   -0.37699  -0.37477  -0.36933  -0.36525  -0.35901
 Alpha  occ. eigenvalues --   -0.35316  -0.34776  -0.34323  -0.34086  -0.33055
 Alpha  occ. eigenvalues --   -0.32088  -0.30149  -0.29704  -0.28848  -0.27891
 Alpha  occ. eigenvalues --   -0.27521  -0.26783  -0.26597  -0.26224  -0.25991
 Alpha  occ. eigenvalues --   -0.25746  -0.23170  -0.22360  -0.20209
 Alpha virt. eigenvalues --   -0.04324  -0.03543  -0.03471  -0.02270  -0.01325
 Alpha virt. eigenvalues --    0.00094   0.02672   0.02941   0.03631   0.05904
 Alpha virt. eigenvalues --    0.06942   0.07726   0.08264   0.09352   0.09671

 Mulliken charges:
               1
     1  O   -0.498370
     2  C    0.571229
     3  C    0.059663
     4  C   -0.178053
     5  C   -0.136343
     6  C   -0.128901
     7  C   -0.155091
     8  C    0.240354
     9  N   -0.538048
    10  C    0.292206
    11  S    0.134485
    12  C   -0.441265
    13  C    0.118336
    14  O   -0.640254
    15  C   -0.040055
    16  O   -0.532184
    17  C    0.386597
    18  C   -0.191524
    19  C   -0.206229
    20  C    0.139729
    21  C   -0.190000
    22  C   -0.139334
    23  C   -0.136057
    24  C   -0.191693
    25  C    0.142006
    26  C   -0.267659
    27  N   -0.596625
    28  C    0.217471
    29  C   -0.102935
    30  C   -0.143252
    31  C   -0.113273
    32  C   -0.142837
    33  C   -0.099768
    34  H    0.165944
    35  H    0.138426
    36  H    0.139893
    37  H    0.150145
    38  H    0.179627
    39  H    0.222164
    40  H    0.157762
    41  H    0.410099
    42  H    0.147683
    43  H    0.159590
    44  H    0.141266
    45  H    0.133315
    46  H    0.127723
    47  H    0.127520
    48  H    0.128409
    49  H    0.127814
    50  H    0.133853
    51  H    0.145125
    52  H    0.141446
    53  H    0.139116
    54  H    0.142123
    55  H    0.148631
 Sum of Mulliken charges =  -0.00000

 Dipole moment (field-independent basis, Debye):
    X=              0.5262    Y=             -0.5511    Z=              0.8562  Tot=              1.1462
 Quadrupole moment (field-independent basis, Debye-Ang):
   XX=           -195.5320   YY=           -191.4615   ZZ=           -177.3869
   XY=              5.8957   XZ=            -10.3058   YZ=             -4.4812

 Normal termination of Gaussian 16 at Sat Nov  5 09:54:56 2022.
