 Gaussian 16, Revision B.01,
 Gaussian 16:  ES64L-G16RevB.01 20-Dec-2017

 -----------------------------
 #p b3lyp/6-31g(d) opt SCF=XQC
 -----------------------------

 ------------------------------
 Gaussian input prepared by ASE
 ------------------------------
 Symbolic Z-matrix:
 Charge =  0 Multiplicity = 1

 SCF Done:  E(RB3LYP) =  -1775.50060864     A.U. after   16 cycles
 SCF Done:  E(RB3LYP) =  -1775.50763536     A.U. after   13 cycles
 SCF Done:  E(RB3LYP) =  -1775.50844311     A.U. after   13 cycles
 SCF Done:  E(RB3LYP) =  -1775.50830882     A.U. after   14 cycles
 SCF Done:  E(RB3LYP) =  -1775.50914348     A.U. after   12 cycles
 SCF Done:  E(RB3LYP) =  -1775.50938438     A.U. after   12 cycles
 SCF Done:  E(RB3LYP) =  -1775.50947164     A.U. after   12 cycles
 SCF Done:  E(RB3LYP) =  -1775.50949753     A.U. after   11 cycles
 SCF Done:  E(RB3LYP) =  -1775.50951343     A.U. after   11 cycles
 SCF Done:  E(RB3LYP) =  -1775.50952049     A.U. after   10 cycles
 SCF Done:  E(RB3LYP) =  -1775.50952230     A.U. after    8 cycles
 SCF Done:  E(RB3LYP) =  -1775.50952385     A.U. after    9 cycles
 SCF Done:  E(RB3LYP) =  -1775.50952407     A.U. after    7 cycles
 SCF Done:  E(RB3LYP) =  -1775.50952418     A.U. after    7 cycles
 SCF Done:  E(RB3LYP) =  -1775.50952422     A.U. after    7 cycles
 Optimization completed.
    -- Stationary point found.

                         Standard orientation:
 ---------------------------------------------------------------------
 Center     Atomic      Atomic             Coordinates (Angstroms)
 Number     Number       Type             X           Y           Z
 ---------------------------------------------------------------------
      1          8           0        5.168004    2.049647   -0.086060
      2          6           0        3.991866    1.725843   -0.083537
      3          6           0        2.856926    2.624645   -0.308588
      4          6           0        3.080228    3.988836   -0.554573
      5          6           0        2.005020    4.837253   -0.769664
      6          6           0        0.694063    4.327521   -0.741691
      7          6           0        0.460686    2.982287   -0.499741
      8          6           0        1.543265    2.109513   -0.278133
      9          7           0        1.286322    0.768562   -0.040155
     10          6           0        2.285460   -0.022043    0.159588
     11         16           0        2.006014   -1.762172    0.482474
     12          6           0        0.170523   -1.827649    0.404659
     13          6           0       -0.367054   -1.941024   -1.026706
     14          8           0        0.139422   -3.085538   -1.700283
     15          6           0       -1.884110   -2.123967   -1.037729
     16          8           0       -2.463802   -0.985159   -0.415724
     17          6           0       -3.825311   -0.911025   -0.295947
     18          6           0       -4.711217   -1.905366   -0.787281
     19          6           0       -6.071099   -1.750152   -0.626124
     20          6           0       -6.618349   -0.615402    0.022715
     21          6           0       -8.017105   -0.436137    0.199502
     22          6           0       -8.510595    0.679481    0.835483
     23          6           0       -7.621220    1.669899    1.325235
     24          6           0       -6.261838    1.527366    1.170553
     25          6           0       -5.717368    0.385702    0.517134
     26          6           0       -4.325029    0.209043    0.342450
     27          7           0        3.617971    0.369295    0.153023
     28          6           0        4.687747   -0.574039    0.390223
     29          6           0        5.299275   -1.208492   -0.692102
     30          6           0        6.337207   -2.110631   -0.461869
     31          6           0        6.762011   -2.370889    0.842606
     32          6           0        6.151181   -1.725719    1.919647
     33          6           0        5.113357   -0.821478    1.696139
     34          1           0        4.104001    4.348507   -0.570244
     35          1           0        2.172774    5.893222   -0.960270
     36          1           0       -0.146098    4.995494   -0.912362
     37          1           0       -0.543524    2.570876   -0.476520
     38          1           0       -0.085953   -2.727538    0.974278
     39          1           0       -0.231080   -0.946207    0.905009
     40          1           0       -0.120872   -1.016767   -1.566044
     41          1           0        1.105471   -2.989914   -1.736398
     42          1           0       -2.148002   -3.045493   -0.499429
     43          1           0       -2.221673   -2.222812   -2.077490
     44          1           0       -4.327529   -2.785931   -1.289446
     45          1           0       -6.745919   -2.514454   -1.004502
     46          1           0       -8.693028   -1.199982   -0.178588
     47          1           0       -9.581825    0.806499    0.965286
     48          1           0       -8.020860    2.547520    1.826605
     49          1           0       -5.581611    2.287684    1.547125
     50          1           0       -3.628622    0.956385    0.711948
     51          1           0        4.963814   -0.989161   -1.701021
     52          1           0        6.815646   -2.606461   -1.301547
     53          1           0        7.571526   -3.073569    1.019404
     54          1           0        6.483866   -1.922473    2.934697
     55          1           0        4.633084   -0.307516    2.522902
 ---------------------------------------------------------------------

 The electronic state is 1-A.
 Alpha  occ. eigenvalues --  -88.90415 -19.18046 -19.15106 -19.12528 -14.40472
 Alpha  occ. eigenvalues --  -14.33541 -10.30715 -10.30206 -10.24970 -10.24711
 Alpha  occ. eigenvalues --  -10.24532 -10.24297 -10.23800 -10.22146 -10.20673
 Alpha  occ. eigenvalues --  -10.20644 -10.20455 -10.20442 -10.20407 -10.20378
 Alpha  occ. eigenvalues --  -10.20349 -10.20055 -10.19797 -10.19677 -10.19574
 Alpha  occ. eigenvalues --  -10.19409 -10.19270 -10.19243 -10.18810 -10.18801
 Alpha  occ. eigenvalues --  -10.18601 -10.18578 -10.18220  -7.96513  -5.93022
 Alpha  occ. eigenvalues --   -5.92585  -5.92055  -1.06748  -1.05268  -1.02695
 Alpha  occ. eigenvalues --   -0.99586  -0.92682  -0.86869  -0.86247  -0.85636
 Alpha  occ. eigenvalues --   -0.82099  -0.81234  -0.77996  -0.77379  -0.76514
 Alpha  occ. eigenvalues --   -0.76056  -0.75152  -0.74606  -0.73133  -0.71361
 Alpha  occ. eigenvalues --   -0.68673  -0.66436  -0.63792  -0.62525  -0.62347
 Alpha  occ. eigenvalues --   -0.61589  -0.61008  -0.60195  -0.59473  -0.58422
 Alpha  occ. eigenvalues --   -0.56111  -0.55296  -0.54731  -0.51603  -0.51356
 Alpha  occ. eigenvalues --   -0.50506  -0.50190  -0.49862  -0.48650  -0.48219
 Alpha  occ. eigenvalues --   -0.47748  -0.46650  -0.45951  -0.45426  -0.44746
 Alpha  occ. eigenvalues --   -0.44469  -0.44260  -0.43689  -0.43666  -0.43456
 Alpha  occ. eigenvalues --   -0.42873  -0.41942  -0.41829  -0.41112  -0.40708
 Alpha  occ. eigenvalues --   -0.39375  -0.38713  -0.38495  -0.38403  -0.37977
 Alpha  occ. eigenvalues --   -0.37699  -0.37477  -0.36933  -0.36525  -0.35901
 Alpha  occ. eigenvalues --   -0.35316  -0.34776  -0.34323  -0.34086  -0.33055
 Alpha  occ. eigenvalues --   -0.32088  -0.30149  -0.29704  -0.28848  -0.27891
 Alpha  occ. eigenvalues --   -0.27521  -0.26783  -0.26597  -0.26224  -0.25991
 Alpha  occ. eigenvalues --   -0.25746  -0.23169  -0.22360  -0.20209
 Alpha virt. eigenvalues --   -0.04324  -0.03543  -0.03471  -0.02270  -0.01325
 Alpha virt. eigenvalues --    0.00094   0.02673   0.02941   0.03631   0.05904
 Alpha virt. eigenvalues --    0.06942   0.07726   0.08264   0.09352   0.09671

 Mulliken charges:
               1
     1  O   -0.498367
     2  C    0.571213
     3  C    0.059658
     4  C   -0.178056
     5  C   -0.136340
     6  C   -0.128907
     7  C   -0.155079
     8  C    0.240377
     9  N   -0.538043
    10  C    0.292182
    11  S    0.134493
    12  C   -0.441275
    13  C    0.118350
    14  O   -0.640257
    15  C   -0.040052
    16  O   -0.532176
    17  C    0.386586
    18  C   -0.191517
    19  C   -0.206229
    20  C    0.139734
    21  C   -0.190005
    22  C   -0.139332
    23  C   -0.136059
    24  C   -0.191693
    25  C    0.142010
    26  C   -0.267681
    27  N   -0.596606
    28  C    0.217470
    29  C   -0.102942
    30  C   -0.143246
    31  C   -0.113273
    32  C   -0.142838
    33  C   -0.099771
    34  H    0.165945
    35  H    0.138426
    36  H    0.139894
    37  H    0.150132
    38  H    0.179629
    39  H    0.222162
    40  H    0.157759
    41  H    0.410098
    42  H    0.147680
    43  H    0.159591
    44  H    0.141263
    45  H    0.133315
    46  H    0.127724
    47  H    0.127519
    48  H    0.128409
    49  H    0.127814
    50  H    0.133867
    51  H    0.145125
    52  H    0.141445
    53  H    0.139116
    54  H    0.142124
    55  H    0.148632
 Sum of Mulliken charges =  -0.00000

 Dipole moment (field-independent basis, Debye):
    X=             -0.2892    Y=             -1.0940    Z=              0.1823  Tot=              1.1462
 Quadrupole moment (field-independent basis, Debye-Ang):
   XX=           -189.0591   YY=           -182.8058   ZZ=           -192.3752
   XY=            -14.6536   XZ=              1.7012   YZ=              0.4418

 Normal termination of Gaussian 16 at Fri Nov  4 22:19:01 2022.
