 Gaussian 16, Revision B.01,
 Gaussian 16:  ES64L-G16RevB.01 20-Dec-2017

 -------------------------------------------------------------------
 #p b3lyp/6-31g(d) 6D 10F nosymm GFInput td=(50-50,nstate=2) SCF=XQC
 -------------------------------------------------------------------

 ------------------------------
 Gaussian input prepared by ASE
 ------------------------------
 Symbolic Z-matrix:
 Charge =  0 Multiplicity = 1

                          Input orientation:
 ---------------------------------------------------------------------
 Center     Atomic      Atomic             Coordinates (Angstroms)
 Number     Number       Type             X           Y           Z
 ---------------------------------------------------------------------
      1          8           0        0.084637   -2.303317    1.752841
      2          6           0       -0.015981   -1.544613    0.791506
      3          7           0        1.061120   -1.107620    0.069690
      4          6           0        2.439402   -1.337950    0.526536
      5          6           0        3.349544   -1.733864   -0.645271
      6          6           0        3.763447   -0.497642   -1.435458
      7          8           0        4.490909    0.428762   -0.625417
      8          6           0        3.981353    0.685598    0.620165
      9          6           0        4.509485    1.800875    1.285364
     10          6           0        4.061530    2.124339    2.560991
     11          6           0        3.086413    1.338736    3.188015
     12          6           0        2.574146    0.227394    2.525001
     13          6           0        3.008196   -0.117769    1.236245
     14          6           0       -1.374307   -1.142874    0.313596
     15          6           0       -2.505217   -1.919988    0.471281
     16          6           0       -3.528671   -1.239674   -0.226972
     17          6           0       -4.914934   -1.629221   -0.385224
     18          6           0       -5.987563   -1.063679   -1.020155
     19          6           0       -7.093729   -1.944728   -0.807882
     20          6           0       -6.617873   -2.980511   -0.061725
     21          8           0       -5.292852   -2.806621    0.205619
     22          7           0       -3.073081   -0.103342   -0.768753
     23          7           0       -1.759366   -0.048324   -0.438281
     24          6           0       -1.030957    1.120181   -0.809880
     25          6           0       -0.203830    1.770384    0.112951
     26          6           0        0.504264    2.906985   -0.280098
     27          6           0        0.364429    3.412029   -1.573681
     28          6           0       -0.485890    2.773194   -2.480263
     29          6           0       -1.180434    1.624430   -2.106993
     30          1           0        0.913707   -0.378514   -0.615574
     31          1           0        2.359379   -2.166162    1.233755
     32          1           0        2.838957   -2.450167   -1.297535
     33          1           0        4.251536   -2.218491   -0.252584
     34          1           0        2.883739    0.013180   -1.859246
     35          1           0        4.433463   -0.748193   -2.261567
     36          1           0        5.265200    2.393884    0.779447
     37          1           0        4.475484    2.990776    3.070041
     38          1           0        2.740334    1.585959    4.187352
     39          1           0        1.828174   -0.402865    3.003760
     40          1           0       -2.559579   -2.859504    0.998236
     41          1           0       -5.977663   -0.131677   -1.566278
     42          1           0       -8.107055   -1.820556   -1.163727
     43          1           0       -7.062436   -3.876029    0.344507
     44          1           0       -0.117546    1.396205    1.127322
     45          1           0        1.157285    3.398199    0.434989
     46          1           0        0.911315    4.301467   -1.873080
     47          1           0       -0.604016    3.165210   -3.486523
     48          1           0       -1.844467    1.116110   -2.797040
 ---------------------------------------------------------------------

 SCF Done:  E(RB3LYP) =  -1277.78942553     A.U. after   16 cycles

 Excitation energies and oscillator strengths:

 Excited state symmetry could not be determined.
 Excited State   1:      Triplet-?Sym    2.8830 eV  430.06 nm  f=0.0000  <S**2>=2.000
      98 ->102        -0.10340
     101 ->102         0.53694
     101 ->104         0.17589
     101 ->105        -0.35103
 This state for optimization and/or second-order correction.
 Total Energy, E(TD-HF/TD-DFT) =  -1277.68347799
 Copying the excited state density for this state as the 1-particle RhoCI density.

 Excited state symmetry could not be determined.
 Excited State   2:      Triplet-?Sym    3.4562 eV  358.72 nm  f=0.0000  <S**2>=2.000
      94 ->103        -0.10501
      96 ->103        -0.17294
      97 ->102        -0.17538
      98 ->102         0.32862
      99 ->102        -0.11336
     101 ->102         0.31726
     101 ->104        -0.13938
     101 ->105         0.32615
     101 ->106         0.10453

 Excited state symmetry could not be determined.
 Excited State   3:      Singlet-?Sym    3.8424 eV  322.68 nm  f=0.1547  <S**2>=0.000
     101 ->102         0.69825

 Excited state symmetry could not be determined.
 Excited State   4:      Singlet-?Sym    4.3131 eV  287.46 nm  f=0.0212  <S**2>=0.000
     100 ->102         0.69655

 Alpha  occ. eigenvalues --  -19.21220 -19.17953 -19.11751 -14.42903 -14.36541
 Alpha  occ. eigenvalues --  -14.35623 -10.30115 -10.25179 -10.24996 -10.24954
 Alpha  occ. eigenvalues --  -10.23940 -10.23758 -10.23578 -10.23447 -10.22283
 Alpha  occ. eigenvalues --  -10.20940 -10.20747 -10.20692 -10.20657 -10.20522
 Alpha  occ. eigenvalues --  -10.20095 -10.19647 -10.19411 -10.19136 -10.18904
 Alpha  occ. eigenvalues --  -10.18830 -10.18659 -10.18561 -10.18313  -1.10610
 Alpha  occ. eigenvalues --   -1.06777  -1.06029  -1.03604  -0.93156  -0.88732
 Alpha  occ. eigenvalues --   -0.85331  -0.84164  -0.81167  -0.79709  -0.79169
 Alpha  occ. eigenvalues --   -0.76669  -0.76209  -0.76038  -0.74197  -0.72769
 Alpha  occ. eigenvalues --   -0.68429  -0.65188  -0.64378  -0.63314  -0.62412
 Alpha  occ. eigenvalues --   -0.61099  -0.60308  -0.59877  -0.57593  -0.57056
 Alpha  occ. eigenvalues --   -0.56143  -0.54579  -0.52766  -0.52624  -0.50646
 Alpha  occ. eigenvalues --   -0.50229  -0.49402  -0.48218  -0.47333  -0.46315
 Alpha  occ. eigenvalues --   -0.45913  -0.45521  -0.45115  -0.44282  -0.44100
 Alpha  occ. eigenvalues --   -0.43713  -0.43410  -0.43147  -0.42721  -0.41974
 Alpha  occ. eigenvalues --   -0.41239  -0.40599  -0.40127  -0.39480  -0.39215
 Alpha  occ. eigenvalues --   -0.38576  -0.37934  -0.37409  -0.36874  -0.36589
 Alpha  occ. eigenvalues --   -0.36229  -0.36116  -0.34597  -0.32511  -0.31285
 Alpha  occ. eigenvalues --   -0.30438  -0.30341  -0.27570  -0.27402  -0.26748
 Alpha  occ. eigenvalues --   -0.26302  -0.25367  -0.24590  -0.24525  -0.22193
 Alpha  occ. eigenvalues --   -0.20316
 Alpha virt. eigenvalues --   -0.04416  -0.01790  -0.01531  -0.00562  -0.00379
 Alpha virt. eigenvalues --    0.00928   0.05753   0.07597   0.08191   0.08805
 Alpha virt. eigenvalues --    0.09641   0.10454   0.12339   0.12658   0.12975

 Mulliken charges:
               1
     1  O   -0.529624
     2  C    0.586673
     3  N   -0.621153
     4  C   -0.060321
     5  C   -0.302769
     6  C   -0.049861
     7  O   -0.521664
     8  C    0.318766
     9  C   -0.183626
    10  C   -0.135004
    11  C   -0.137776
    12  C   -0.207819
    13  C    0.118347
    14  C    0.327682
    15  C   -0.291003
    16  C    0.268357
    17  C    0.325353
    18  C   -0.190102
    19  C   -0.191373
    20  C    0.094071
    21  O   -0.454014
    22  N   -0.376080
    23  N   -0.438862
    24  C    0.245968
    25  C   -0.160321
    26  C   -0.140867
    27  C   -0.120980
    28  C   -0.144021
    29  C   -0.132115
    30  H    0.337943
    31  H    0.194192
    32  H    0.157766
    33  H    0.165520
    34  H    0.139266
    35  H    0.160997
    36  H    0.138216
    37  H    0.131733
    38  H    0.130883
    39  H    0.160123
    40  H    0.172608
    41  H    0.152594
    42  H    0.142173
    43  H    0.155542
    44  H    0.164705
    45  H    0.154383
    46  H    0.140091
    47  H    0.142347
    48  H    0.163056
 Sum of Mulliken charges =  -0.00000

 Dipole moment (field-independent basis, Debye):
    X=              1.1020    Y=              1.8069    Z=             -2.6887  Tot=              3.4217
 Quadrupole moment (field-independent basis, Debye-Ang):
   XX=           -156.9329   YY=           -158.7994   ZZ=           -159.9314
   XY=              5.4440   XZ=             -0.1619   YZ=              4.0010

 Normal termination of Gaussian 16 at Sat Nov  5 09:46:15 2022.
