 Gaussian 16, Revision B.01,
 Gaussian 16:  ES64L-G16RevB.01 20-Dec-2017

 -----------------------------
 #p b3lyp/6-31g(d) opt SCF=XQC
 -----------------------------

 ------------------------------
 Gaussian input prepared by ASE
 ------------------------------
 Symbolic Z-matrix:
 Charge =  0 Multiplicity = 1

 SCF Done:  E(RB3LYP) =  -1277.77914962     A.U. after   16 cycles
 SCF Done:  E(RB3LYP) =  -1277.78186946     A.U. after   15 cycles
 SCF Done:  E(RB3LYP) =  -1277.78619543     A.U. after   15 cycles
 SCF Done:  E(RB3LYP) =  -1277.78865442     A.U. after   13 cycles
 SCF Done:  E(RB3LYP) =  -1277.78842245     A.U. after   13 cycles
 SCF Done:  E(RB3LYP) =  -1277.78922072     A.U. after   12 cycles
 SCF Done:  E(RB3LYP) =  -1277.78932803     A.U. after   11 cycles
 SCF Done:  E(RB3LYP) =  -1277.78938747     A.U. after   12 cycles
 SCF Done:  E(RB3LYP) =  -1277.78940212     A.U. after   10 cycles
 SCF Done:  E(RB3LYP) =  -1277.78941191     A.U. after   10 cycles
 SCF Done:  E(RB3LYP) =  -1277.78941665     A.U. after   10 cycles
 SCF Done:  E(RB3LYP) =  -1277.78941968     A.U. after    9 cycles
 SCF Done:  E(RB3LYP) =  -1277.78942162     A.U. after   10 cycles
 SCF Done:  E(RB3LYP) =  -1277.78942220     A.U. after    8 cycles
 SCF Done:  E(RB3LYP) =  -1277.78942241     A.U. after    7 cycles
 SCF Done:  E(RB3LYP) =  -1277.78942249     A.U. after    7 cycles
 Optimization completed.
    -- Stationary point found.

                         Standard orientation:
 ---------------------------------------------------------------------
 Center     Atomic      Atomic             Coordinates (Angstroms)
 Number     Number       Type             X           Y           Z
 ---------------------------------------------------------------------
      1          8           0        0.092020   -2.749858   -0.318890
      2          6           0        0.102411   -1.596179    0.104003
      3          7           0       -0.950474   -1.038314    0.776570
      4          6           0       -2.258203   -1.705996    0.850505
      5          6           0       -2.863097   -1.579161    2.256298
      6          6           0       -3.497019   -0.204721    2.438000
      7          8           0       -4.551257    0.019789    1.498976
      8          6           0       -4.298814   -0.330427    0.198705
      9          6           0       -5.196788    0.161715   -0.758737
     10          6           0       -5.025342   -0.159178   -2.100434
     11          6           0       -3.960719   -0.975882   -2.501378
     12          6           0       -3.079223   -1.468603   -1.543633
     13          6           0       -3.229717   -1.156565   -0.184069
     14          6           0        1.346405   -0.777826   -0.028745
     15          6           0        2.617889   -1.315076   -0.077927
     16          6           0        3.494489   -0.206297   -0.072946
     17          6           0        4.942748   -0.210915   -0.105241
     18          6           0        5.889737    0.777356   -0.111396
     19          6           0        7.159365    0.120543   -0.150800
     20          6           0        6.896355   -1.216111   -0.165547
     21          8           0        5.551977   -1.438090   -0.137960
     22          7           0        2.816318    0.947603   -0.042325
     23          7           0        1.507435    0.595303   -0.014168
     24          6           0        0.538528    1.640204   -0.073099
     25          6           0       -0.548743    1.558058   -0.950375
     26          6           0       -1.486689    2.591041   -0.981197
     27          6           0       -1.325614    3.713629   -0.167666
     28          6           0       -0.221517    3.800734    0.684640
     29          6           0        0.709462    2.765629    0.741341
     30          1           0       -0.923144   -0.045814    0.969213
     31          1           0       -2.044396   -2.753710    0.628966
     32          1           0       -2.093994   -1.748077    3.017339
     33          1           0       -3.638608   -2.343846    2.384726
     34          1           0       -2.745943    0.594286    2.328935
     35          1           0       -3.958389   -0.096329    3.422653
     36          1           0       -6.014896    0.791899   -0.423648
     37          1           0       -5.725443    0.226577   -2.836816
     38          1           0       -3.829316   -1.233262   -3.548303
     39          1           0       -2.256552   -2.117333   -1.835649
     40          1           0        2.861472   -2.365737   -0.088167
     41          1           0        5.693053    1.839403   -0.092695
     42          1           0        8.135919    0.584180   -0.166837
     43          1           0        7.514922   -2.099959   -0.193875
     44          1           0       -0.658855    0.700022   -1.604632
     45          1           0       -2.337220    2.514782   -1.651913
     46          1           0       -2.053776    4.518940   -0.200504
     47          1           0       -0.087081    4.674872    1.315511
     48          1           0        1.571965    2.816392    1.396326
 ---------------------------------------------------------------------

 The electronic state is 1-A.
 Alpha  occ. eigenvalues --  -19.21220 -19.17953 -19.11751 -14.42903 -14.36541
 Alpha  occ. eigenvalues --  -14.35623 -10.30115 -10.25179 -10.24996 -10.24953
 Alpha  occ. eigenvalues --  -10.23940 -10.23758 -10.23578 -10.23447 -10.22283
 Alpha  occ. eigenvalues --  -10.20940 -10.20747 -10.20692 -10.20657 -10.20522
 Alpha  occ. eigenvalues --  -10.20095 -10.19647 -10.19411 -10.19136 -10.18904
 Alpha  occ. eigenvalues --  -10.18830 -10.18659 -10.18561 -10.18314  -1.10610
 Alpha  occ. eigenvalues --   -1.06777  -1.06029  -1.03604  -0.93156  -0.88732
 Alpha  occ. eigenvalues --   -0.85331  -0.84164  -0.81167  -0.79709  -0.79169
 Alpha  occ. eigenvalues --   -0.76669  -0.76209  -0.76038  -0.74197  -0.72769
 Alpha  occ. eigenvalues --   -0.68429  -0.65188  -0.64378  -0.63314  -0.62412
 Alpha  occ. eigenvalues --   -0.61099  -0.60308  -0.59877  -0.57593  -0.57056
 Alpha  occ. eigenvalues --   -0.56143  -0.54579  -0.52766  -0.52625  -0.50646
 Alpha  occ. eigenvalues --   -0.50229  -0.49402  -0.48218  -0.47333  -0.46315
 Alpha  occ. eigenvalues --   -0.45913  -0.45521  -0.45115  -0.44282  -0.44100
 Alpha  occ. eigenvalues --   -0.43713  -0.43410  -0.43147  -0.42721  -0.41974
 Alpha  occ. eigenvalues --   -0.41239  -0.40599  -0.40127  -0.39480  -0.39215
 Alpha  occ. eigenvalues --   -0.38576  -0.37934  -0.37409  -0.36874  -0.36589
 Alpha  occ. eigenvalues --   -0.36229  -0.36116  -0.34597  -0.32511  -0.31285
 Alpha  occ. eigenvalues --   -0.30438  -0.30341  -0.27570  -0.27402  -0.26748
 Alpha  occ. eigenvalues --   -0.26302  -0.25367  -0.24590  -0.24525  -0.22193
 Alpha  occ. eigenvalues --   -0.20316
 Alpha virt. eigenvalues --   -0.04416  -0.01789  -0.01532  -0.00562  -0.00379
 Alpha virt. eigenvalues --    0.00928   0.05753   0.07597   0.08192   0.08805
 Alpha virt. eigenvalues --    0.09641   0.10455   0.12339   0.12658   0.12975

 Mulliken charges:
               1
     1  O   -0.529624
     2  C    0.586675
     3  N   -0.621159
     4  C   -0.060266
     5  C   -0.302781
     6  C   -0.049884
     7  O   -0.521670
     8  C    0.318786
     9  C   -0.183623
    10  C   -0.134995
    11  C   -0.137792
    12  C   -0.207799
    13  C    0.118288
    14  C    0.327668
    15  C   -0.290998
    16  C    0.268353
    17  C    0.325343
    18  C   -0.190090
    19  C   -0.191377
    20  C    0.094075
    21  O   -0.454011
    22  N   -0.376081
    23  N   -0.438864
    24  C    0.245971
    25  C   -0.160283
    26  C   -0.140878
    27  C   -0.120989
    28  C   -0.144005
    29  C   -0.132128
    30  H    0.337934
    31  H    0.194188
    32  H    0.157766
    33  H    0.165520
    34  H    0.139286
    35  H    0.160998
    36  H    0.138217
    37  H    0.131733
    38  H    0.130886
    39  H    0.160121
    40  H    0.172608
    41  H    0.152595
    42  H    0.142174
    43  H    0.155541
    44  H    0.164694
    45  H    0.154385
    46  H    0.140091
    47  H    0.142345
    48  H    0.163057
 Sum of Mulliken charges =  -0.00000

 Dipole moment (field-independent basis, Debye):
    X=             -1.2010    Y=              2.7264    Z=              1.6830  Tot=              3.4217
 Quadrupole moment (field-independent basis, Debye-Ang):
   XX=           -153.4366   YY=           -163.5677   ZZ=           -157.3856
   XY=             -4.5516   XZ=              2.1207   YZ=             -0.5192

 Normal termination of Gaussian 16 at Fri Nov  4 22:15:18 2022.
