 Gaussian 16, Revision B.01,
 Gaussian 16:  ES64L-G16RevB.01 20-Dec-2017

 -----------------------------
 #p b3lyp/6-31g(d) opt SCF=XQC
 -----------------------------

 ------------------------------
 Gaussian input prepared by ASE
 ------------------------------
 Symbolic Z-matrix:
 Charge =  0 Multiplicity = 1

 SCF Done:  E(RB3LYP) =  -1227.77726471     A.U. after   15 cycles
 SCF Done:  E(RB3LYP) =  -1227.78418916     A.U. after   13 cycles
 SCF Done:  E(RB3LYP) =  -1227.78678530     A.U. after   13 cycles
 SCF Done:  E(RB3LYP) =  -1227.78732094     A.U. after   12 cycles
 SCF Done:  E(RB3LYP) =  -1227.78757369     A.U. after   12 cycles
 SCF Done:  E(RB3LYP) =  -1227.78769528     A.U. after   11 cycles
 SCF Done:  E(RB3LYP) =  -1227.78778749     A.U. after   12 cycles
 SCF Done:  E(RB3LYP) =  -1227.78784343     A.U. after   11 cycles
 SCF Done:  E(RB3LYP) =  -1227.78788678     A.U. after   11 cycles
 SCF Done:  E(RB3LYP) =  -1227.78789949     A.U. after   10 cycles
 SCF Done:  E(RB3LYP) =  -1227.78790719     A.U. after    8 cycles
 SCF Done:  E(RB3LYP) =  -1227.78790762     A.U. after    9 cycles
 SCF Done:  E(RB3LYP) =  -1227.78790811     A.U. after    9 cycles
 SCF Done:  E(RB3LYP) =  -1227.78790868     A.U. after    9 cycles
 SCF Done:  E(RB3LYP) =  -1227.78790934     A.U. after    9 cycles
 SCF Done:  E(RB3LYP) =  -1227.78791007     A.U. after    9 cycles
 SCF Done:  E(RB3LYP) =  -1227.78791078     A.U. after    9 cycles
 SCF Done:  E(RB3LYP) =  -1227.78791126     A.U. after    9 cycles
 SCF Done:  E(RB3LYP) =  -1227.78791138     A.U. after    7 cycles
 SCF Done:  E(RB3LYP) =  -1227.78791144     A.U. after    7 cycles
 Optimization completed.
    -- Stationary point found.

                         Standard orientation:
 ---------------------------------------------------------------------
 Center     Atomic      Atomic             Coordinates (Angstroms)
 Number     Number       Type             X           Y           Z
 ---------------------------------------------------------------------
      1          6           0       -1.652714    4.637771   -1.914260
      2          6           0       -1.754902    3.404149   -1.047513
      3          6           0       -1.284152    2.162885   -1.477526
      4          6           0       -1.397000    1.022324   -0.682324
      5          6           0       -1.987007    1.092657    0.586428
      6          7           0       -2.175870   -0.034991    1.414679
      7          6           0       -1.447067   -1.301953    1.301831
      8          6           0       -1.851162   -2.147724    0.090561
      9          6           0       -1.013880   -3.162895   -0.387797
     10          6           0       -1.426985   -3.990438   -1.432696
     11          6           0       -2.683644   -3.814275   -2.012661
     12          6           0       -3.524946   -2.807472   -1.536502
     13          6           0       -3.113702   -1.981808   -0.490010
     14          6           0        0.041918   -1.145814    1.489604
     15          7           0        0.698975   -1.321719    2.596101
     16          7           0        2.020018   -0.977346    2.333041
     17          6           0        2.066996   -0.618004    1.081012
     18          6           0        3.238563   -0.169732    0.337892
     19          6           0        4.483725   -0.136419    0.994093
     20          6           0        5.629877    0.286902    0.332480
     21          6           0        5.557594    0.688481   -1.005444
     22          6           0        4.336805    0.665083   -1.676496
     23          6           0        3.198428    0.239531   -1.002305
     24          9           0        2.032669    0.227317   -1.675171
     25          8           0        0.844429   -0.704474    0.481685
     26          6           0       -2.474430    2.342105    1.046139
     27          6           0       -3.129614    2.466563    2.401877
     28          6           0       -2.344715    3.459663    0.222142
     29          1           0       -0.967194    4.477999   -2.753196
     30          1           0       -2.626805    4.918905   -2.337253
     31          1           0       -1.289197    5.502742   -1.346288
     32          1           0       -0.810745    2.073486   -2.452727
     33          1           0       -1.009837    0.083663   -1.055896
     34          1           0       -2.295473    0.219037    2.386155
     35          1           0       -1.746582   -1.863621    2.195508
     36          1           0       -0.033527   -3.315768    0.055111
     37          1           0       -0.763052   -4.771807   -1.792691
     38          1           0       -3.004195   -4.455899   -2.829000
     39          1           0       -4.505857   -2.660939   -1.980947
     40          1           0       -3.766657   -1.199237   -0.118588
     41          1           0        4.520895   -0.450578    2.031692
     42          1           0        6.579678    0.304406    0.857932
     43          1           0        6.450321    1.020325   -1.527484
     44          1           0        4.244035    0.970448   -2.713349
     45          1           0       -3.480707    3.488553    2.570718
     46          1           0       -3.995118    1.797331    2.501348
     47          1           0       -2.439088    2.225999    3.224681
     48          1           0       -2.720132    4.413817    0.589437
 ---------------------------------------------------------------------

 The electronic state is 1-A.
 Alpha  occ. eigenvalues --  -24.71745 -19.24105 -14.35978 -14.35810 -14.35181
 Alpha  occ. eigenvalues --  -10.29242 -10.29049 -10.28432 -10.25625 -10.22784
 Alpha  occ. eigenvalues --  -10.21872 -10.21366 -10.21135 -10.20888 -10.20498
 Alpha  occ. eigenvalues --  -10.20365 -10.19253 -10.19174 -10.19082 -10.19029
 Alpha  occ. eigenvalues --  -10.18766 -10.18624 -10.18524 -10.17808 -10.17459
 Alpha  occ. eigenvalues --  -10.17429 -10.17313 -10.17109  -1.22995  -1.16187
 Alpha  occ. eigenvalues --   -0.98079  -0.94190  -0.88423  -0.85969  -0.84620
 Alpha  occ. eigenvalues --   -0.83512  -0.78598  -0.76878  -0.76171  -0.75932
 Alpha  occ. eigenvalues --   -0.74539  -0.74446  -0.70471  -0.68283  -0.67468
 Alpha  occ. eigenvalues --   -0.66160  -0.63465  -0.62111  -0.60929  -0.60155
 Alpha  occ. eigenvalues --   -0.59341  -0.57938  -0.56137  -0.55448  -0.52799
 Alpha  occ. eigenvalues --   -0.52652  -0.51670  -0.50454  -0.49668  -0.49420
 Alpha  occ. eigenvalues --   -0.47845  -0.46866  -0.46397  -0.45667  -0.45123
 Alpha  occ. eigenvalues --   -0.44561  -0.44206  -0.43795  -0.43033  -0.42128
 Alpha  occ. eigenvalues --   -0.41991  -0.41755  -0.40704  -0.40587  -0.40506
 Alpha  occ. eigenvalues --   -0.39779  -0.38780  -0.38345  -0.37669  -0.36886
 Alpha  occ. eigenvalues --   -0.36290  -0.36054  -0.35268  -0.34932  -0.34402
 Alpha  occ. eigenvalues --   -0.34193  -0.33524  -0.32603  -0.32022  -0.31048
 Alpha  occ. eigenvalues --   -0.28881  -0.27804  -0.26115  -0.25096  -0.24648
 Alpha  occ. eigenvalues --   -0.24290  -0.23166  -0.19272
 Alpha virt. eigenvalues --   -0.05436  -0.01256  -0.00646  -0.00339   0.00777
 Alpha virt. eigenvalues --    0.01448   0.02408   0.05378   0.07560   0.07997
 Alpha virt. eigenvalues --    0.09823   0.10986   0.11443   0.12998   0.13444

 Mulliken charges:
               1
     1  C   -0.530964
     2  C    0.194468
     3  C   -0.208438
     4  C   -0.158216
     5  C    0.258388
     6  N   -0.670927
     7  C   -0.122793
     8  C    0.132023
     9  C   -0.173093
    10  C   -0.138015
    11  C   -0.124439
    12  C   -0.131187
    13  C   -0.165751
    14  C    0.538949
    15  N   -0.337910
    16  N   -0.354135
    17  C    0.510375
    18  C    0.009118
    19  C   -0.167621
    20  C   -0.135390
    21  C   -0.121436
    22  C   -0.195800
    23  C    0.331061
    24  F   -0.276102
    25  O   -0.456995
    26  C    0.157977
    27  C   -0.561513
    28  C   -0.260206
    29  H    0.151119
    30  H    0.157968
    31  H    0.153449
    32  H    0.118699
    33  H    0.148055
    34  H    0.327187
    35  H    0.197711
    36  H    0.136921
    37  H    0.132825
    38  H    0.130844
    39  H    0.132892
    40  H    0.153915
    41  H    0.180910
    42  H    0.144138
    43  H    0.146422
    44  H    0.154092
    45  H    0.162858
    46  H    0.162864
    47  H    0.156161
    48  H    0.109544
 Sum of Mulliken charges =  -0.00000

 Dipole moment (field-independent basis, Debye):
    X=              0.9240    Y=              0.6306    Z=             -1.8699  Tot=              2.1789
 Quadrupole moment (field-independent basis, Debye-Ang):
   XX=           -138.1252   YY=           -155.0910   ZZ=           -160.8788
   XY=              3.3502   XZ=             -9.6176   YZ=              6.1020

 Normal termination of Gaussian 16 at Fri Nov  4 22:32:03 2022.
