 Gaussian 16, Revision B.01,
 Gaussian 16:  ES64L-G16RevB.01 20-Dec-2017

 -------------------------------------------------------------------
 #p b3lyp/6-31g(d) 6D 10F nosymm GFInput td=(50-50,nstate=2) SCF=XQC
 -------------------------------------------------------------------

 ------------------------------
 Gaussian input prepared by ASE
 ------------------------------
 Symbolic Z-matrix:
 Charge =  0 Multiplicity = 1

                          Input orientation:
 ---------------------------------------------------------------------
 Center     Atomic      Atomic             Coordinates (Angstroms)
 Number     Number       Type             X           Y           Z
 ---------------------------------------------------------------------
      1          6           0       -3.278582    2.847570   -2.370115
      2          6           0       -2.763756    1.973658   -1.249958
      3          6           0       -1.874182    0.924720   -1.485837
      4          6           0       -1.415488    0.108192   -0.451990
      5          6           0       -1.834711    0.324138    0.867254
      6          7           0       -1.446323   -0.499246    1.946352
      7          6           0       -0.277168   -1.383527    1.960611
      8          6           0       -0.429627   -2.632501    1.087329
      9          6           0        0.692374   -3.361308    0.674542
     10          6           0        0.543000   -4.548914   -0.042800
     11          6           0       -0.730821   -5.024058   -0.356171
     12          6           0       -1.853246   -4.304758    0.057275
     13          6           0       -1.704599   -3.119031    0.776957
     14          6           0        1.025166   -0.644126    1.776418
     15          7           0        1.816358   -0.235160    2.721809
     16          7           0        2.838355    0.477185    2.104527
     17          6           0        2.591262    0.446213    0.825115
     18          6           0        3.381144    1.055266   -0.238316
     19          6           0        4.566659    1.733447    0.103388
     20          6           0        5.353066    2.334932   -0.871485
     21          6           0        4.971066    2.272395   -2.215620
     22          6           0        3.801808    1.607583   -2.578999
     23          6           0        3.024767    1.010655   -1.593396
     24          9           0        1.900418    0.375395   -1.973101
     25          8           0        1.454531   -0.254012    0.544281
     26          6           0       -2.739387    1.382853    1.133189
     27          6           0       -3.230059    1.648069    2.537356
     28          6           0       -3.176583    2.176852    0.073398
     29          1           0       -2.687648    2.713202   -3.282266
     30          1           0       -4.322692    2.614707   -2.619961
     31          1           0       -3.243246    3.910768   -2.103148
     32          1           0       -1.519366    0.734838   -2.496369
     33          1           0       -0.720060   -0.687713   -0.683187
     34          1           0       -1.549802   -0.035160    2.838830
     35          1           0       -0.215142   -1.728591    3.000285
     36          1           0        1.691418   -3.007059    0.913388
     37          1           0        1.425126   -5.100325   -0.357026
     38          1           0       -0.847565   -5.946753   -0.918176
     39          1           0       -2.850350   -4.665261   -0.181498
     40          1           0       -2.576012   -2.559190    1.099353
     41          1           0        4.846967    1.772607    1.150566
     42          1           0        6.263442    2.852533   -0.585423
     43          1           0        5.581956    2.740801   -2.981789
     44          1           0        3.474969    1.540462   -3.611273
     45          1           0       -3.950383    2.471029    2.547628
     46          1           0       -3.724651    0.768313    2.971258
     47          1           0       -2.413899    1.929387    3.220325
     48          1           0       -3.868501    2.988919    0.292600
 ---------------------------------------------------------------------

 SCF Done:  E(RB3LYP) =  -1227.78790869     A.U. after   15 cycles

 Excitation energies and oscillator strengths:

 Excited state symmetry could not be determined.
 Excited State   1:      Triplet-?Sym    3.0358 eV  408.41 nm  f=0.0000  <S**2>=2.000
      93 ->100        -0.13721
      95 -> 99        -0.12203
      96 -> 99        -0.43497
      98 -> 99         0.49912
 This state for optimization and/or second-order correction.
 Total Energy, E(TD-HF/TD-DFT) =  -1227.67634678
 Copying the excited state density for this state as the 1-particle RhoCI density.

 Excited state symmetry could not be determined.
 Excited State   2:      Singlet-?Sym    3.2519 eV  381.26 nm  f=0.0329  <S**2>=0.000
      98 -> 99         0.70517

 Excited state symmetry could not be determined.
 Excited State   3:      Triplet-?Sym    3.3146 eV  374.05 nm  f=0.0000  <S**2>=2.000
      93 ->100         0.15070
      95 -> 99         0.11087
      96 -> 99         0.43808
      98 -> 99         0.47200

 Excited state symmetry could not be determined.
 Excited State   4:      Singlet-?Sym    4.3235 eV  286.77 nm  f=0.0010  <S**2>=0.000
      97 -> 99         0.70383

 Alpha  occ. eigenvalues --  -24.71745 -19.24105 -14.35978 -14.35810 -14.35181
 Alpha  occ. eigenvalues --  -10.29242 -10.29049 -10.28432 -10.25626 -10.22784
 Alpha  occ. eigenvalues --  -10.21872 -10.21366 -10.21135 -10.20888 -10.20498
 Alpha  occ. eigenvalues --  -10.20365 -10.19253 -10.19174 -10.19083 -10.19029
 Alpha  occ. eigenvalues --  -10.18766 -10.18624 -10.18524 -10.17808 -10.17459
 Alpha  occ. eigenvalues --  -10.17429 -10.17313 -10.17109  -1.22995  -1.16187
 Alpha  occ. eigenvalues --   -0.98079  -0.94190  -0.88423  -0.85969  -0.84620
 Alpha  occ. eigenvalues --   -0.83512  -0.78598  -0.76878  -0.76171  -0.75932
 Alpha  occ. eigenvalues --   -0.74539  -0.74446  -0.70471  -0.68283  -0.67468
 Alpha  occ. eigenvalues --   -0.66159  -0.63465  -0.62111  -0.60929  -0.60155
 Alpha  occ. eigenvalues --   -0.59341  -0.57938  -0.56137  -0.55448  -0.52799
 Alpha  occ. eigenvalues --   -0.52652  -0.51670  -0.50454  -0.49668  -0.49420
 Alpha  occ. eigenvalues --   -0.47845  -0.46866  -0.46397  -0.45667  -0.45123
 Alpha  occ. eigenvalues --   -0.44561  -0.44206  -0.43795  -0.43033  -0.42128
 Alpha  occ. eigenvalues --   -0.41991  -0.41755  -0.40704  -0.40587  -0.40506
 Alpha  occ. eigenvalues --   -0.39779  -0.38780  -0.38345  -0.37669  -0.36886
 Alpha  occ. eigenvalues --   -0.36290  -0.36054  -0.35268  -0.34932  -0.34402
 Alpha  occ. eigenvalues --   -0.34193  -0.33524  -0.32603  -0.32022  -0.31048
 Alpha  occ. eigenvalues --   -0.28881  -0.27804  -0.26114  -0.25096  -0.24648
 Alpha  occ. eigenvalues --   -0.24290  -0.23166  -0.19272
 Alpha virt. eigenvalues --   -0.05436  -0.01256  -0.00647  -0.00339   0.00777
 Alpha virt. eigenvalues --    0.01448   0.02408   0.05378   0.07560   0.07997
 Alpha virt. eigenvalues --    0.09823   0.10986   0.11443   0.12998   0.13444

 Mulliken charges:
               1
     1  C   -0.530969
     2  C    0.194470
     3  C   -0.208438
     4  C   -0.158219
     5  C    0.258413
     6  N   -0.670951
     7  C   -0.122765
     8  C    0.131981
     9  C   -0.173078
    10  C   -0.138019
    11  C   -0.124430
    12  C   -0.131192
    13  C   -0.165753
    14  C    0.538937
    15  N   -0.337912
    16  N   -0.354141
    17  C    0.510366
    18  C    0.009154
    19  C   -0.167626
    20  C   -0.135388
    21  C   -0.121437
    22  C   -0.195802
    23  C    0.331048
    24  F   -0.276098
    25  O   -0.456991
    26  C    0.157983
    27  C   -0.561511
    28  C   -0.260209
    29  H    0.151119
    30  H    0.157968
    31  H    0.153449
    32  H    0.118700
    33  H    0.148061
    34  H    0.327186
    35  H    0.197713
    36  H    0.136919
    37  H    0.132826
    38  H    0.130845
    39  H    0.132893
    40  H    0.153918
    41  H    0.180910
    42  H    0.144137
    43  H    0.146421
    44  H    0.154091
    45  H    0.162858
    46  H    0.162863
    47  H    0.156158
    48  H    0.109543
 Sum of Mulliken charges =  -0.00000

 Dipole moment (field-independent basis, Debye):
    X=              0.3637    Y=              0.3500    Z=             -2.1196  Tot=              2.1789
 Quadrupole moment (field-independent basis, Debye-Ang):
   XX=           -146.0851   YY=           -150.0974   ZZ=           -158.2102
   XY=              4.6319   XZ=            -15.6185   YZ=             -1.6994

 Normal termination of Gaussian 16 at Sat Nov  5 09:38:37 2022.
