 Gaussian 16, Revision B.01,
 Gaussian 16:  ES64L-G16RevB.01 20-Dec-2017

 -----------------------------
 #p b3lyp/6-31g(d) opt SCF=XQC
 -----------------------------

 ------------------------------
 Gaussian input prepared by ASE
 ------------------------------
 Symbolic Z-matrix:
 Charge =  0 Multiplicity = 1

 SCF Done:  E(RB3LYP) =  -1312.51452944     A.U. after   16 cycles
 SCF Done:  E(RB3LYP) =  -1312.51957866     A.U. after   12 cycles
 SCF Done:  E(RB3LYP) =  -1312.52003194     A.U. after   11 cycles
 SCF Done:  E(RB3LYP) =  -1312.52026388     A.U. after   12 cycles
 SCF Done:  E(RB3LYP) =  -1312.52028634     A.U. after   11 cycles
 SCF Done:  E(RB3LYP) =  -1312.52030647     A.U. after   10 cycles
 SCF Done:  E(RB3LYP) =  -1312.52030921     A.U. after    9 cycles
 SCF Done:  E(RB3LYP) =  -1312.52030974     A.U. after    8 cycles
 SCF Done:  E(RB3LYP) =  -1312.52031001     A.U. after    7 cycles
 SCF Done:  E(RB3LYP) =  -1312.52031020     A.U. after    8 cycles
 SCF Done:  E(RB3LYP) =  -1312.52035843     A.U. after   12 cycles
 SCF Done:  E(RB3LYP) =  -1312.52036634     A.U. after   11 cycles
 SCF Done:  E(RB3LYP) =  -1312.52030671     A.U. after   11 cycles
 SCF Done:  E(RB3LYP) =  -1312.52037611     A.U. after   11 cycles
 SCF Done:  E(RB3LYP) =  -1312.52037684     A.U. after    9 cycles
 SCF Done:  E(RB3LYP) =  -1312.52037683     A.U. after    8 cycles
 SCF Done:  E(RB3LYP) =  -1312.52008536     A.U. after   11 cycles
 SCF Done:  E(RB3LYP) =  -1312.52037691     A.U. after   11 cycles
 SCF Done:  E(RB3LYP) =  -1312.52037680     A.U. after    8 cycles
 SCF Done:  E(RB3LYP) =  -1312.52037696     A.U. after    7 cycles
 Optimization completed.
    -- Stationary point found.

                         Standard orientation:
 ---------------------------------------------------------------------
 Center     Atomic      Atomic             Coordinates (Angstroms)
 Number     Number       Type             X           Y           Z
 ---------------------------------------------------------------------
      1          8           0       -0.637613   -2.753120    0.242251
      2          6           0       -0.343858   -1.567998    0.099583
      3          7           0       -1.251529   -0.554882   -0.026023
      4          6           0       -2.660016   -0.612740   -0.001660
      5          6           0       -3.380678   -1.803119    0.167653
      6          6           0       -4.787060   -1.794864    0.179788
      7          6           0       -5.427628   -0.584664    0.017698
      8          6           0       -4.709768    0.596558   -0.150285
      9          6           0       -3.333288    0.622648   -0.164620
     10          8           0       -5.577626    1.655929   -0.261368
     11          6           0       -6.883675    1.069534   -0.347588
     12          8           0       -6.777764   -0.307328    0.022441
     13          6           0        1.100103   -1.095305    0.045893
     14          7           0        1.241868    0.200474    0.034758
     15          7           0        2.461001    0.776978   -0.018517
     16          6           0        2.442573    2.215999    0.045641
     17          6           0        1.559060    2.837238    0.933247
     18          6           0        1.498118    4.228629    0.987376
     19          6           0        2.320666    5.000629    0.165302
     20          6           0        3.203631    4.371867   -0.714119
     21          6           0        3.269982    2.980637   -0.781806
     22          6           0        3.678309    0.057729   -0.051919
     23          8           0        4.758061    0.632197   -0.081531
     24          6           0        3.515381   -1.403510   -0.046254
     25          6           0        4.675764   -2.191112   -0.088221
     26          6           0        4.572755   -3.573101   -0.084062
     27          6           0        3.306830   -4.178049   -0.037167
     28          6           0        2.149510   -3.413924    0.007930
     29          6           0        2.235256   -2.004500    0.006113
     30          1           0       -0.835061    0.364109   -0.126220
     31          1           0       -2.842430   -2.731671    0.286785
     32          1           0       -5.346120   -2.714415    0.314893
     33          1           0       -2.790523    1.553550   -0.296681
     34          1           0       -7.556569    1.582771    0.344857
     35          1           0       -7.249314    1.147279   -1.381701
     36          1           0        0.929385    2.229151    1.573651
     37          1           0        0.811473    4.707287    1.679996
     38          1           0        2.275794    6.085062    0.211705
     39          1           0        3.846439    4.965133   -1.358284
     40          1           0        3.959173    2.494767   -1.459542
     41          1           0        5.635609   -1.687628   -0.124716
     42          1           0        5.468744   -4.186454   -0.117958
     43          1           0        3.227184   -5.261696   -0.034524
     44          1           0        1.174567   -3.878144    0.050743
 ---------------------------------------------------------------------

 The electronic state is 1-A.
 Alpha  occ. eigenvalues --  -19.19483 -19.19214 -19.12991 -19.12848 -14.43507
 Alpha  occ. eigenvalues --  -14.39990 -14.37657 -10.30764 -10.30691 -10.30560
 Alpha  occ. eigenvalues --  -10.25652 -10.25202 -10.24574 -10.24182 -10.23994
 Alpha  occ. eigenvalues --  -10.22753 -10.21935 -10.20999 -10.20932 -10.20704
 Alpha  occ. eigenvalues --  -10.20267 -10.20204 -10.20023 -10.19989 -10.19948
 Alpha  occ. eigenvalues --  -10.19875 -10.19823 -10.19624 -10.18478  -1.12638
 Alpha  occ. eigenvalues --   -1.07540  -1.04734  -1.03517  -1.02515  -0.94712
 Alpha  occ. eigenvalues --   -0.89697  -0.87133  -0.85701  -0.84543  -0.78831
 Alpha  occ. eigenvalues --   -0.77326  -0.76362  -0.75722  -0.75604  -0.74771
 Alpha  occ. eigenvalues --   -0.69879  -0.67738  -0.66845  -0.64725  -0.63057
 Alpha  occ. eigenvalues --   -0.62144  -0.61500  -0.60897  -0.58690  -0.56666
 Alpha  occ. eigenvalues --   -0.56248  -0.54649  -0.52562  -0.52262  -0.51663
 Alpha  occ. eigenvalues --   -0.50990  -0.50022  -0.49202  -0.48722  -0.46557
 Alpha  occ. eigenvalues --   -0.46142  -0.45184  -0.45130  -0.44658  -0.44431
 Alpha  occ. eigenvalues --   -0.44158  -0.43537  -0.43258  -0.42903  -0.42434
 Alpha  occ. eigenvalues --   -0.41062  -0.39777  -0.39423  -0.39065  -0.38413
 Alpha  occ. eigenvalues --   -0.38304  -0.37673  -0.37005  -0.36765  -0.36411
 Alpha  occ. eigenvalues --   -0.36391  -0.35651  -0.35434  -0.33848  -0.33048
 Alpha  occ. eigenvalues --   -0.30085  -0.28143  -0.27132  -0.26744  -0.26322
 Alpha  occ. eigenvalues --   -0.25872  -0.25598  -0.24143  -0.23093  -0.19653
 Alpha virt. eigenvalues --   -0.07413  -0.05475  -0.01622  -0.00848  -0.00578
 Alpha virt. eigenvalues --    0.00056   0.02412   0.05849   0.08300   0.08796
 Alpha virt. eigenvalues --    0.09231   0.09816   0.10425   0.11036   0.11310

 Mulliken charges:
               1
     1  O   -0.531900
     2  C    0.622553
     3  N   -0.750938
     4  C    0.365788
     5  C   -0.181828
     6  C   -0.197375
     7  C    0.334530
     8  C    0.338367
     9  C   -0.271348
    10  O   -0.535447
    11  C    0.191185
    12  O   -0.531720
    13  C    0.218205
    14  N   -0.402277
    15  N   -0.440517
    16  C    0.299025
    17  C   -0.139855
    18  C   -0.145108
    19  C   -0.117767
    20  C   -0.148342
    21  C   -0.121156
    22  C    0.585158
    23  O   -0.514178
    24  C    0.025126
    25  C   -0.170861
    26  C   -0.125066
    27  C   -0.128967
    28  C   -0.189219
    29  C    0.111788
    30  H    0.365072
    31  H    0.185510
    32  H    0.148519
    33  H    0.144741
    34  H    0.165798
    35  H    0.153755
    36  H    0.147648
    37  H    0.137875
    38  H    0.135673
    39  H    0.139590
    40  H    0.163556
    41  H    0.172649
    42  H    0.145445
    43  H    0.146281
    44  H    0.200036
 Sum of Mulliken charges =  -0.00000

 Dipole moment (field-independent basis, Debye):
    X=             -0.7925    Y=              1.1370    Z=             -0.6826  Tot=              1.5449
 Quadrupole moment (field-independent basis, Debye-Ang):
   XX=           -156.4183   YY=           -145.6957   ZZ=           -163.0269
   XY=            -15.0980   XZ=             -1.2719   YZ=              0.1363

 Normal termination of Gaussian 16 at Fri Nov  4 23:06:57 2022.
