 Gaussian 16, Revision B.01,
 Gaussian 16:  ES64L-G16RevB.01 20-Dec-2017

 -------------------------------------------------------------------
 #p b3lyp/6-31g(d) 6D 10F nosymm GFInput td=(50-50,nstate=2) SCF=XQC
 -------------------------------------------------------------------

 ------------------------------
 Gaussian input prepared by ASE
 ------------------------------
 Symbolic Z-matrix:
 Charge =  0 Multiplicity = 1

                          Input orientation:
 ---------------------------------------------------------------------
 Center     Atomic      Atomic             Coordinates (Angstroms)
 Number     Number       Type             X           Y           Z
 ---------------------------------------------------------------------
      1          8           0        1.763892    2.298895    0.510479
      2          6           0        1.033168    1.342751    0.259500
      3          7           0        1.460391    0.050112    0.147200
      4          6           0        2.759162   -0.475575    0.304111
      5          6           0        3.876412    0.309539    0.620928
      6          6           0        5.147857   -0.275233    0.760902
      7          6           0        5.256946   -1.637013    0.574250
      8          6           0        4.145801   -2.414964    0.259646
      9          6           0        2.887820   -1.873710    0.117831
     10          8           0        4.516533   -3.733817    0.154919
     11          6           0        5.948844   -3.732776    0.229375
     12          8           0        6.369168   -2.443817    0.683029
     13          6           0       -0.462575    1.505586    0.041367
     14          7           0       -1.114923    0.382784   -0.072757
     15          7           0       -2.448760    0.358744   -0.277156
     16          6           0       -3.022199   -0.962318   -0.311811
     17          6           0       -2.571432   -1.914241    0.607445
     18          6           0       -3.085876   -3.209061    0.570024
     19          6           0       -4.053089   -3.553950   -0.375451
     20          6           0       -4.501227   -2.595609   -1.286002
     21          6           0       -3.990240   -1.298362   -1.262555
     22          6           0       -3.258220    1.514660   -0.371538
     23          8           0       -4.467404    1.434680   -0.539554
     24          6           0       -2.519026    2.779757   -0.249408
     25          6           0       -3.248182    3.974856   -0.342344
     26          6           0       -2.595295    5.192328   -0.232695
     27          6           0       -1.206762    5.223270   -0.028380
     28          6           0       -0.471223    4.050749    0.069017
     29          6           0       -1.119822    2.801124   -0.038635
     30          1           0        0.721384   -0.614192   -0.054292
     31          1           0        3.750868    1.373712    0.754669
     32          1           0        6.012574    0.330176    1.010138
     33          1           0        2.032950   -2.496230   -0.127682
     34          1           0        6.274072   -4.494749    0.943028
     35          1           0        6.364757   -3.926665   -0.769899
     36          1           0       -1.825321   -1.634916    1.343431
     37          1           0       -2.734179   -3.945158    1.287512
     38          1           0       -4.456895   -4.562151   -0.400668
     39          1           0       -5.252829   -2.855937   -2.025893
     40          1           0       -4.342990   -0.555035   -1.964988
     41          1           0       -4.319036    3.910577   -0.501306
     42          1           0       -3.156037    6.119909   -0.305575
     43          1           0       -0.695772    6.178394    0.056880
     44          1           0        0.596718    4.072876    0.232904
 ---------------------------------------------------------------------

 SCF Done:  E(RB3LYP) =  -1312.52037639     A.U. after   16 cycles

 Excitation energies and oscillator strengths:

 Excited state symmetry could not be determined.
 Excited State   1:      Triplet-?Sym    2.4361 eV  508.95 nm  f=0.0000  <S**2>=2.000
      95 ->101         0.12869
      99 ->101         0.33499
     100 ->101         0.57659
     100 ->103         0.10197
 This state for optimization and/or second-order correction.
 Total Energy, E(TD-HF/TD-DFT) =  -1312.43085213
 Copying the excited state density for this state as the 1-particle RhoCI density.

 Excited state symmetry could not be determined.
 Excited State   2:      Triplet-?Sym    2.8152 eV  440.40 nm  f=0.0000  <S**2>=2.000
      95 ->101         0.15211
      98 ->101         0.14173
      99 ->101         0.51685
     100 ->101        -0.30897
     100 ->102         0.12360
     100 ->103        -0.15927

 Excited state symmetry could not be determined.
 Excited State   3:      Singlet-?Sym    2.8793 eV  430.61 nm  f=0.0791  <S**2>=0.000
     100 ->101         0.70532

 Excited state symmetry could not be determined.
 Excited State   4:      Singlet-?Sym    3.4752 eV  356.77 nm  f=0.0622  <S**2>=0.000
     100 ->102         0.70528

 Alpha  occ. eigenvalues --  -19.19483 -19.19214 -19.12991 -19.12848 -14.43507
 Alpha  occ. eigenvalues --  -14.39990 -14.37657 -10.30764 -10.30691 -10.30560
 Alpha  occ. eigenvalues --  -10.25652 -10.25202 -10.24574 -10.24182 -10.23994
 Alpha  occ. eigenvalues --  -10.22753 -10.21935 -10.20999 -10.20933 -10.20704
 Alpha  occ. eigenvalues --  -10.20267 -10.20204 -10.20023 -10.19989 -10.19949
 Alpha  occ. eigenvalues --  -10.19875 -10.19823 -10.19624 -10.18478  -1.12638
 Alpha  occ. eigenvalues --   -1.07540  -1.04734  -1.03517  -1.02515  -0.94712
 Alpha  occ. eigenvalues --   -0.89697  -0.87133  -0.85701  -0.84543  -0.78831
 Alpha  occ. eigenvalues --   -0.77326  -0.76362  -0.75722  -0.75604  -0.74771
 Alpha  occ. eigenvalues --   -0.69878  -0.67738  -0.66845  -0.64725  -0.63057
 Alpha  occ. eigenvalues --   -0.62144  -0.61500  -0.60897  -0.58690  -0.56666
 Alpha  occ. eigenvalues --   -0.56248  -0.54649  -0.52562  -0.52262  -0.51663
 Alpha  occ. eigenvalues --   -0.50990  -0.50022  -0.49202  -0.48722  -0.46557
 Alpha  occ. eigenvalues --   -0.46142  -0.45184  -0.45130  -0.44658  -0.44431
 Alpha  occ. eigenvalues --   -0.44158  -0.43536  -0.43258  -0.42903  -0.42434
 Alpha  occ. eigenvalues --   -0.41062  -0.39777  -0.39423  -0.39065  -0.38413
 Alpha  occ. eigenvalues --   -0.38304  -0.37673  -0.37006  -0.36765  -0.36411
 Alpha  occ. eigenvalues --   -0.36391  -0.35651  -0.35434  -0.33848  -0.33048
 Alpha  occ. eigenvalues --   -0.30085  -0.28143  -0.27132  -0.26744  -0.26322
 Alpha  occ. eigenvalues --   -0.25872  -0.25598  -0.24143  -0.23093  -0.19653
 Alpha virt. eigenvalues --   -0.07413  -0.05475  -0.01622  -0.00848  -0.00578
 Alpha virt. eigenvalues --    0.00056   0.02412   0.05849   0.08300   0.08796
 Alpha virt. eigenvalues --    0.09231   0.09816   0.10425   0.11036   0.11310

 Mulliken charges:
               1
     1  O   -0.531908
     2  C    0.622565
     3  N   -0.750939
     4  C    0.365785
     5  C   -0.181823
     6  C   -0.197375
     7  C    0.334532
     8  C    0.338360
     9  C   -0.271347
    10  O   -0.535454
    11  C    0.191206
    12  O   -0.531729
    13  C    0.218189
    14  N   -0.402266
    15  N   -0.440524
    16  C    0.298979
    17  C   -0.139826
    18  C   -0.145110
    19  C   -0.117778
    20  C   -0.148348
    21  C   -0.121122
    22  C    0.585163
    23  O   -0.514177
    24  C    0.025128
    25  C   -0.170860
    26  C   -0.125069
    27  C   -0.128968
    28  C   -0.189220
    29  C    0.111790
    30  H    0.365070
    31  H    0.185511
    32  H    0.148519
    33  H    0.144744
    34  H    0.165795
    35  H    0.153750
    36  H    0.147648
    37  H    0.137875
    38  H    0.135675
    39  H    0.139590
    40  H    0.163556
    41  H    0.172649
    42  H    0.145446
    43  H    0.146281
    44  H    0.200037
 Sum of Mulliken charges =  -0.00000

 Dipole moment (field-independent basis, Debye):
    X=              0.3348    Y=             -1.3438    Z=             -0.6847  Tot=              1.5449
 Quadrupole moment (field-independent basis, Debye-Ang):
   XX=           -166.0223   YY=           -136.3392   ZZ=           -162.8952
   XY=             -6.1067   XZ=              0.5445   YZ=             -0.6863

 Normal termination of Gaussian 16 at Sat Nov  5 09:39:34 2022.
