 Gaussian 16, Revision B.01,
 Gaussian 16:  ES64L-G16RevB.01 20-Dec-2017

 -----------------------------
 #p b3lyp/6-31g(d) opt SCF=XQC
 -----------------------------

 ------------------------------
 Gaussian input prepared by ASE
 ------------------------------
 Symbolic Z-matrix:
 Charge =  0 Multiplicity = 1

 SCF Done:  E(RB3LYP) =  -1134.79706248     A.U. after   14 cycles
 SCF Done:  E(RB3LYP) =  -1134.80769883     A.U. after   15 cycles
 SCF Done:  E(RB3LYP) =  -1134.80659902     A.U. after   14 cycles
 SCF Done:  E(RB3LYP) =  -1134.81164704     A.U. after   13 cycles
 SCF Done:  E(RB3LYP) =  -1134.81294471     A.U. after   12 cycles
 SCF Done:  E(RB3LYP) =  -1134.81347690     A.U. after   13 cycles
 SCF Done:  E(RB3LYP) =  -1134.81445379     A.U. after   12 cycles
 SCF Done:  E(RB3LYP) =  -1134.81481156     A.U. after   12 cycles
 SCF Done:  E(RB3LYP) =  -1134.81492768     A.U. after   13 cycles
 SCF Done:  E(RB3LYP) =  -1134.81507595     A.U. after   11 cycles
 SCF Done:  E(RB3LYP) =  -1134.81511315     A.U. after   11 cycles
 SCF Done:  E(RB3LYP) =  -1134.81512429     A.U. after   10 cycles
 SCF Done:  E(RB3LYP) =  -1134.81513463     A.U. after   10 cycles
 SCF Done:  E(RB3LYP) =  -1134.81513612     A.U. after    9 cycles
 SCF Done:  E(RB3LYP) =  -1134.81513621     A.U. after    7 cycles
 SCF Done:  E(RB3LYP) =  -1134.81513622     A.U. after    6 cycles
 Optimization completed.
    -- Stationary point found.

                         Standard orientation:
 ---------------------------------------------------------------------
 Center     Atomic      Atomic             Coordinates (Angstroms)
 Number     Number       Type             X           Y           Z
 ---------------------------------------------------------------------
      1          6           0       -7.348291   -1.126632   -1.159292
      2          8           0       -6.544879   -0.193572   -0.447764
      3          6           0       -5.263328   -0.529930   -0.152437
      4          6           0       -4.524606    0.440607    0.543894
      5          6           0       -3.209184    0.191639    0.901751
      6          6           0       -2.587915   -1.027657    0.568299
      7          6           0       -1.182687   -1.363106    0.911049
      8          8           0       -0.655491   -2.382711    0.464288
      9          6           0       -0.357738   -0.478690    1.845201
     10          6           0        0.772794    0.326962    1.134004
     11          7           0        1.591474   -0.573090    0.346251
     12          6           0        2.958140   -0.387267    0.167802
     13          6           0        3.588081    0.851434    0.364670
     14          6           0        4.962488    0.970324    0.154761
     15          6           0        5.755491   -0.102748   -0.255650
     16          6           0        7.240202    0.071651   -0.472279
     17          6           0        5.123662   -1.350020   -0.463567
     18          6           0        5.923308   -2.552575   -0.909189
     19          6           0        3.752784   -1.473273   -0.249868
     20          6           0        0.204053    1.505087    0.337484
     21          6           0       -0.139031    2.689107    1.004508
     22          6           0       -0.700075    3.763253    0.312596
     23          6           0       -0.920883    3.667442   -1.063088
     24          6           0       -0.572456    2.495556   -1.736553
     25          6           0       -0.012416    1.422114   -1.041401
     26          6           0       -3.337218   -1.982050   -0.138955
     27          6           0       -4.660028   -1.750750   -0.495642
     28          1           0       -7.472203   -2.060391   -0.596505
     29          1           0       -8.320415   -0.646939   -1.283090
     30          1           0       -6.924231   -1.350214   -2.146235
     31          1           0       -5.006953    1.381596    0.787765
     32          1           0       -2.657269    0.969003    1.418640
     33          1           0        0.117905   -1.161063    2.558749
     34          1           0       -0.977202    0.217542    2.413711
     35          1           0        1.380614    0.751813    1.948757
     36          1           0        1.257488   -1.529447    0.309277
     37          1           0        3.011963    1.724743    0.651729
     38          1           0        5.430433    1.940399    0.311767
     39          1           0        7.546498    1.102549   -0.266791
     40          1           0        7.538482   -0.160938   -1.503815
     41          1           0        7.833782   -0.584257    0.179444
     42          1           0        6.716045   -2.801685   -0.191408
     43          1           0        5.285541   -3.434911   -1.020604
     44          1           0        6.418688   -2.374856   -1.872863
     45          1           0        3.276458   -2.439907   -0.406597
     46          1           0        0.044193    2.774689    2.074853
     47          1           0       -0.954499    4.676491    0.844634
     48          1           0       -1.352619    4.503704   -1.606602
     49          1           0       -0.732379    2.416873   -2.808857
     50          1           0        0.276516    0.515119   -1.563449
     51          1           0       -2.854924   -2.917766   -0.401979
     52          1           0       -5.210150   -2.513113   -1.035071
 ---------------------------------------------------------------------

 The electronic state is 1-A.
 Alpha  occ. eigenvalues --  -19.19441 -19.13638 -14.32556 -10.27730 -10.26546
 Alpha  occ. eigenvalues --  -10.25296 -10.23357 -10.20817 -10.20550 -10.20223
 Alpha  occ. eigenvalues --  -10.19983 -10.19881 -10.19765 -10.19567 -10.19080
 Alpha  occ. eigenvalues --  -10.18906 -10.18787 -10.18657 -10.18596 -10.18124
 Alpha  occ. eigenvalues --  -10.17656 -10.16989 -10.16778 -10.16676 -10.16618
 Alpha  occ. eigenvalues --  -10.16231 -10.16093  -1.08053  -1.03536  -0.92351
 Alpha  occ. eigenvalues --   -0.86318  -0.85059  -0.83063  -0.78938  -0.77259
 Alpha  occ. eigenvalues --   -0.76019  -0.74768  -0.74023  -0.73705  -0.73219
 Alpha  occ. eigenvalues --   -0.71233  -0.68099  -0.65649  -0.64456  -0.61921
 Alpha  occ. eigenvalues --   -0.61802  -0.60153  -0.58475  -0.57860  -0.55646
 Alpha  occ. eigenvalues --   -0.55031  -0.53995  -0.51257  -0.50632  -0.49791
 Alpha  occ. eigenvalues --   -0.48796  -0.48157  -0.46761  -0.46532  -0.45682
 Alpha  occ. eigenvalues --   -0.44691  -0.44289  -0.43963  -0.43409  -0.42956
 Alpha  occ. eigenvalues --   -0.41974  -0.41866  -0.41570  -0.41497  -0.40565
 Alpha  occ. eigenvalues --   -0.40092  -0.39711  -0.39186  -0.38555  -0.38363
 Alpha  occ. eigenvalues --   -0.37253  -0.37122  -0.37031  -0.36694  -0.36243
 Alpha  occ. eigenvalues --   -0.35555  -0.34596  -0.33695  -0.33597  -0.33050
 Alpha  occ. eigenvalues --   -0.32706  -0.32312  -0.31440  -0.26989  -0.26359
 Alpha  occ. eigenvalues --   -0.25220  -0.24648  -0.23935  -0.23208  -0.22190
 Alpha  occ. eigenvalues --   -0.17588
 Alpha virt. eigenvalues --   -0.05573  -0.01046  -0.00191   0.00316   0.02342
 Alpha virt. eigenvalues --    0.03484   0.04394   0.08612   0.09316   0.09943
 Alpha virt. eigenvalues --    0.10607   0.11313   0.12261   0.12303   0.13139

 Mulliken charges:
               1
     1  C   -0.220692
     2  O   -0.499079
     3  C    0.389097
     4  C   -0.181080
     5  C   -0.172438
     6  C    0.069666
     7  C    0.405597
     8  O   -0.494042
     9  C   -0.377786
    10  C   -0.030640
    11  N   -0.706597
    12  C    0.374586
    13  C   -0.181684
    14  C   -0.201574
    15  C    0.131747
    16  C   -0.532381
    17  C    0.132722
    18  C   -0.532835
    19  C   -0.266413
    20  C    0.161245
    21  C   -0.195291
    22  C   -0.130769
    23  C   -0.128547
    24  C   -0.127981
    25  C   -0.167024
    26  C   -0.163855
    27  C   -0.195921
    28  H    0.158831
    29  H    0.176267
    30  H    0.159638
    31  H    0.146271
    32  H    0.151489
    33  H    0.177297
    34  H    0.154224
    35  H    0.141860
    36  H    0.351215
    37  H    0.124418
    38  H    0.112003
    39  H    0.148382
    40  H    0.150884
    41  H    0.150303
    42  H    0.155218
    43  H    0.151412
    44  H    0.155872
    45  H    0.113925
    46  H    0.120992
    47  H    0.127939
    48  H    0.127915
    49  H    0.130848
    50  H    0.149034
    51  H    0.165825
    52  H    0.139906
 Sum of Mulliken charges =  -0.00000

 Dipole moment (field-independent basis, Debye):
    X=             -4.5944    Y=              0.3683    Z=              0.1221  Tot=              4.6107
 Quadrupole moment (field-independent basis, Debye-Ang):
   XX=           -134.9999   YY=           -152.9210   ZZ=           -152.4037
   XY=              5.2473   XZ=              7.0693   YZ=              5.2083

 Normal termination of Gaussian 16 at Fri Nov  4 22:16:03 2022.
