 Gaussian 16, Revision B.01,
 Gaussian 16:  ES64L-G16RevB.01 20-Dec-2017

 -------------------------------------------------------------------
 #p b3lyp/6-31g(d) 6D 10F nosymm GFInput td=(50-50,nstate=2) SCF=XQC
 -------------------------------------------------------------------

 ------------------------------
 Gaussian input prepared by ASE
 ------------------------------
 Symbolic Z-matrix:
 Charge =  0 Multiplicity = 1

                          Input orientation:
 ---------------------------------------------------------------------
 Center     Atomic      Atomic             Coordinates (Angstroms)
 Number     Number       Type             X           Y           Z
 ---------------------------------------------------------------------
      1          6           0        7.422697   -0.814668   -2.231878
      2          8           0        6.663221   -1.072494   -1.057542
      3          6           0        5.471047   -0.442276   -0.901739
      4          6           0        4.770079   -0.748941    0.276025
      5          6           0        3.546937   -0.151309    0.535139
      6          6           0        2.981571    0.762231   -0.375714
      7          6           0        1.674526    1.436177   -0.170534
      8          8           0        1.169075    2.109215   -1.069792
      9          6           0        0.930981    1.343617    1.161362
     10          6           0       -0.353553    0.459776    1.119226
     11          7           0       -1.206768    0.891103    0.029793
     12          6           0       -2.595142    0.844640    0.096207
     13          6           0       -3.284887    0.027282    1.005129
     14          6           0       -4.680280    0.019816    1.008620
     15          6           0       -5.438019    0.796507    0.130350
     16          6           0       -6.947536    0.756163    0.168311
     17          6           0       -4.747385    1.614581   -0.792637
     18          6           0       -5.506657    2.479527   -1.772192
     19          6           0       -3.354556    1.628242   -0.795182
     20          6           0       -0.005683   -1.031341    1.081190
     21          6           0        0.338203   -1.691448    2.268848
     22          6           0        0.702388   -3.038510    2.259022
     23          6           0        0.721872   -3.746642    1.055439
     24          6           0        0.370794   -3.099252   -0.130269
     25          6           0        0.008027   -1.751144   -0.117460
     26          6           0        3.690051    1.048042   -1.554229
     27          6           0        4.922053    0.464488   -1.822907
     28          1           0        7.703121    0.243714   -2.303845
     29          1           0        8.324186   -1.422587   -2.141272
     30          1           0        6.874907   -1.108205   -3.136109
     31          1           0        5.207226   -1.461778    0.967660
     32          1           0        3.018578   -0.425269    1.441706
     33          1           0        0.623097    2.367357    1.402576
     34          1           0        1.571250    0.989641    1.971568
     35          1           0       -0.864475    0.647530    2.077074
     36          1           0       -0.807207    1.607970   -0.565174
     37          1           0       -2.743490   -0.620201    1.686773
     38          1           0       -5.195004   -0.622531    1.720742
     39          1           0       -7.300523    0.066172    0.941684
     40          1           0       -7.377316    0.426799   -0.787693
     41          1           0       -7.383002    1.741865    0.382917
     42          1           0       -6.160822    3.196419   -1.258546
     43          1           0       -4.824711    3.049274   -2.410953
     44          1           0       -6.153117    1.879145   -2.425861
     45          1           0       -2.831805    2.266656   -1.505807
     46          1           0        0.310907   -1.147864    3.212408
     47          1           0        0.960204   -3.536504    3.190329
     48          1           0        0.999696   -4.797273    1.044212
     49          1           0        0.374285   -3.646104   -1.069706
     50          1           0       -0.282799   -1.247654   -1.034288
     51          1           0        3.249674    1.746033   -2.258664
     52          1           0        5.444082    0.714015   -2.739441
 ---------------------------------------------------------------------

 SCF Done:  E(RB3LYP) =  -1134.81514159     A.U. after   14 cycles

 Excitation energies and oscillator strengths:

 Excited state symmetry could not be determined.
 Excited State   1:      Triplet-?Sym    2.6851 eV  461.74 nm  f=0.0000  <S**2>=2.000
      96 -> 97         0.70296
 This state for optimization and/or second-order correction.
 Total Energy, E(TD-HF/TD-DFT) =  -1134.71646438
 Copying the excited state density for this state as the 1-particle RhoCI density.

 Excited state symmetry could not be determined.
 Excited State   2:      Singlet-?Sym    2.7061 eV  458.17 nm  f=0.0090  <S**2>=0.000
      96 -> 97         0.70496

 Excited state symmetry could not be determined.
 Excited State   3:      Triplet-?Sym    3.0726 eV  403.51 nm  f=0.0000  <S**2>=2.000
      87 -> 97        -0.10979
      90 -> 98         0.15573
      94 -> 97         0.65535

 Excited state symmetry could not be determined.
 Excited State   4:      Singlet-?Sym    3.7852 eV  327.55 nm  f=0.0009  <S**2>=0.000
      91 -> 97         0.58565
      92 -> 97        -0.14935
      93 -> 97         0.29530
      94 -> 97         0.10593
      95 -> 97         0.14874

 Alpha  occ. eigenvalues --  -19.19441 -19.13638 -14.32556 -10.27730 -10.26546
 Alpha  occ. eigenvalues --  -10.25296 -10.23357 -10.20817 -10.20550 -10.20223
 Alpha  occ. eigenvalues --  -10.19983 -10.19881 -10.19765 -10.19567 -10.19080
 Alpha  occ. eigenvalues --  -10.18906 -10.18787 -10.18658 -10.18596 -10.18124
 Alpha  occ. eigenvalues --  -10.17656 -10.16989 -10.16778 -10.16676 -10.16618
 Alpha  occ. eigenvalues --  -10.16231 -10.16093  -1.08053  -1.03536  -0.92351
 Alpha  occ. eigenvalues --   -0.86318  -0.85059  -0.83063  -0.78938  -0.77259
 Alpha  occ. eigenvalues --   -0.76019  -0.74768  -0.74023  -0.73705  -0.73219
 Alpha  occ. eigenvalues --   -0.71233  -0.68099  -0.65649  -0.64456  -0.61921
 Alpha  occ. eigenvalues --   -0.61802  -0.60154  -0.58475  -0.57860  -0.55646
 Alpha  occ. eigenvalues --   -0.55031  -0.53995  -0.51257  -0.50632  -0.49791
 Alpha  occ. eigenvalues --   -0.48796  -0.48157  -0.46761  -0.46532  -0.45682
 Alpha  occ. eigenvalues --   -0.44691  -0.44290  -0.43963  -0.43409  -0.42956
 Alpha  occ. eigenvalues --   -0.41974  -0.41866  -0.41570  -0.41497  -0.40565
 Alpha  occ. eigenvalues --   -0.40092  -0.39711  -0.39186  -0.38555  -0.38363
 Alpha  occ. eigenvalues --   -0.37253  -0.37122  -0.37031  -0.36694  -0.36243
 Alpha  occ. eigenvalues --   -0.35555  -0.34596  -0.33695  -0.33597  -0.33050
 Alpha  occ. eigenvalues --   -0.32706  -0.32312  -0.31440  -0.26989  -0.26359
 Alpha  occ. eigenvalues --   -0.25220  -0.24648  -0.23935  -0.23208  -0.22190
 Alpha  occ. eigenvalues --   -0.17588
 Alpha virt. eigenvalues --   -0.05573  -0.01046  -0.00191   0.00316   0.02342
 Alpha virt. eigenvalues --    0.03484   0.04393   0.08612   0.09316   0.09943
 Alpha virt. eigenvalues --    0.10607   0.11313   0.12261   0.12303   0.13139

 Mulliken charges:
               1
     1  C   -0.220695
     2  O   -0.499078
     3  C    0.389091
     4  C   -0.181080
     5  C   -0.172441
     6  C    0.069667
     7  C    0.405583
     8  O   -0.494040
     9  C   -0.377787
    10  C   -0.030565
    11  N   -0.706613
    12  C    0.374569
    13  C   -0.181679
    14  C   -0.201568
    15  C    0.131747
    16  C   -0.532386
    17  C    0.132723
    18  C   -0.532832
    19  C   -0.266410
    20  C    0.161192
    21  C   -0.195277
    22  C   -0.130779
    23  C   -0.128548
    24  C   -0.127969
    25  C   -0.167024
    26  C   -0.163850
    27  C   -0.195918
    28  H    0.158832
    29  H    0.176268
    30  H    0.159640
    31  H    0.146272
    32  H    0.151488
    33  H    0.177299
    34  H    0.154225
    35  H    0.141855
    36  H    0.351215
    37  H    0.124418
    38  H    0.112003
    39  H    0.148382
    40  H    0.150886
    41  H    0.150303
    42  H    0.155217
    43  H    0.151412
    44  H    0.155871
    45  H    0.113925
    46  H    0.120991
    47  H    0.127940
    48  H    0.127916
    49  H    0.130848
    50  H    0.149036
    51  H    0.165826
    52  H    0.139903
 Sum of Mulliken charges =  -0.00000

 Dipole moment (field-independent basis, Debye):
    X=              4.5171    Y=             -0.9229    Z=             -0.0578  Tot=              4.6108
 Quadrupole moment (field-independent basis, Debye-Ang):
   XX=           -134.4994   YY=           -157.1811   ZZ=           -146.2326
   XY=             -3.2130   XZ=            -10.1192   YZ=             -0.1445

 Normal termination of Gaussian 16 at Sat Nov  5 09:40:47 2022.
