 Gaussian 16, Revision B.01,
 Gaussian 16:  ES64L-G16RevB.01 20-Dec-2017

 -----------------------------
 #p b3lyp/6-31g(d) opt SCF=XQC
 -----------------------------

 ------------------------------
 Gaussian input prepared by ASE
 ------------------------------
 Symbolic Z-matrix:
 Charge =  0 Multiplicity = 1

 SCF Done:  E(RB3LYP) =  -1758.13919008     A.U. after   16 cycles
 SCF Done:  E(RB3LYP) =  -1758.15023859     A.U. after   15 cycles
 SCF Done:  E(RB3LYP) =  -1758.15353823     A.U. after   15 cycles
 SCF Done:  E(RB3LYP) =  -1758.15717151     A.U. after   13 cycles
 SCF Done:  E(RB3LYP) =  -1758.15671622     A.U. after   13 cycles
 SCF Done:  E(RB3LYP) =  -1758.15879232     A.U. after   13 cycles
 SCF Done:  E(RB3LYP) =  -1758.15914982     A.U. after   13 cycles
 SCF Done:  E(RB3LYP) =  -1758.15969921     A.U. after   13 cycles
 SCF Done:  E(RB3LYP) =  -1758.15996495     A.U. after   12 cycles
 SCF Done:  E(RB3LYP) =  -1758.16016639     A.U. after   13 cycles
 SCF Done:  E(RB3LYP) =  -1758.16033417     A.U. after   11 cycles
 SCF Done:  E(RB3LYP) =  -1758.16033675     A.U. after   11 cycles
 SCF Done:  E(RB3LYP) =  -1758.16033706     A.U. after   10 cycles
 SCF Done:  E(RB3LYP) =  -1758.16033742     A.U. after    9 cycles
 SCF Done:  E(RB3LYP) =  -1758.16033627     A.U. after   10 cycles
 SCF Done:  E(RB3LYP) =  -1758.16033671     A.U. after    8 cycles
 SCF Done:  E(RB3LYP) =  -1758.16033752     A.U. after   10 cycles
 SCF Done:  E(RB3LYP) =  -1758.16033741     A.U. after   10 cycles
 SCF Done:  E(RB3LYP) =  -1758.16033757     A.U. after    7 cycles
 SCF Done:  E(RB3LYP) =  -1758.16033767     A.U. after    7 cycles
 Optimization completed.
    -- Stationary point found.

                         Standard orientation:
 ---------------------------------------------------------------------
 Center     Atomic      Atomic             Coordinates (Angstroms)
 Number     Number       Type             X           Y           Z
 ---------------------------------------------------------------------
      1          6           0        5.587818   -2.416661    0.845528
      2          6           0        4.260060   -1.771355    1.162636
      3          6           0        4.183766   -0.420964    1.527789
      4          6           0        2.958257    0.187045    1.795677
      5          6           0        1.790627   -0.570219    1.694961
      6         16           0        0.208595    0.199402    2.034121
      7          8           0        0.474932    1.373024    2.870365
      8          8           0       -0.724725   -0.848264    2.450207
      9          7           0       -0.384357    0.785683    0.540425
     10          6           0       -1.426246    0.105005   -0.183778
     11          6           0       -2.667848    0.147787    0.392001
     12          6           0       -4.006482   -0.383704    0.148188
     13          6           0       -4.955158   -0.081589    1.155467
     14          6           0       -6.273944   -0.509476    1.066638
     15          6           0       -6.688009   -1.253226   -0.040863
     16          6           0       -5.769824   -1.560165   -1.047261
     17          6           0       -4.446018   -1.136752   -0.962412
     18          6           0       -1.009767   -0.563065   -1.439404
     19          8           0       -1.799375   -1.189699   -2.143642
     20          6           0        0.440453   -0.547196   -1.860102
     21          6           0        0.875115   -1.727935   -2.485862
     22          6           0        2.165919   -1.856573   -2.983226
     23          6           0        3.046368   -0.777908   -2.883576
     24          6           0        2.621590    0.408545   -2.295196
     25          6           0        1.322866    0.556205   -1.773919
     26          6           0        0.947736    1.872910   -1.201057
     27          6           0        1.400402    3.064003   -1.795610
     28          6           0        1.119131    4.305522   -1.232422
     29          6           0        0.369223    4.386707   -0.057124
     30          6           0       -0.116678    3.222785    0.532668
     31          6           0        0.164317    1.975250   -0.035151
     32          6           0        1.836400   -1.921824    1.345476
     33          6           0        3.070033   -2.510590    1.083879
     34          1           0        5.751406   -2.463058   -0.239355
     35          1           0        5.635181   -3.443758    1.223312
     36          1           0        6.421409   -1.855673    1.279509
     37          1           0        5.096994    0.162904    1.612980
     38          1           0        2.904478    1.226427    2.100200
     39          1           0       -2.647181    0.727523    1.311020
     40          1           0       -4.638714    0.493167    2.022190
     41          1           0       -6.976813   -0.264667    1.858102
     42          1           0       -7.718411   -1.590302   -0.118239
     43          1           0       -6.086678   -2.137438   -1.911801
     44          1           0       -3.740965   -1.377969   -1.743497
     45          1           0        0.165617   -2.543213   -2.578577
     46          1           0        2.481600   -2.786867   -3.447177
     47          1           0        4.061728   -0.858419   -3.262731
     48          1           0        3.314894    1.239748   -2.211887
     49          1           0        1.966438    3.010178   -2.720631
     50          1           0        1.479475    5.209752   -1.715190
     51          1           0        0.148448    5.352151    0.389060
     52          1           0       -0.705250    3.259947    1.441794
     53          1           0        0.920831   -2.501868    1.302531
     54          1           0        3.111186   -3.564668    0.820389
 ---------------------------------------------------------------------

 The electronic state is 1-A.
 Alpha  occ. eigenvalues --  -89.10892 -19.14058 -19.13921 -19.13597 -14.37072
 Alpha  occ. eigenvalues --  -10.27827 -10.23744 -10.23675 -10.22297 -10.21807
 Alpha  occ. eigenvalues --  -10.21557 -10.21424 -10.21068 -10.20792 -10.20767
 Alpha  occ. eigenvalues --  -10.20634 -10.20588 -10.20205 -10.20128 -10.20111
 Alpha  occ. eigenvalues --  -10.19965 -10.19909 -10.19903 -10.19809 -10.19805
 Alpha  occ. eigenvalues --  -10.19728 -10.19699 -10.19677 -10.19658 -10.19543
 Alpha  occ. eigenvalues --  -10.19254 -10.18977 -10.18479  -8.13359  -6.09873
 Alpha  occ. eigenvalues --   -6.09780  -6.09655  -1.10703  -1.03666  -0.99888
 Alpha  occ. eigenvalues --   -0.95072  -0.87305  -0.87201  -0.85902  -0.85269
 Alpha  occ. eigenvalues --   -0.79881  -0.79125  -0.78642  -0.76542  -0.75929
 Alpha  occ. eigenvalues --   -0.75437  -0.74556  -0.73781  -0.72864  -0.70658
 Alpha  occ. eigenvalues --   -0.67355  -0.64659  -0.63927  -0.62938  -0.62219
 Alpha  occ. eigenvalues --   -0.60829  -0.60220  -0.59242  -0.58888  -0.57626
 Alpha  occ. eigenvalues --   -0.55117  -0.54592  -0.52514  -0.51599  -0.50398
 Alpha  occ. eigenvalues --   -0.50049  -0.48220  -0.48042  -0.47665  -0.46840
 Alpha  occ. eigenvalues --   -0.46496  -0.45889  -0.45314  -0.45090  -0.44609
 Alpha  occ. eigenvalues --   -0.44017  -0.43754  -0.43396  -0.43110  -0.43066
 Alpha  occ. eigenvalues --   -0.42879  -0.42239  -0.41185  -0.40287  -0.39740
 Alpha  occ. eigenvalues --   -0.39600  -0.38203  -0.37886  -0.37665  -0.37145
 Alpha  occ. eigenvalues --   -0.37071  -0.36654  -0.36012  -0.35705  -0.35447
 Alpha  occ. eigenvalues --   -0.35402  -0.34745  -0.33879  -0.33637  -0.32039
 Alpha  occ. eigenvalues --   -0.30840  -0.30285  -0.29632  -0.28840  -0.28059
 Alpha  occ. eigenvalues --   -0.26840  -0.26105  -0.25813  -0.25166  -0.24802
 Alpha  occ. eigenvalues --   -0.24084  -0.23346  -0.22592
 Alpha virt. eigenvalues --   -0.08288  -0.03846  -0.03527  -0.01854  -0.01599
 Alpha virt. eigenvalues --   -0.01043   0.00050   0.01317   0.02822   0.05602
 Alpha virt. eigenvalues --    0.07859   0.08238   0.09125   0.09503   0.10495

 Mulliken charges:
               1
     1  C   -0.531464
     2  C    0.183878
     3  C   -0.178576
     4  C   -0.139528
     5  C   -0.138954
     6  S    1.238443
     7  O   -0.546849
     8  O   -0.539793
     9  N   -0.768931
    10  C    0.210768
    11  C   -0.175687
    12  C    0.164850
    13  C   -0.182950
    14  C   -0.133357
    15  C   -0.118685
    16  C   -0.136770
    17  C   -0.177914
    18  C    0.346799
    19  O   -0.488593
    20  C    0.044671
    21  C   -0.162339
    22  C   -0.128916
    23  C   -0.126973
    24  C   -0.175711
    25  C    0.065524
    26  C    0.088103
    27  C   -0.203705
    28  C   -0.122438
    29  C   -0.144998
    30  C   -0.116829
    31  C    0.220984
    32  C   -0.138291
    33  C   -0.171212
    34  H    0.170141
    35  H    0.165352
    36  H    0.161492
    37  H    0.133722
    38  H    0.178040
    39  H    0.167108
    40  H    0.144043
    41  H    0.136135
    42  H    0.136009
    43  H    0.136681
    44  H    0.204569
    45  H    0.158298
    46  H    0.135037
    47  H    0.133858
    48  H    0.138044
    49  H    0.140719
    50  H    0.135517
    51  H    0.139374
    52  H    0.160337
    53  H    0.176235
    54  H    0.134732
 Sum of Mulliken charges =  -0.00000

 Dipole moment (field-independent basis, Debye):
    X=              3.1767    Y=              0.2150    Z=             -2.3413  Tot=              3.9522
 Quadrupole moment (field-independent basis, Debye-Ang):
   XX=           -159.1139   YY=           -178.9837   ZZ=           -206.5717
   XY=             -4.5726   XZ=             -8.3013   YZ=              0.7843

 Normal termination of Gaussian 16 at Sat Nov  5 00:23:17 2022.
