 Gaussian 16, Revision B.01,
 Gaussian 16:  ES64L-G16RevB.01 20-Dec-2017

 -------------------------------------------------------------------
 #p b3lyp/6-31g(d) 6D 10F nosymm GFInput td=(50-50,nstate=2) SCF=XQC
 -------------------------------------------------------------------

 ------------------------------
 Gaussian input prepared by ASE
 ------------------------------
 Symbolic Z-matrix:
 Charge =  0 Multiplicity = 1

                          Input orientation:
 ---------------------------------------------------------------------
 Center     Atomic      Atomic             Coordinates (Angstroms)
 Number     Number       Type             X           Y           Z
 ---------------------------------------------------------------------
      1          6           0        3.764347   -2.979377    3.565351
      2          6           0        3.318418   -2.018003    2.489793
      3          6           0        3.520366   -2.308620    1.134259
      4          6           0        3.086898   -1.437408    0.136057
      5          6           0        2.439839   -0.256681    0.502322
      6         16           0        1.875373    0.870800   -0.770603
      7          8           0        2.666132    0.589377   -1.971905
      8          8           0        1.806503    2.212157   -0.189364
      9          7           0        0.260972    0.436275   -1.133017
     10          6           0       -0.859013    1.201117   -0.649310
     11          6           0       -1.007424    2.443562   -1.205397
     12          6           0       -1.876864    3.608991   -1.064976
     13          6           0       -1.518948    4.714695   -1.874412
     14          6           0       -2.251006    5.895404   -1.860644
     15          6           0       -3.372625    6.005702   -1.035429
     16          6           0       -3.745222    4.926694   -0.231051
     17          6           0       -3.013751    3.741857   -0.238210
     18          6           0       -1.684008    0.548820    0.394846
     19          8           0       -2.659941    1.099847    0.900836
     20          6           0       -1.298623   -0.812309    0.923220
     21          6           0       -1.548147   -0.993523    2.294187
     22          6           0       -1.302777   -2.206470    2.925570
     23          6           0       -0.821377   -3.281067    2.175813
     24          6           0       -0.599058   -3.127100    0.811568
     25          6           0       -0.829043   -1.904159    0.154498
     26          6           0       -0.601334   -1.847158   -1.310940
     27          6           0       -0.940108   -2.940198   -2.128006
     28          6           0       -0.668409   -2.933952   -3.493218
     29          6           0       -0.052753   -1.825645   -4.078796
     30          6           0        0.263410   -0.718595   -3.295758
     31          6           0       -0.012077   -0.724429   -1.923973
     32          6           0        2.235658    0.066043    1.845911
     33          6           0        2.677674   -0.816195    2.827342
     34          1           0        2.922520   -3.589725    3.918463
     35          1           0        4.166257   -2.449441    4.435712
     36          1           0        4.535090   -3.664248    3.198160
     37          1           0        4.032382   -3.225920    0.854000
     38          1           0        3.264965   -1.654302   -0.911411
     39          1           0       -0.240889    2.625236   -1.954085
     40          1           0       -0.644702    4.637272   -2.515809
     41          1           0       -1.948272    6.727251   -2.490529
     42          1           0       -3.951278    6.925629   -1.020217
     43          1           0       -4.617677    5.006413    0.412018
     44          1           0       -3.306667    2.911636    0.386538
     45          1           0       -1.949549   -0.153998    2.851624
     46          1           0       -1.488272   -2.314456    3.990597
     47          1           0       -0.619123   -4.237599    2.650510
     48          1           0       -0.214880   -3.964076    0.236776
     49          1           0       -1.437636   -3.796985   -1.683777
     50          1           0       -0.943879   -3.791517   -4.100872
     51          1           0        0.164518   -1.815373   -5.143029
     52          1           0        0.736619    0.155377   -3.727680
     53          1           0        1.758390    1.003105    2.111788
     54          1           0        2.529003   -0.564732    3.874656
 ---------------------------------------------------------------------

 SCF Done:  E(RB3LYP) =  -1758.16033057     A.U. after   16 cycles

 Excitation energies and oscillator strengths:

 Excited state symmetry could not be determined.
 Excited State   1:      Triplet-?Sym    2.2358 eV  554.54 nm  f=0.0000  <S**2>=2.000
     115 ->119        -0.10363
     117 ->119        -0.14827
     118 ->119         0.64517
 This state for optimization and/or second-order correction.
 Total Energy, E(TD-HF/TD-DFT) =  -1758.07816604
 Copying the excited state density for this state as the 1-particle RhoCI density.

 Excited state symmetry could not be determined.
 Excited State   2:      Triplet-?Sym    2.7564 eV  449.81 nm  f=0.0000  <S**2>=2.000
     111 ->119        -0.11471
     112 ->119         0.14569
     115 ->119         0.28486
     116 ->119         0.56453

 Excited state symmetry could not be determined.
 Excited State   3:      Singlet-?Sym    3.1339 eV  395.62 nm  f=0.0102  <S**2>=0.000
     111 ->119        -0.14052
     112 ->119         0.14700
     115 ->119         0.19011
     116 ->119         0.49071
     117 ->119        -0.15356
     118 ->119        -0.36535

 Excited state symmetry could not be determined.
 Excited State   4:      Singlet-?Sym    3.4379 eV  360.63 nm  f=0.1028  <S**2>=0.000
     115 ->119         0.21072
     116 ->119         0.24498
     117 ->119         0.52913
     118 ->119         0.30318

 Alpha  occ. eigenvalues --  -89.10892 -19.14058 -19.13921 -19.13597 -14.37072
 Alpha  occ. eigenvalues --  -10.27827 -10.23744 -10.23675 -10.22297 -10.21807
 Alpha  occ. eigenvalues --  -10.21557 -10.21424 -10.21068 -10.20792 -10.20767
 Alpha  occ. eigenvalues --  -10.20634 -10.20588 -10.20205 -10.20128 -10.20111
 Alpha  occ. eigenvalues --  -10.19965 -10.19909 -10.19903 -10.19809 -10.19805
 Alpha  occ. eigenvalues --  -10.19728 -10.19699 -10.19677 -10.19658 -10.19543
 Alpha  occ. eigenvalues --  -10.19254 -10.18977 -10.18479  -8.13358  -6.09873
 Alpha  occ. eigenvalues --   -6.09780  -6.09654  -1.10703  -1.03666  -0.99887
 Alpha  occ. eigenvalues --   -0.95072  -0.87305  -0.87201  -0.85902  -0.85269
 Alpha  occ. eigenvalues --   -0.79881  -0.79125  -0.78642  -0.76542  -0.75929
 Alpha  occ. eigenvalues --   -0.75437  -0.74556  -0.73781  -0.72864  -0.70658
 Alpha  occ. eigenvalues --   -0.67355  -0.64659  -0.63927  -0.62938  -0.62219
 Alpha  occ. eigenvalues --   -0.60829  -0.60220  -0.59242  -0.58888  -0.57626
 Alpha  occ. eigenvalues --   -0.55117  -0.54592  -0.52514  -0.51599  -0.50398
 Alpha  occ. eigenvalues --   -0.50049  -0.48220  -0.48042  -0.47665  -0.46840
 Alpha  occ. eigenvalues --   -0.46496  -0.45889  -0.45314  -0.45089  -0.44609
 Alpha  occ. eigenvalues --   -0.44017  -0.43753  -0.43396  -0.43110  -0.43066
 Alpha  occ. eigenvalues --   -0.42879  -0.42239  -0.41185  -0.40287  -0.39740
 Alpha  occ. eigenvalues --   -0.39600  -0.38203  -0.37886  -0.37665  -0.37145
 Alpha  occ. eigenvalues --   -0.37071  -0.36654  -0.36012  -0.35705  -0.35447
 Alpha  occ. eigenvalues --   -0.35402  -0.34745  -0.33879  -0.33637  -0.32039
 Alpha  occ. eigenvalues --   -0.30840  -0.30285  -0.29632  -0.28840  -0.28059
 Alpha  occ. eigenvalues --   -0.26841  -0.26105  -0.25813  -0.25166  -0.24802
 Alpha  occ. eigenvalues --   -0.24084  -0.23346  -0.22592
 Alpha virt. eigenvalues --   -0.08288  -0.03846  -0.03527  -0.01854  -0.01599
 Alpha virt. eigenvalues --   -0.01043   0.00050   0.01317   0.02822   0.05602
 Alpha virt. eigenvalues --    0.07859   0.08238   0.09125   0.09503   0.10495

 Mulliken charges:
               1
     1  C   -0.531469
     2  C    0.183876
     3  C   -0.178575
     4  C   -0.139522
     5  C   -0.138966
     6  S    1.238487
     7  O   -0.546847
     8  O   -0.539818
     9  N   -0.768947
    10  C    0.210741
    11  C   -0.175651
    12  C    0.164844
    13  C   -0.182954
    14  C   -0.133352
    15  C   -0.118686
    16  C   -0.136767
    17  C   -0.177915
    18  C    0.346820
    19  O   -0.488600
    20  C    0.044633
    21  C   -0.162338
    22  C   -0.128907
    23  C   -0.126980
    24  C   -0.175708
    25  C    0.065537
    26  C    0.088086
    27  C   -0.203703
    28  C   -0.122438
    29  C   -0.145003
    30  C   -0.116814
    31  C    0.220999
    32  C   -0.138290
    33  C   -0.171206
    34  H    0.170141
    35  H    0.165353
    36  H    0.161493
    37  H    0.133721
    38  H    0.178042
    39  H    0.167103
    40  H    0.144043
    41  H    0.136134
    42  H    0.136008
    43  H    0.136680
    44  H    0.204570
    45  H    0.158298
    46  H    0.135037
    47  H    0.133858
    48  H    0.138044
    49  H    0.140718
    50  H    0.135517
    51  H    0.139375
    52  H    0.160338
    53  H    0.176230
    54  H    0.134731
 Sum of Mulliken charges =  -0.00000

 Dipole moment (field-independent basis, Debye):
    X=             -0.3804    Y=             -3.7013    Z=              1.3323  Tot=              3.9522
 Quadrupole moment (field-independent basis, Debye-Ang):
   XX=           -201.0909   YY=           -170.3616   ZZ=           -175.0293
   XY=            -15.0509   XZ=              9.3911   YZ=             -6.8329

 Normal termination of Gaussian 16 at Sat Nov  5 10:05:33 2022.
