 Gaussian 16, Revision B.01,
 Gaussian 16:  ES64L-G16RevB.01 20-Dec-2017

 -----------------------------
 #p b3lyp/6-31g(d) opt SCF=XQC
 -----------------------------

 ------------------------------
 Gaussian input prepared by ASE
 ------------------------------
 Symbolic Z-matrix:
 Charge =  0 Multiplicity = 1

 SCF Done:  E(RB3LYP) =  -1035.09738401     A.U. after   15 cycles
 SCF Done:  E(RB3LYP) =  -1035.10148853     A.U. after   13 cycles
 SCF Done:  E(RB3LYP) =  -1035.10314748     A.U. after   13 cycles
 SCF Done:  E(RB3LYP) =  -1035.10378942     A.U. after   13 cycles
 SCF Done:  E(RB3LYP) =  -1035.10374814     A.U. after   13 cycles
 SCF Done:  E(RB3LYP) =  -1035.10442838     A.U. after   11 cycles
 SCF Done:  E(RB3LYP) =  -1035.10455171     A.U. after   11 cycles
 SCF Done:  E(RB3LYP) =  -1035.10466434     A.U. after   11 cycles
 SCF Done:  E(RB3LYP) =  -1035.10476774     A.U. after   12 cycles
 SCF Done:  E(RB3LYP) =  -1035.10492046     A.U. after   12 cycles
 SCF Done:  E(RB3LYP) =  -1035.10422577     A.U. after   13 cycles
 SCF Done:  E(RB3LYP) =  -1035.10610344     A.U. after   10 cycles
 SCF Done:  E(RB3LYP) =  -1035.10627226     A.U. after   12 cycles
 SCF Done:  E(RB3LYP) =  -1035.10668196     A.U. after   14 cycles
 SCF Done:  E(RB3LYP) =  -1035.10678815     A.U. after   11 cycles
 SCF Done:  E(RB3LYP) =  -1035.10682816     A.U. after   12 cycles
 SCF Done:  E(RB3LYP) =  -1035.10683849     A.U. after   10 cycles
 SCF Done:  E(RB3LYP) =  -1035.10684136     A.U. after    9 cycles
 SCF Done:  E(RB3LYP) =  -1035.10684233     A.U. after    8 cycles
 SCF Done:  E(RB3LYP) =  -1035.10684238     A.U. after    7 cycles
 Optimization completed.
    -- Stationary point found.

                         Standard orientation:
 ---------------------------------------------------------------------
 Center     Atomic      Atomic             Coordinates (Angstroms)
 Number     Number       Type             X           Y           Z
 ---------------------------------------------------------------------
      1          8           0       -3.203004   -1.398943    2.010667
      2          6           0       -2.047877   -0.649106    2.334739
      3          6           0       -1.090429   -0.441235    1.142919
      4          6           0       -1.557094    0.678952    0.187207
      5          6           0       -2.884062    0.406239   -0.493024
      6          6           0       -4.053141    1.070654   -0.091489
      7          6           0       -5.278392    0.811985   -0.713449
      8          6           0       -5.352515   -0.113930   -1.753826
      9          6           0       -4.194584   -0.776403   -2.169594
     10          6           0       -2.975028   -0.517782   -1.545780
     11          7           0        0.247341   -0.125786    1.711724
     12          6           0        1.342783   -0.026420    0.796685
     13          6           0        1.810530    1.248490    0.417144
     14          6           0        1.282136    2.463655    0.952715
     15          6           0        1.763444    3.677994    0.538953
     16          6           0        2.802213    3.753499   -0.434699
     17          6           0        3.354620    2.611900   -0.950911
     18          6           0        2.895179    1.322427   -0.534801
     19          7           0        3.506335    0.241130   -1.043886
     20          6           0        3.092820   -0.969725   -0.637332
     21          6           0        3.771050   -2.116042   -1.159034
     22          6           0        3.396946   -3.382241   -0.795683
     23          6           0        2.315623   -3.580953    0.109497
     24          6           0        1.636461   -2.509648    0.630337
     25          6           0        1.998259   -1.169838    0.285778
     26          1           0       -3.733866   -0.875967    1.388679
     27          1           0       -1.534425   -1.230846    3.110616
     28          1           0       -2.295163    0.328102    2.780783
     29          1           0       -1.070105   -1.387813    0.577530
     30          1           0       -1.616289    1.615427    0.753936
     31          1           0       -0.788146    0.825486   -0.579498
     32          1           0       -4.000652    1.805935    0.708899
     33          1           0       -6.170343    1.340351   -0.387276
     34          1           0       -6.302697   -0.315297   -2.240681
     35          1           0       -4.241573   -1.494948   -2.983584
     36          1           0       -2.078648   -1.035216   -1.880006
     37          1           0        0.461993   -0.846644    2.398695
     38          1           0        0.510431    2.391268    1.710339
     39          1           0        1.360683    4.594547    0.961577
     40          1           0        3.164461    4.727225   -0.753781
     41          1           0        4.159530    2.638447   -1.678608
     42          1           0        4.590517   -1.932303   -1.846713
     43          1           0        3.922420   -4.244423   -1.197315
     44          1           0        2.026206   -4.591322    0.384858
     45          1           0        0.810320   -2.682708    1.313228
 ---------------------------------------------------------------------

 The electronic state is 1-A.
 Alpha  occ. eigenvalues --  -19.13864 -14.34122 -14.32016 -10.23845 -10.23306
 Alpha  occ. eigenvalues --  -10.22671 -10.22521 -10.22375 -10.20624 -10.20474
 Alpha  occ. eigenvalues --  -10.20111 -10.19949 -10.19898 -10.19780 -10.19761
 Alpha  occ. eigenvalues --  -10.19757 -10.19682 -10.19625 -10.19515 -10.19459
 Alpha  occ. eigenvalues --  -10.19412 -10.19302 -10.19060 -10.18966 -10.18666
 Alpha  occ. eigenvalues --   -1.01412  -0.94688  -0.92418  -0.86297  -0.85340
 Alpha  occ. eigenvalues --   -0.83479  -0.80106  -0.77830  -0.75652  -0.75106
 Alpha  occ. eigenvalues --   -0.74466  -0.73404  -0.71782  -0.68394  -0.65327
 Alpha  occ. eigenvalues --   -0.62984  -0.61497  -0.60972  -0.59283  -0.59221
 Alpha  occ. eigenvalues --   -0.57285  -0.55032  -0.54006  -0.51955  -0.51714
 Alpha  occ. eigenvalues --   -0.50496  -0.48792  -0.47687  -0.46720  -0.46421
 Alpha  occ. eigenvalues --   -0.45856  -0.45582  -0.45016  -0.43700  -0.42874
 Alpha  occ. eigenvalues --   -0.42662  -0.42268  -0.41683  -0.41333  -0.40644
 Alpha  occ. eigenvalues --   -0.40273  -0.39248  -0.38404  -0.37020  -0.36747
 Alpha  occ. eigenvalues --   -0.36312  -0.35968  -0.35181  -0.34628  -0.34502
 Alpha  occ. eigenvalues --   -0.34194  -0.32300  -0.32080  -0.30361  -0.26828
 Alpha  occ. eigenvalues --   -0.25972  -0.25823  -0.25379  -0.24686  -0.24600
 Alpha  occ. eigenvalues --   -0.24326  -0.20483
 Alpha virt. eigenvalues --   -0.07320  -0.01744  -0.01128  -0.00931   0.00372
 Alpha virt. eigenvalues --    0.03274   0.05699   0.07317   0.08239   0.09772
 Alpha virt. eigenvalues --    0.10101   0.10706   0.11487   0.12209   0.13708

 Mulliken charges:
               1
     1  O   -0.626680
     2  C   -0.043160
     3  C    0.029817
     4  C   -0.357801
     5  C    0.141606
     6  C   -0.219628
     7  C   -0.121176
     8  C   -0.130403
     9  C   -0.126238
    10  C   -0.167134
    11  N   -0.661237
    12  C    0.137209
    13  C    0.117017
    14  C   -0.176654
    15  C   -0.139291
    16  C   -0.134704
    17  C   -0.146266
    18  C    0.237358
    19  N   -0.601234
    20  C    0.240366
    21  C   -0.144661
    22  C   -0.135882
    23  C   -0.138742
    24  C   -0.205728
    25  C    0.152677
    26  H    0.408041
    27  H    0.134956
    28  H    0.127204
    29  H    0.138696
    30  H    0.150619
    31  H    0.168562
    32  H    0.132306
    33  H    0.135919
    34  H    0.134712
    35  H    0.136402
    36  H    0.136365
    37  H    0.311394
    38  H    0.150074
    39  H    0.131793
    40  H    0.134111
    41  H    0.143171
    42  H    0.145268
    43  H    0.135763
    44  H    0.135503
    45  H    0.129709
 Sum of Mulliken charges =  -0.00000

 Dipole moment (field-independent basis, Debye):
    X=             -1.5618    Y=              0.3097    Z=             -0.0272  Tot=              1.5924
 Quadrupole moment (field-independent basis, Debye-Ang):
   XX=           -144.1524   YY=           -132.8468   ZZ=           -145.0329
   XY=             -7.8487   XZ=              4.9865   YZ=              4.9762

 Normal termination of Gaussian 16 at Fri Nov  4 22:42:35 2022.
