 Gaussian 16, Revision B.01,
 Gaussian 16:  ES64L-G16RevB.01 20-Dec-2017

 -------------------------------------------------------------------
 #p b3lyp/6-31g(d) 6D 10F nosymm GFInput td=(50-50,nstate=2) SCF=XQC
 -------------------------------------------------------------------

 ------------------------------
 Gaussian input prepared by ASE
 ------------------------------
 Symbolic Z-matrix:
 Charge =  0 Multiplicity = 1

                          Input orientation:
 ---------------------------------------------------------------------
 Center     Atomic      Atomic             Coordinates (Angstroms)
 Number     Number       Type             X           Y           Z
 ---------------------------------------------------------------------
      1          8           0        3.019192   -2.325451    0.468155
      2          6           0        1.873125   -2.326467   -0.361379
      3          6           0        0.888125   -1.178526   -0.057475
      4          6           0        1.333739    0.170310   -0.664147
      5          6           0        2.643889    0.699145   -0.114811
      6          6           0        3.823083    0.640138   -0.873392
      7          6           0        5.032940    1.119986   -0.362532
      8          6           0        5.081147    1.673315    0.916803
      9          6           0        3.912765    1.746271    1.679758
     10          6           0        2.708645    1.264842    1.168224
     11          7           0       -0.435390   -1.588562   -0.598632
     12          6           0       -1.551973   -0.740133   -0.314774
     13          6           0       -2.026690    0.132496   -1.315473
     14          6           0       -1.484038    0.171298   -2.637096
     15          6           0       -1.973208    1.049077   -3.568596
     16          6           0       -3.034550    1.941723   -3.237726
     17          6           0       -3.600645    1.915945   -1.991230
     18          6           0       -3.133389    1.003856   -0.992862
     19          7           0       -3.757959    0.995865    0.195300
     20          6           0       -3.336729    0.124681    1.125920
     21          6           0       -4.028747    0.099273    2.377590
     22          6           0       -3.648016   -0.756951    3.376171
     23          6           0       -2.545926   -1.638693    3.186368
     24          6           0       -1.853107   -1.644162    2.003067
     25          6           0       -2.220984   -0.773627    0.929968
     26          1           0        3.535990   -1.529912    0.262667
     27          1           0        1.377278   -3.285917   -0.167393
     28          1           0        2.132288   -2.312864   -1.432682
     29          1           0        0.853089   -1.066326    1.039007
     30          1           0        1.407653    0.053438   -1.751598
     31          1           0        0.547129    0.911018   -0.481981
     32          1           0        3.790564    0.224235   -1.878370
     33          1           0        5.933106    1.066062   -0.969103
     34          1           0        6.019282    2.049212    1.315583
     35          1           0        3.939489    2.181454    2.675246
     36          1           0        1.803877    1.330587    1.768235
     37          1           0       -0.634822   -2.519986   -0.237638
     38          1           0       -0.694778   -0.529811   -2.882608
     39          1           0       -1.559254    1.061518   -4.573277
     40          1           0       -3.402809    2.634563   -3.989748
     41          1           0       -4.422461    2.569886   -1.717175
     42          1           0       -4.863944    0.783029    2.492101
     43          1           0       -4.184074   -0.768004    4.321321
     44          1           0       -2.251564   -2.308900    3.989240
     45          1           0       -1.011335   -2.318930    1.880973
 ---------------------------------------------------------------------

 SCF Done:  E(RB3LYP) =  -1035.10684507     A.U. after   15 cycles

 Excitation energies and oscillator strengths:

 Excited state symmetry could not be determined.
 Excited State   1:      Triplet-?Sym    1.8576 eV  667.45 nm  f=0.0000  <S**2>=2.000
      87 -> 88         0.69393
      87 <- 88         0.12554
 This state for optimization and/or second-order correction.
 Total Energy, E(TD-HF/TD-DFT) =  -1035.03857990
 Copying the excited state density for this state as the 1-particle RhoCI density.

 Excited state symmetry could not be determined.
 Excited State   2:      Singlet-?Sym    3.2175 eV  385.35 nm  f=0.0923  <S**2>=0.000
      87 -> 88         0.69592

 Excited state symmetry could not be determined.
 Excited State   3:      Triplet-?Sym    3.2444 eV  382.15 nm  f=0.0000  <S**2>=2.000
      81 -> 88         0.40735
      82 -> 88         0.29553
      83 -> 88        -0.17272
      84 -> 88        -0.20606
      85 -> 88        -0.10284
      87 -> 92         0.36067

 Excited state symmetry could not be determined.
 Excited State   4:      Singlet-?Sym    3.7243 eV  332.90 nm  f=0.0012  <S**2>=0.000
      83 -> 88        -0.33547
      84 -> 88         0.39577
      85 -> 88         0.35638
      86 -> 88         0.30186

 Alpha  occ. eigenvalues --  -19.13864 -14.34122 -14.32017 -10.23845 -10.23306
 Alpha  occ. eigenvalues --  -10.22671 -10.22521 -10.22375 -10.20624 -10.20474
 Alpha  occ. eigenvalues --  -10.20111 -10.19949 -10.19898 -10.19780 -10.19761
 Alpha  occ. eigenvalues --  -10.19757 -10.19682 -10.19625 -10.19515 -10.19459
 Alpha  occ. eigenvalues --  -10.19412 -10.19302 -10.19060 -10.18966 -10.18666
 Alpha  occ. eigenvalues --   -1.01412  -0.94688  -0.92418  -0.86297  -0.85340
 Alpha  occ. eigenvalues --   -0.83479  -0.80106  -0.77830  -0.75652  -0.75106
 Alpha  occ. eigenvalues --   -0.74466  -0.73404  -0.71782  -0.68394  -0.65327
 Alpha  occ. eigenvalues --   -0.62984  -0.61497  -0.60972  -0.59283  -0.59221
 Alpha  occ. eigenvalues --   -0.57285  -0.55032  -0.54006  -0.51955  -0.51714
 Alpha  occ. eigenvalues --   -0.50496  -0.48792  -0.47687  -0.46720  -0.46421
 Alpha  occ. eigenvalues --   -0.45856  -0.45582  -0.45016  -0.43700  -0.42874
 Alpha  occ. eigenvalues --   -0.42662  -0.42268  -0.41683  -0.41333  -0.40644
 Alpha  occ. eigenvalues --   -0.40273  -0.39248  -0.38404  -0.37020  -0.36747
 Alpha  occ. eigenvalues --   -0.36312  -0.35968  -0.35181  -0.34628  -0.34502
 Alpha  occ. eigenvalues --   -0.34194  -0.32300  -0.32080  -0.30361  -0.26828
 Alpha  occ. eigenvalues --   -0.25972  -0.25823  -0.25379  -0.24686  -0.24600
 Alpha  occ. eigenvalues --   -0.24326  -0.20483
 Alpha virt. eigenvalues --   -0.07320  -0.01744  -0.01128  -0.00931   0.00372
 Alpha virt. eigenvalues --    0.03274   0.05699   0.07317   0.08239   0.09772
 Alpha virt. eigenvalues --    0.10101   0.10706   0.11487   0.12209   0.13708

 Mulliken charges:
               1
     1  O   -0.626676
     2  C   -0.043173
     3  C    0.029809
     4  C   -0.357794
     5  C    0.141635
     6  C   -0.219637
     7  C   -0.121177
     8  C   -0.130395
     9  C   -0.126240
    10  C   -0.167156
    11  N   -0.661233
    12  C    0.137196
    13  C    0.117036
    14  C   -0.176648
    15  C   -0.139301
    16  C   -0.134699
    17  C   -0.146266
    18  C    0.237343
    19  N   -0.601220
    20  C    0.240343
    21  C   -0.144661
    22  C   -0.135881
    23  C   -0.138743
    24  C   -0.205729
    25  C    0.152693
    26  H    0.408040
    27  H    0.134957
    28  H    0.127208
    29  H    0.138699
    30  H    0.150617
    31  H    0.168560
    32  H    0.132307
    33  H    0.135919
    34  H    0.134711
    35  H    0.136403
    36  H    0.136365
    37  H    0.311394
    38  H    0.150074
    39  H    0.131794
    40  H    0.134111
    41  H    0.143170
    42  H    0.145268
    43  H    0.135763
    44  H    0.135503
    45  H    0.129712
 Sum of Mulliken charges =  -0.00000

 Dipole moment (field-independent basis, Debye):
    X=              1.5612    Y=              0.1879    Z=             -0.2516  Tot=              1.5924
 Quadrupole moment (field-independent basis, Debye-Ang):
   XX=           -145.0778   YY=           -146.3347   ZZ=           -131.3310
   XY=              7.8875   XZ=             -5.0475   YZ=             -1.4826

 Normal termination of Gaussian 16 at Sat Nov  5 09:44:49 2022.
