 Gaussian 16, Revision B.01,
 Gaussian 16:  ES64L-G16RevB.01 20-Dec-2017

 -----------------------------
 #p b3lyp/6-31g(d) opt SCF=XQC
 -----------------------------

 ------------------------------
 Gaussian input prepared by ASE
 ------------------------------
 Symbolic Z-matrix:
 Charge =  0 Multiplicity = 1

 SCF Done:  E(RB3LYP) =  -2091.53982859     A.U. after   16 cycles
 SCF Done:  E(RB3LYP) =  -2091.55400459     A.U. after   15 cycles
 SCF Done:  E(RB3LYP) =  -2091.54926384     A.U. after   16 cycles
 SCF Done:  E(RB3LYP) =  -2091.55958382     A.U. after   13 cycles
 SCF Done:  E(RB3LYP) =  -2091.56165086     A.U. after   13 cycles
 SCF Done:  E(RB3LYP) =  -2091.56238935     A.U. after   13 cycles
 SCF Done:  E(RB3LYP) =  -2091.56282441     A.U. after   12 cycles
 SCF Done:  E(RB3LYP) =  -2091.56301611     A.U. after   12 cycles
 SCF Done:  E(RB3LYP) =  -2091.56310669     A.U. after   12 cycles
 SCF Done:  E(RB3LYP) =  -2091.56314152     A.U. after   11 cycles
 SCF Done:  E(RB3LYP) =  -2091.56319350     A.U. after   11 cycles
 SCF Done:  E(RB3LYP) =  -2091.56322160     A.U. after   11 cycles
 SCF Done:  E(RB3LYP) =  -2091.56322929     A.U. after   10 cycles
 SCF Done:  E(RB3LYP) =  -2091.56323189     A.U. after   10 cycles
 SCF Done:  E(RB3LYP) =  -2091.56323335     A.U. after    9 cycles
 SCF Done:  E(RB3LYP) =  -2091.56323445     A.U. after    9 cycles
 SCF Done:  E(RB3LYP) =  -2091.56323473     A.U. after    7 cycles
 SCF Done:  E(RB3LYP) =  -2091.56323477     A.U. after    7 cycles
 Optimization completed.
    -- Stationary point found.

                         Standard orientation:
 ---------------------------------------------------------------------
 Center     Atomic      Atomic             Coordinates (Angstroms)
 Number     Number       Type             X           Y           Z
 ---------------------------------------------------------------------
      1          6           0       -2.787867   -4.576112   -0.297105
      2          8           0       -1.621013   -4.282555    0.460638
      3          6           0       -0.778173   -3.321900   -0.015599
      4          6           0        0.267869   -2.941272    0.839397
      5          6           0        1.153062   -1.941644    0.457160
      6          6           0        1.030156   -1.304343   -0.787237
      7          6           0        1.920830   -0.116362   -1.174997
      8          6           0        3.382121   -0.304843   -0.809250
      9          6           0        4.167620   -1.273420   -1.489583
     10          6           0        5.484322   -1.486158   -1.167449
     11          6           0        6.106763   -0.738093   -0.129955
     12          6           0        7.464569   -0.931692    0.235203
     13          6           0        8.039244   -0.188364    1.242299
     14          6           0        7.278860    0.786196    1.930446
     15          6           0        5.957606    1.002669    1.603753
     16          6           0        5.343345    0.247397    0.571646
     17          6           0        3.979809    0.429250    0.193402
     18          8           0        3.308068    1.405872    0.912386
     19          6           0        2.077351    1.796580    0.496180
     20          7           0        1.608939    2.862704    1.197738
     21          6           0        0.437529    3.335752    0.887005
     22          7           0       -0.295681    2.802816   -0.127276
     23          7           0       -1.533922    3.182805   -0.559495
     24          6           0       -1.742967    2.316932   -1.552151
     25          6           0       -3.013074    2.363167   -2.342873
     26         16           0       -3.848394    0.730877   -2.548929
     27          6           0       -4.335903    0.370476   -0.903600
     28          7           0       -4.645073   -0.804647   -0.454889
     29          6           0       -5.049579   -0.564939    0.862326
     30          6           0       -5.498966   -1.430357    1.862134
     31          6           0       -5.810583   -0.870891    3.101902
     32          6           0       -5.677888    0.507749    3.344906
     33          6           0       -5.226601    1.385011    2.353999
     34          6           0       -4.930460    0.804485    1.132029
     35          8           0       -4.475351    1.413877   -0.018981
     36          7           0       -0.752193    1.418617   -1.795393
     37          6           0        0.159563    1.720212   -0.875218
     38          6           0        1.407994    1.155783   -0.529453
     39          6           0        0.005321   -1.716197   -1.641337
     40          6           0       -0.897959   -2.713304   -1.269548
     41          1           0       -2.536979   -5.030928   -1.264838
     42          1           0       -3.392353   -3.675449   -0.465151
     43          1           0       -3.354943   -5.295417    0.297250
     44          1           0        0.354397   -3.431141    1.804368
     45          1           0        1.948211   -1.650113    1.138846
     46          1           0        1.842983   -0.000877   -2.264575
     47          1           0        3.693600   -1.858811   -2.273089
     48          1           0        6.067151   -2.232862   -1.700250
     49          1           0        8.044825   -1.681233   -0.297516
     50          1           0        9.079829   -0.348175    1.511266
     51          1           0        7.741700    1.368478    2.722458
     52          1           0        5.372001    1.749216    2.128330
     53          1           0       -0.000764    4.172107    1.421437
     54          1           0       -2.807811    2.659691   -3.376960
     55          1           0       -3.701458    3.085497   -1.903169
     56          1           0       -5.597744   -2.494583    1.674601
     57          1           0       -6.163455   -1.515150    3.902122
     58          1           0       -5.931590    0.902233    4.324488
     59          1           0       -5.118005    2.450202    2.527102
     60          1           0       -0.122609   -1.223700   -2.600363
     61          1           0       -1.694281   -2.987245   -1.951240
 ---------------------------------------------------------------------

 The electronic state is 1-A.
 Alpha  occ. eigenvalues --  -88.90896 -19.22974 -19.21361 -19.16953 -14.45274
 Alpha  occ. eigenvalues --  -14.37174 -14.36087 -14.33702 -14.33330 -10.30929
 Alpha  occ. eigenvalues --  -10.30524 -10.29557 -10.27923 -10.26593 -10.26002
 Alpha  occ. eigenvalues --  -10.25074 -10.24413 -10.23946 -10.23068 -10.22539
 Alpha  occ. eigenvalues --  -10.22261 -10.22056 -10.20663 -10.20523 -10.20378
 Alpha  occ. eigenvalues --  -10.20327 -10.19797 -10.19732 -10.19720 -10.19477
 Alpha  occ. eigenvalues --  -10.19472 -10.19406 -10.19367 -10.19352 -10.19238
 Alpha  occ. eigenvalues --  -10.18687 -10.18422 -10.18188 -10.17860 -10.17775
 Alpha  occ. eigenvalues --   -7.96985  -5.93530  -5.93107  -5.92434  -1.13357
 Alpha  occ. eigenvalues --   -1.11382  -1.10134  -1.05497  -0.98425  -0.93252
 Alpha  occ. eigenvalues --   -0.91916  -0.88280  -0.86934  -0.85961  -0.85292
 Alpha  occ. eigenvalues --   -0.83205  -0.81866  -0.81691  -0.78524  -0.76356
 Alpha  occ. eigenvalues --   -0.75627  -0.75263  -0.74743  -0.73816  -0.73162
 Alpha  occ. eigenvalues --   -0.70963  -0.70542  -0.68191  -0.68029  -0.65267
 Alpha  occ. eigenvalues --   -0.63103  -0.62551  -0.62223  -0.61349  -0.60722
 Alpha  occ. eigenvalues --   -0.60387  -0.60162  -0.58520  -0.57226  -0.56916
 Alpha  occ. eigenvalues --   -0.55414  -0.52561  -0.52502  -0.52033  -0.51352
 Alpha  occ. eigenvalues --   -0.51212  -0.50684  -0.49681  -0.49286  -0.48344
 Alpha  occ. eigenvalues --   -0.48012  -0.47683  -0.47504  -0.46671  -0.45907
 Alpha  occ. eigenvalues --   -0.45797  -0.45129  -0.44928  -0.44745  -0.44372
 Alpha  occ. eigenvalues --   -0.43588  -0.42925  -0.42855  -0.42353  -0.41972
 Alpha  occ. eigenvalues --   -0.41362  -0.41163  -0.40920  -0.39852  -0.39501
 Alpha  occ. eigenvalues --   -0.38113  -0.37815  -0.37588  -0.37335  -0.36786
 Alpha  occ. eigenvalues --   -0.36631  -0.36252  -0.35907  -0.35570  -0.35170
 Alpha  occ. eigenvalues --   -0.34403  -0.34222  -0.33721  -0.33584  -0.33462
 Alpha  occ. eigenvalues --   -0.31906  -0.31606  -0.30812  -0.30097  -0.29552
 Alpha  occ. eigenvalues --   -0.29154  -0.28757  -0.27933  -0.27400  -0.24844
 Alpha  occ. eigenvalues --   -0.24689  -0.24277  -0.23763  -0.22179  -0.21004
 Alpha  occ. eigenvalues --   -0.20836
 Alpha virt. eigenvalues --   -0.05729  -0.04100  -0.02772  -0.02361  -0.01373
 Alpha virt. eigenvalues --    0.00331   0.00653   0.01144   0.01825   0.03102
 Alpha virt. eigenvalues --    0.03773   0.04289   0.07771   0.08657   0.09492

 Mulliken charges:
               1
     1  C   -0.230852
     2  O   -0.509584
     3  C    0.378448
     4  C   -0.174956
     5  C   -0.189947
     6  C    0.179934
     7  C   -0.325738
     8  C    0.145941
     9  C   -0.191805
    10  C   -0.188329
    11  C    0.141145
    12  C   -0.203763
    13  C   -0.127267
    14  C   -0.139566
    15  C   -0.169650
    16  C    0.055895
    17  C    0.211871
    18  O   -0.538826
    19  C    0.457662
    20  N   -0.477407
    21  C    0.249654
    22  N   -0.352259
    23  N   -0.329550
    24  C    0.466681
    25  C   -0.533563
    26  S    0.217128
    27  C    0.324403
    28  N   -0.508021
    29  C    0.235140
    30  C   -0.165774
    31  C   -0.141985
    32  C   -0.145425
    33  C   -0.177149
    34  C    0.322914
    35  O   -0.487004
    36  N   -0.551561
    37  C    0.549410
    38  C    0.052134
    39  C   -0.179502
    40  C   -0.193078
    41  H    0.147861
    42  H    0.180387
    43  H    0.162820
    44  H    0.136373
    45  H    0.134266
    46  H    0.167905
    47  H    0.140020
    48  H    0.133386
    49  H    0.133048
    50  H    0.132709
    51  H    0.134058
    52  H    0.158977
    53  H    0.198542
    54  H    0.209926
    55  H    0.222684
    56  H    0.144513
    57  H    0.134195
    58  H    0.135739
    59  H    0.150590
    60  H    0.145390
    61  H    0.140814
 Sum of Mulliken charges =  -0.00000

 Dipole moment (field-independent basis, Debye):
    X=              0.3427    Y=              0.9288    Z=             -0.0732  Tot=              0.9927
 Quadrupole moment (field-independent basis, Debye-Ang):
   XX=           -215.8453   YY=           -223.0658   ZZ=           -220.9571
   XY=             -4.4513   XZ=             -7.0382   YZ=              2.1446

 Normal termination of Gaussian 16 at Fri Nov  4 22:57:55 2022.
