 Gaussian 16, Revision B.01,
 Gaussian 16:  ES64L-G16RevB.01 20-Dec-2017

 -------------------------------------------------------------------
 #p b3lyp/6-31g(d) 6D 10F nosymm GFInput td=(50-50,nstate=2) SCF=XQC
 -------------------------------------------------------------------

 ------------------------------
 Gaussian input prepared by ASE
 ------------------------------
 Symbolic Z-matrix:
 Charge =  0 Multiplicity = 1

                          Input orientation:
 ---------------------------------------------------------------------
 Center     Atomic      Atomic             Coordinates (Angstroms)
 Number     Number       Type             X           Y           Z
 ---------------------------------------------------------------------
      1          6           0       -0.130055    5.194192    0.916700
      2          8           0       -1.146522    4.201324    0.862769
      3          6           0       -0.898103    3.075462    0.134235
      4          6           0       -1.849587    2.049274    0.242483
      5          6           0       -1.661723    0.849393   -0.431251
      6          6           0       -0.532470    0.642879   -1.238669
      7          6           0       -0.246513   -0.716521   -1.890754
      8          6           0       -1.472631   -1.368724   -2.503889
      9          6           0       -2.077504   -0.804298   -3.658685
     10          6           0       -3.200412   -1.354396   -4.223664
     11          6           0       -3.799965   -2.515600   -3.661909
     12          6           0       -4.963529   -3.111546   -4.214562
     13          6           0       -5.518030   -4.238345   -3.648978
     14          6           0       -4.930299   -4.822041   -2.502083
     15          6           0       -3.799951   -4.271818   -1.937398
     16          6           0       -3.212404   -3.109821   -2.500911
     17          6           0       -2.043814   -2.498353   -1.956969
     18          8           0       -1.528417   -3.134781   -0.838358
     19          6           0       -0.312116   -2.756865   -0.371091
     20          7           0        0.132595   -3.566470    0.626398
     21          6           0        1.293718   -3.309889    1.154121
     22          7           0        2.061623   -2.278579    0.710156
     23          7           0        3.286302   -1.884477    1.167637
     24          6           0        3.539219   -0.841150    0.376244
     25          6           0        4.816898   -0.074457    0.518611
     26         16           0        4.607578    1.756928    0.601093
     27          6           0        3.773833    1.951172    2.131387
     28          7           0        3.094735    2.995462    2.486531
     29          6           0        2.711961    2.715103    3.802214
     30          6           0        1.963857    3.451941    4.723042
     31          6           0        1.734561    2.873480    5.972016
     32          6           0        2.230647    1.598851    6.298403
     33          6           0        2.978597    0.849223    5.385290
     34          6           0        3.196312    1.449288    4.156289
     35          8           0        3.894576    0.956656    3.073216
     36          7           0        2.589612   -0.532033   -0.545961
     37          6           0        1.643381   -1.438629   -0.318560
     38          6           0        0.366001   -1.664655   -0.878850
     39          6           0        0.388895    1.684438   -1.363715
     40          6           0        0.219729    2.893502   -0.687024
     41          1           0        0.034677    5.657082   -0.065596
     42          1           0        0.816357    4.777648    1.284982
     43          1           0       -0.493666    5.954238    1.611214
     44          1           0       -2.717505    2.210185    0.874507
     45          1           0       -2.402210    0.060695   -0.323619
     46          1           0        0.492541   -0.541144   -2.684241
     47          1           0       -1.632925    0.091773   -4.083736
     48          1           0       -3.647664   -0.906096   -5.106912
     49          1           0       -5.410696   -2.659597   -5.096651
     50          1           0       -6.409437   -4.683137   -4.082861
     51          1           0       -5.374408   -5.711723   -2.064149
     52          1           0       -3.346285   -4.716835   -1.058993
     53          1           0        1.696207   -3.906120    1.966352
     54          1           0        5.440873   -0.204591   -0.371959
     55          1           0        5.371434   -0.429514    1.387746
     56          1           0        1.578588    4.434036    4.468953
     57          1           0        1.156801    3.419229    6.712483
     58          1           0        2.029329    1.185429    7.282331
     59          1           0        3.366557   -0.135508    5.622310
     60          1           0        1.280708    1.540790   -1.965950
     61          1           0        0.970138    3.668037   -0.791229
 ---------------------------------------------------------------------

 SCF Done:  E(RB3LYP) =  -2091.56324038     A.U. after   15 cycles

 Excitation energies and oscillator strengths:

 Excited state symmetry could not be determined.
 Excited State   1:      Triplet-?Sym    2.6495 eV  467.95 nm  f=0.0000  <S**2>=2.000
     135 ->146         0.10602
     138 ->143        -0.12031
     140 ->142         0.42638
     140 ->143         0.43967
     140 ->145         0.16680
     141 ->142        -0.11810
 This state for optimization and/or second-order correction.
 Total Energy, E(TD-HF/TD-DFT) =  -2091.46587331
 Copying the excited state density for this state as the 1-particle RhoCI density.

 Excited state symmetry could not be determined.
 Excited State   2:      Triplet-?Sym    3.0674 eV  404.20 nm  f=0.0000  <S**2>=2.000
     135 ->142        -0.11709
     137 ->142         0.21810
     138 ->142         0.42347
     140 ->142         0.23882
     140 ->143        -0.21015
     140 ->145        -0.15641
     141 ->142        -0.26781

 Excited state symmetry could not be determined.
 Excited State   3:      Singlet-?Sym    3.5753 eV  346.78 nm  f=0.0338  <S**2>=0.000
     140 ->142         0.30913
     141 ->142         0.63063

 Excited state symmetry could not be determined.
 Excited State   4:      Singlet-?Sym    3.6058 eV  343.85 nm  f=0.0893  <S**2>=0.000
     140 ->142         0.62812
     141 ->142        -0.31071

 Alpha  occ. eigenvalues --  -88.90896 -19.22974 -19.21361 -19.16953 -14.45273
 Alpha  occ. eigenvalues --  -14.37174 -14.36087 -14.33702 -14.33330 -10.30929
 Alpha  occ. eigenvalues --  -10.30524 -10.29557 -10.27923 -10.26593 -10.26002
 Alpha  occ. eigenvalues --  -10.25074 -10.24413 -10.23946 -10.23068 -10.22539
 Alpha  occ. eigenvalues --  -10.22261 -10.22056 -10.20663 -10.20523 -10.20378
 Alpha  occ. eigenvalues --  -10.20327 -10.19797 -10.19733 -10.19720 -10.19477
 Alpha  occ. eigenvalues --  -10.19472 -10.19406 -10.19367 -10.19352 -10.19238
 Alpha  occ. eigenvalues --  -10.18687 -10.18422 -10.18189 -10.17861 -10.17775
 Alpha  occ. eigenvalues --   -7.96985  -5.93530  -5.93107  -5.92434  -1.13357
 Alpha  occ. eigenvalues --   -1.11382  -1.10134  -1.05497  -0.98425  -0.93252
 Alpha  occ. eigenvalues --   -0.91916  -0.88281  -0.86934  -0.85961  -0.85292
 Alpha  occ. eigenvalues --   -0.83205  -0.81866  -0.81691  -0.78524  -0.76356
 Alpha  occ. eigenvalues --   -0.75627  -0.75263  -0.74743  -0.73816  -0.73162
 Alpha  occ. eigenvalues --   -0.70963  -0.70542  -0.68191  -0.68029  -0.65267
 Alpha  occ. eigenvalues --   -0.63103  -0.62551  -0.62223  -0.61349  -0.60722
 Alpha  occ. eigenvalues --   -0.60387  -0.60162  -0.58520  -0.57226  -0.56916
 Alpha  occ. eigenvalues --   -0.55414  -0.52561  -0.52502  -0.52033  -0.51352
 Alpha  occ. eigenvalues --   -0.51212  -0.50684  -0.49681  -0.49286  -0.48344
 Alpha  occ. eigenvalues --   -0.48012  -0.47683  -0.47504  -0.46671  -0.45907
 Alpha  occ. eigenvalues --   -0.45797  -0.45129  -0.44928  -0.44745  -0.44372
 Alpha  occ. eigenvalues --   -0.43588  -0.42925  -0.42854  -0.42353  -0.41972
 Alpha  occ. eigenvalues --   -0.41362  -0.41163  -0.40920  -0.39852  -0.39501
 Alpha  occ. eigenvalues --   -0.38113  -0.37815  -0.37588  -0.37335  -0.36786
 Alpha  occ. eigenvalues --   -0.36631  -0.36252  -0.35907  -0.35569  -0.35170
 Alpha  occ. eigenvalues --   -0.34403  -0.34222  -0.33721  -0.33584  -0.33462
 Alpha  occ. eigenvalues --   -0.31906  -0.31606  -0.30812  -0.30097  -0.29552
 Alpha  occ. eigenvalues --   -0.29154  -0.28757  -0.27933  -0.27400  -0.24844
 Alpha  occ. eigenvalues --   -0.24689  -0.24277  -0.23763  -0.22179  -0.21004
 Alpha  occ. eigenvalues --   -0.20836
 Alpha virt. eigenvalues --   -0.05729  -0.04100  -0.02772  -0.02361  -0.01373
 Alpha virt. eigenvalues --    0.00331   0.00653   0.01144   0.01825   0.03102
 Alpha virt. eigenvalues --    0.03773   0.04289   0.07771   0.08657   0.09492

 Mulliken charges:
               1
     1  C   -0.230859
     2  O   -0.509588
     3  C    0.378490
     4  C   -0.174976
     5  C   -0.189925
     6  C    0.179904
     7  C   -0.325677
     8  C    0.145853
     9  C   -0.191807
    10  C   -0.188309
    11  C    0.141149
    12  C   -0.203776
    13  C   -0.127272
    14  C   -0.139583
    15  C   -0.169626
    16  C    0.055900
    17  C    0.211906
    18  O   -0.538828
    19  C    0.457641
    20  N   -0.477399
    21  C    0.249663
    22  N   -0.352268
    23  N   -0.329546
    24  C    0.466662
    25  C   -0.533565
    26  S    0.217138
    27  C    0.324378
    28  N   -0.508012
    29  C    0.235139
    30  C   -0.165773
    31  C   -0.141983
    32  C   -0.145427
    33  C   -0.177150
    34  C    0.322929
    35  O   -0.487002
    36  N   -0.551549
    37  C    0.549418
    38  C    0.052112
    39  C   -0.179480
    40  C   -0.193122
    41  H    0.147862
    42  H    0.180396
    43  H    0.162820
    44  H    0.136375
    45  H    0.134264
    46  H    0.167905
    47  H    0.140023
    48  H    0.133386
    49  H    0.133047
    50  H    0.132714
    51  H    0.134061
    52  H    0.158975
    53  H    0.198543
    54  H    0.209926
    55  H    0.222683
    56  H    0.144512
    57  H    0.134194
    58  H    0.135738
    59  H    0.150588
    60  H    0.145389
    61  H    0.140816
 Sum of Mulliken charges =  -0.00000

 Dipole moment (field-independent basis, Debye):
    X=              0.3124    Y=             -0.9348    Z=             -0.1179  Tot=              0.9926
 Quadrupole moment (field-independent basis, Debye-Ang):
   XX=           -222.7927   YY=           -225.4429   ZZ=           -211.2732
   XY=             -1.1797   XZ=              5.3193   YZ=              0.1378

 Normal termination of Gaussian 16 at Sat Nov  5 09:51:54 2022.
