 Gaussian 16, Revision B.01,
 Gaussian 16:  ES64L-G16RevB.01 20-Dec-2017

 -------------------------------------------------------------------
 #p b3lyp/6-31g(d) 6D 10F nosymm GFInput td=(50-50,nstate=2) SCF=XQC
 -------------------------------------------------------------------

 ------------------------------
 Gaussian input prepared by ASE
 ------------------------------
 Symbolic Z-matrix:
 Charge =  0 Multiplicity = 1

                          Input orientation:
 ---------------------------------------------------------------------
 Center     Atomic      Atomic             Coordinates (Angstroms)
 Number     Number       Type             X           Y           Z
 ---------------------------------------------------------------------
      1          6           0       10.190106    2.284416    0.411742
      2          6           0        9.977785    1.057874   -0.496436
      3          6           0       10.072319    1.447646   -1.984190
      4          6           0        8.673317    0.340743   -0.181759
      5          6           0        7.428874    0.975825   -0.343623
      6          6           0        6.239861    0.319988   -0.055716
      7          6           0        6.238791   -1.010257    0.410445
      8          6           0        5.024046   -1.754099    0.730630
      9          6           0        3.743426   -1.341363    0.630211
     10          6           0        2.637645   -2.247134    1.023645
     11          8           0        2.863662   -3.350693    1.519551
     12          6           0        1.219342   -1.797949    0.826560
     13          6           0        0.206015   -2.557905    1.434016
     14          6           0       -1.129273   -2.207212    1.293079
     15          6           0       -1.471653   -1.089872    0.526814
     16          8           0       -2.834133   -0.863964    0.377655
     17          6           0       -3.366904    0.403214    0.365177
     18          8           0       -2.710191    1.411634    0.498502
     19          6           0       -4.838594    0.365361    0.175899
     20          6           0       -5.529837    1.585780    0.164334
     21          6           0       -6.906669    1.609501   -0.011168
     22          6           0       -7.649564    0.425905   -0.183059
     23          6           0       -9.174176    0.499344   -0.375058
     24          6           0       -9.812837   -0.891648   -0.549111
     25          6           0       -9.491459    1.337580   -1.636887
     26          6           0       -9.813811    1.173068    0.862868
     27          6           0       -6.942139   -0.785370   -0.169308
     28          6           0       -5.559588   -0.821805    0.007541
     29          6           0       -0.489002   -0.326776   -0.105551
     30          6           0        0.848192   -0.685559    0.056060
     31          6           0        7.483672   -1.642890    0.572472
     32          6           0        8.673574   -0.980106    0.281708
     33          1           0       11.162104    2.749215    0.208667
     34          1           0        9.417021    3.043621    0.243968
     35          1           0       10.159482    2.004683    1.470302
     36          1           0       10.791979    0.350223   -0.289323
     37          1           0        9.957794    0.571942   -2.632116
     38          1           0        9.294084    2.170044   -2.257476
     39          1           0       11.043690    1.908073   -2.199809
     40          1           0        7.390666    2.001968   -0.700601
     41          1           0        5.299396    0.845936   -0.192517
     42          1           0        5.168820   -2.769911    1.096740
     43          1           0        3.503010   -0.341877    0.284450
     44          1           0        0.495781   -3.425737    2.016598
     45          1           0       -1.918387   -2.784893    1.764058
     46          1           0       -4.968801    2.505388    0.294985
     47          1           0       -7.413232    2.570199   -0.014670
     48          1           0       -9.422393   -1.413628   -1.430076
     49          1           0      -10.895026   -0.784758   -0.682512
     50          1           0       -9.650546   -1.528825    0.327620
     51          1           0      -10.576163    1.404344   -1.783798
     52          1           0       -9.054838    0.880507   -2.532119
     53          1           0       -9.102786    2.358154   -1.558845
     54          1           0      -10.901359    1.238759    0.738203
     55          1           0       -9.610227    0.597075    1.772671
     56          1           0       -9.434523    2.188351    1.017909
     57          1           0       -7.467662   -1.724642   -0.297640
     58          1           0       -5.039830   -1.773215    0.014167
     59          1           0       -0.760810    0.533130   -0.702421
     60          1           0        1.599182   -0.090871   -0.452995
     61          1           0        7.512239   -2.668855    0.931667
     62          1           0        9.620540   -1.497678    0.417588
 ---------------------------------------------------------------------

 SCF Done:  E(RB3LYP) =  -1348.85655114     A.U. after   15 cycles

 Excitation energies and oscillator strengths:

 Excited state symmetry could not be determined.
 Excited State   1:      Triplet-?Sym    2.3550 eV  526.47 nm  f=0.0000  <S**2>=2.000
     106 ->115         0.14638
     113 ->115        -0.11322
     114 ->115         0.63483
     114 ->116        -0.15071
     114 ->117         0.14639
 This state for optimization and/or second-order correction.
 Total Energy, E(TD-HF/TD-DFT) =  -1348.77000669
 Copying the excited state density for this state as the 1-particle RhoCI density.

 Excited state symmetry could not be determined.
 Excited State   2:      Triplet-?Sym    2.8274 eV  438.51 nm  f=0.0000  <S**2>=2.000
     112 ->115         0.45317
     113 ->115         0.50212
     113 ->117        -0.10770

 Excited state symmetry could not be determined.
 Excited State   3:      Singlet-?Sym    3.2587 eV  380.47 nm  f=0.0004  <S**2>=0.000
     112 ->115         0.51183
     113 ->115         0.46104

 Excited state symmetry could not be determined.
 Excited State   4:      Singlet-?Sym    3.7635 eV  329.44 nm  f=1.1223  <S**2>=0.000
     112 ->115        -0.11408
     113 ->115         0.21146
     114 ->115         0.65734

 Alpha  occ. eigenvalues --  -19.20672 -19.14250 -19.11924 -10.32585 -10.26431
 Alpha  occ. eigenvalues --  -10.26087 -10.21316 -10.20900 -10.20703 -10.20355
 Alpha  occ. eigenvalues --  -10.20280 -10.20246 -10.20214 -10.20173 -10.20051
 Alpha  occ. eigenvalues --  -10.20019 -10.19745 -10.19640 -10.19639 -10.19626
 Alpha  occ. eigenvalues --  -10.19607 -10.19601 -10.19576 -10.19421 -10.19393
 Alpha  occ. eigenvalues --  -10.19262 -10.18806 -10.18193 -10.18183 -10.18175
 Alpha  occ. eigenvalues --  -10.18040 -10.18025  -1.11207  -1.02800  -1.01841
 Alpha  occ. eigenvalues --   -0.87184  -0.86673  -0.86096  -0.82503  -0.81653
 Alpha  occ. eigenvalues --   -0.78525  -0.77426  -0.75528  -0.75466  -0.75037
 Alpha  occ. eigenvalues --   -0.74866  -0.72832  -0.69278  -0.69103  -0.68712
 Alpha  occ. eigenvalues --   -0.68026  -0.64764  -0.62669  -0.61972  -0.61787
 Alpha  occ. eigenvalues --   -0.61003  -0.59462  -0.57239  -0.56590  -0.55585
 Alpha  occ. eigenvalues --   -0.53808  -0.53333  -0.51615  -0.49274  -0.48669
 Alpha  occ. eigenvalues --   -0.48131  -0.47427  -0.47046  -0.46307  -0.45860
 Alpha  occ. eigenvalues --   -0.45499  -0.44801  -0.44590  -0.44505  -0.43590
 Alpha  occ. eigenvalues --   -0.43502  -0.43105  -0.42869  -0.42547  -0.42320
 Alpha  occ. eigenvalues --   -0.41694  -0.41494  -0.41144  -0.40139  -0.40100
 Alpha  occ. eigenvalues --   -0.39772  -0.39047  -0.38523  -0.38386  -0.37816
 Alpha  occ. eigenvalues --   -0.37292  -0.37080  -0.36940  -0.36588  -0.35970
 Alpha  occ. eigenvalues --   -0.35718  -0.34993  -0.34659  -0.34378  -0.33725
 Alpha  occ. eigenvalues --   -0.33233  -0.33107  -0.32766  -0.32428  -0.32203
 Alpha  occ. eigenvalues --   -0.29233  -0.28172  -0.25964  -0.25703  -0.25631
 Alpha  occ. eigenvalues --   -0.25499  -0.24363  -0.23848  -0.22409
 Alpha virt. eigenvalues --   -0.07392  -0.05126  -0.01786  -0.00875  -0.00563
 Alpha virt. eigenvalues --   -0.00505   0.03595   0.05480   0.07486   0.08297
 Alpha virt. eigenvalues --    0.08694   0.09606   0.10467   0.10663   0.10892

 Mulliken charges:
               1
     1  C   -0.440054
     2  C   -0.162902
     3  C   -0.440100
     4  C    0.193238
     5  C   -0.186941
     6  C   -0.172741
     7  C    0.170075
     8  C   -0.154534
     9  C   -0.204013
    10  C    0.377488
    11  O   -0.496810
    12  C    0.077805
    13  C   -0.166453
    14  C   -0.173973
    15  C    0.362281
    16  O   -0.540695
    17  C    0.588700
    18  O   -0.470962
    19  C    0.042461
    20  C   -0.154498
    21  C   -0.195285
    22  C    0.190932
    23  C    0.012860
    24  C   -0.458799
    25  C   -0.440527
    26  C   -0.440459
    27  C   -0.201710
    28  C   -0.160345
    29  C   -0.148538
    30  C   -0.191835
    31  C   -0.184389
    32  C   -0.201579
    33  H    0.144676
    34  H    0.144982
    35  H    0.152426
    36  H    0.131907
    37  H    0.152052
    38  H    0.144791
    39  H    0.144742
    40  H    0.130185
    41  H    0.131678
    42  H    0.166699
    43  H    0.135356
    44  H    0.166582
    45  H    0.145865
    46  H    0.162307
    47  H    0.134184
    48  H    0.147859
    49  H    0.145135
    50  H    0.147892
    51  H    0.142966
    52  H    0.150197
    53  H    0.145672
    54  H    0.142940
    55  H    0.150421
    56  H    0.145825
    57  H    0.134963
    58  H    0.156554
    59  H    0.163948
    60  H    0.140337
    61  H    0.139511
    62  H    0.129651
 Sum of Mulliken charges =  -0.00000

 Dipole moment (field-independent basis, Debye):
    X=             -1.3692    Y=              1.8540    Z=             -1.8306  Tot=              2.9433
 Quadrupole moment (field-independent basis, Debye-Ang):
   XX=           -120.2042   YY=           -192.1102   ZZ=           -192.7697
   XY=             11.0739   XZ=             -3.3694   YZ=             -0.6352

 Normal termination of Gaussian 16 at Sat Nov  5 09:43:47 2022.
