 Gaussian 16, Revision B.01,
 Gaussian 16:  ES64L-G16RevB.01 20-Dec-2017

 -----------------------------
 #p b3lyp/6-31g(d) opt SCF=XQC
 -----------------------------

 ------------------------------
 Gaussian input prepared by ASE
 ------------------------------
 Symbolic Z-matrix:
 Charge =  0 Multiplicity = 1

 SCF Done:  E(RB3LYP) =  -1348.84973449     A.U. after   15 cycles
 SCF Done:  E(RB3LYP) =  -1348.85561265     A.U. after   12 cycles
 SCF Done:  E(RB3LYP) =  -1348.85623128     A.U. after   12 cycles
 SCF Done:  E(RB3LYP) =  -1348.85637744     A.U. after   12 cycles
 SCF Done:  E(RB3LYP) =  -1348.85650882     A.U. after   11 cycles
 SCF Done:  E(RB3LYP) =  -1348.85654595     A.U. after   10 cycles
 SCF Done:  E(RB3LYP) =  -1348.85654992     A.U. after   10 cycles
 SCF Done:  E(RB3LYP) =  -1348.85655198     A.U. after    9 cycles
 SCF Done:  E(RB3LYP) =  -1348.85655309     A.U. after    9 cycles
 SCF Done:  E(RB3LYP) =  -1348.85655320     A.U. after    7 cycles
 SCF Done:  E(RB3LYP) =  -1348.85655323     A.U. after    7 cycles
 SCF Done:  E(RB3LYP) =  -1348.85655323     A.U. after    7 cycles
 Optimization completed.
    -- Stationary point found.

                         Standard orientation:
 ---------------------------------------------------------------------
 Center     Atomic      Atomic             Coordinates (Angstroms)
 Number     Number       Type             X           Y           Z
 ---------------------------------------------------------------------
      1          6           0      -10.085698   -2.433393    1.156962
      2          6           0       -9.890049   -1.614968   -0.133842
      3          6           0       -9.969522   -2.518405   -1.379537
      4          6           0       -8.600176   -0.808661   -0.101700
      5          6           0       -7.343859   -1.436230   -0.024298
      6          6           0       -6.168194   -0.698866    0.005220
      7          6           0       -6.193139    0.709692   -0.041690
      8          6           0       -4.993476    1.541234   -0.013968
      9          6           0       -3.705245    1.143803    0.040191
     10          6           0       -2.617784    2.150770    0.077726
     11          8           0       -2.865944    3.354629    0.140877
     12          6           0       -1.190721    1.686920    0.054793
     13          6           0       -0.194303    2.633734    0.344730
     14          6           0        1.147715    2.280472    0.338595
     15          6           0        1.513947    0.968069    0.028256
     16          8           0        2.880997    0.728639   -0.030742
     17          6           0        3.436088   -0.447117    0.415592
     18          8           0        2.796534   -1.350850    0.905690
     19          6           0        4.907899   -0.453221    0.223592
     20          6           0        5.620606   -1.582145    0.653655
     21          6           0        6.998586   -1.642399    0.496902
     22          6           0        7.721429   -0.587765   -0.092659
     23          6           0        9.248131   -0.697606   -0.246982
     24          6           0        9.863114    0.547626   -0.913490
     25          6           0        9.587072   -1.929679   -1.120273
     26          6           0        9.892735   -0.865754    1.150055
     27          6           0        6.992693    0.533129   -0.517354
     28          6           0        5.608764    0.605617   -0.363939
     29          6           0        0.548393    0.009881   -0.283805
     30          6           0       -0.795787    0.378129   -0.261322
     31          6           0       -7.449852    1.335029   -0.118052
     32          6           0       -8.626268    0.590140   -0.147718
     33          1           0      -11.048219   -2.958004    1.137107
     34          1           0       -9.298437   -3.187473    1.274372
     35          1           0      -10.065827   -1.789018    2.042469
     36          1           0      -10.717719   -0.895459   -0.195870
     37          1           0       -9.866896   -1.934590   -2.300628
     38          1           0       -9.177180   -3.276269   -1.373813
     39          1           0      -10.931424   -3.043468   -1.412667
     40          1           0       -7.285604   -2.521118    0.014278
     41          1           0       -5.217865   -1.221250    0.066868
     42          1           0       -5.158146    2.617834   -0.040156
     43          1           0       -3.445348    0.091545    0.079321
     44          1           0       -0.502520    3.648079    0.574080
     45          1           0        1.923921    3.003877    0.567564
     46          1           0        5.075161   -2.402307    1.108995
     47          1           0        7.522020   -2.529739    0.840711
     48          1           0        9.468373    0.708117   -1.923159
     49          1           0       10.947736    0.419662   -1.000523
     50          1           0        9.684801    1.455794   -0.326613
     51          1           0       10.673575   -2.025088   -1.234426
     52          1           0        9.147385   -1.835698   -2.119690
     53          1           0        9.216030   -2.859808   -0.677648
     54          1           0       10.981941   -0.952059    1.056247
     55          1           0        9.674032   -0.003404    1.789958
     56          1           0        9.530560   -1.762914    1.662530
     57          1           0        7.502271    1.371804   -0.977604
     58          1           0        5.072284    1.485187   -0.701458
     59          1           0        0.838594   -1.002580   -0.529318
     60          1           0       -1.533368   -0.374203   -0.519678
     61          1           0       -7.498476    2.420731   -0.154509
     62          1           0       -9.582944    1.104263   -0.207185
 ---------------------------------------------------------------------

 The electronic state is 1-A.
 Alpha  occ. eigenvalues --  -19.20672 -19.14250 -19.11924 -10.32585 -10.26431
 Alpha  occ. eigenvalues --  -10.26087 -10.21317 -10.20900 -10.20703 -10.20355
 Alpha  occ. eigenvalues --  -10.20280 -10.20246 -10.20214 -10.20173 -10.20051
 Alpha  occ. eigenvalues --  -10.20020 -10.19745 -10.19640 -10.19639 -10.19626
 Alpha  occ. eigenvalues --  -10.19607 -10.19601 -10.19576 -10.19421 -10.19393
 Alpha  occ. eigenvalues --  -10.19261 -10.18806 -10.18193 -10.18183 -10.18175
 Alpha  occ. eigenvalues --  -10.18040 -10.18025  -1.11207  -1.02800  -1.01841
 Alpha  occ. eigenvalues --   -0.87184  -0.86673  -0.86096  -0.82503  -0.81653
 Alpha  occ. eigenvalues --   -0.78525  -0.77426  -0.75528  -0.75466  -0.75037
 Alpha  occ. eigenvalues --   -0.74866  -0.72832  -0.69278  -0.69103  -0.68712
 Alpha  occ. eigenvalues --   -0.68026  -0.64764  -0.62669  -0.61972  -0.61787
 Alpha  occ. eigenvalues --   -0.61003  -0.59462  -0.57238  -0.56590  -0.55585
 Alpha  occ. eigenvalues --   -0.53808  -0.53332  -0.51614  -0.49274  -0.48669
 Alpha  occ. eigenvalues --   -0.48131  -0.47427  -0.47046  -0.46307  -0.45860
 Alpha  occ. eigenvalues --   -0.45499  -0.44801  -0.44590  -0.44505  -0.43590
 Alpha  occ. eigenvalues --   -0.43502  -0.43105  -0.42869  -0.42547  -0.42320
 Alpha  occ. eigenvalues --   -0.41694  -0.41494  -0.41144  -0.40139  -0.40100
 Alpha  occ. eigenvalues --   -0.39772  -0.39047  -0.38523  -0.38386  -0.37816
 Alpha  occ. eigenvalues --   -0.37292  -0.37080  -0.36940  -0.36588  -0.35970
 Alpha  occ. eigenvalues --   -0.35718  -0.34993  -0.34659  -0.34378  -0.33725
 Alpha  occ. eigenvalues --   -0.33233  -0.33107  -0.32766  -0.32428  -0.32203
 Alpha  occ. eigenvalues --   -0.29233  -0.28172  -0.25964  -0.25703  -0.25631
 Alpha  occ. eigenvalues --   -0.25499  -0.24362  -0.23848  -0.22409
 Alpha virt. eigenvalues --   -0.07392  -0.05126  -0.01786  -0.00875  -0.00563
 Alpha virt. eigenvalues --   -0.00505   0.03595   0.05480   0.07486   0.08297
 Alpha virt. eigenvalues --    0.08694   0.09606   0.10467   0.10663   0.10892

 Mulliken charges:
               1
     1  C   -0.440062
     2  C   -0.162912
     3  C   -0.440098
     4  C    0.193252
     5  C   -0.186946
     6  C   -0.172748
     7  C    0.170085
     8  C   -0.154536
     9  C   -0.204012
    10  C    0.377488
    11  O   -0.496810
    12  C    0.077812
    13  C   -0.166461
    14  C   -0.173973
    15  C    0.362292
    16  O   -0.540693
    17  C    0.588694
    18  O   -0.470959
    19  C    0.042462
    20  C   -0.154497
    21  C   -0.195290
    22  C    0.190923
    23  C    0.012859
    24  C   -0.458805
    25  C   -0.440527
    26  C   -0.440450
    27  C   -0.201704
    28  C   -0.160343
    29  C   -0.148547
    30  C   -0.191836
    31  C   -0.184391
    32  C   -0.201579
    33  H    0.144678
    34  H    0.144984
    35  H    0.152428
    36  H    0.131908
    37  H    0.152053
    38  H    0.144791
    39  H    0.144742
    40  H    0.130186
    41  H    0.131679
    42  H    0.166698
    43  H    0.135356
    44  H    0.166581
    45  H    0.145865
    46  H    0.162308
    47  H    0.134185
    48  H    0.147861
    49  H    0.145137
    50  H    0.147893
    51  H    0.142966
    52  H    0.150197
    53  H    0.145673
    54  H    0.142938
    55  H    0.150421
    56  H    0.145824
    57  H    0.134963
    58  H    0.156551
    59  H    0.163949
    60  H    0.140336
    61  H    0.139511
    62  H    0.129650
 Sum of Mulliken charges =  -0.00000

 Dipole moment (field-independent basis, Debye):
    X=              1.4117    Y=             -2.3653    Z=             -1.0372  Tot=              2.9434
 Quadrupole moment (field-independent basis, Debye-Ang):
   XX=           -120.4730   YY=           -190.0625   ZZ=           -192.9715
   XY=             12.3257   XZ=             -1.1242   YZ=              0.6467

 1\1\GINC-NODE68\FOpt\RB3LYP\6-31G(d)\C29H30O3\WYKGROUP\04-Nov-2022\0\\
 #p b3lyp/6-31g(d) opt SCF=XQC\\Gaussian input prepared by ASE\\0,1\C,1
 0.1901064282,2.2844157385,0.4117421248\C,9.9777850332,1.0578740161,-0.
 4964364969\C,10.0723194807,1.447645904,-1.9841903385\C,8.6733166156,0.
 340742707,-0.1817592088\C,7.4288744805,0.9758249369,-0.3436228575\C,6.
 2398607727,0.3199876737,-0.0557158059\C,6.2387911713,-1.0102572946,0.4
 10445126\C,5.0240461627,-1.7540994073,0.7306300729\C,3.7434256118,-1.3
 413630835,0.630210702\C,2.6376447468,-2.2471341077,1.0236450327\O,2.86

 Normal termination of Gaussian 16 at Fri Nov  4 22:23:27 2022.
