 Gaussian 16, Revision B.01,
 Gaussian 16:  ES64L-G16RevB.01 20-Dec-2017

 -----------------------------
 #p b3lyp/6-31g(d) opt SCF=XQC
 -----------------------------

 ------------------------------
 Gaussian input prepared by ASE
 ------------------------------
 Symbolic Z-matrix:
 Charge =  0 Multiplicity = 1

 SCF Done:  E(RB3LYP) =  -1501.98154580     A.U. after   15 cycles
 SCF Done:  E(RB3LYP) =  -1501.99382752     A.U. after   13 cycles
 SCF Done:  E(RB3LYP) =  -1501.99497118     A.U. after   12 cycles
 SCF Done:  E(RB3LYP) =  -1501.99552153     A.U. after   12 cycles
 SCF Done:  E(RB3LYP) =  -1501.99578544     A.U. after   12 cycles
 SCF Done:  E(RB3LYP) =  -1501.99593410     A.U. after   11 cycles
 SCF Done:  E(RB3LYP) =  -1501.99606021     A.U. after   12 cycles
 SCF Done:  E(RB3LYP) =  -1501.99612656     A.U. after   10 cycles
 SCF Done:  E(RB3LYP) =  -1501.99616466     A.U. after   11 cycles
 SCF Done:  E(RB3LYP) =  -1501.99617280     A.U. after   10 cycles
 SCF Done:  E(RB3LYP) =  -1501.99617539     A.U. after    8 cycles
 SCF Done:  E(RB3LYP) =  -1501.99617567     A.U. after    8 cycles
 SCF Done:  E(RB3LYP) =  -1501.99617584     A.U. after    7 cycles
 SCF Done:  E(RB3LYP) =  -1501.99617585     A.U. after    6 cycles
 SCF Done:  E(RB3LYP) =  -1501.99617587     A.U. after    6 cycles
 SCF Done:  E(RB3LYP) =  -1501.99617586     A.U. after    6 cycles
 Optimization completed.
    -- Stationary point found.

                         Standard orientation:
 ---------------------------------------------------------------------
 Center     Atomic      Atomic             Coordinates (Angstroms)
 Number     Number       Type             X           Y           Z
 ---------------------------------------------------------------------
      1          8           0       -0.471562   -2.242583   -2.111154
      2          6           0       -0.363745   -1.591765   -1.106459
      3          6           0        0.903824   -0.896750   -0.506165
      4          6           0        2.134939   -1.038144   -1.370619
      5          6           0        2.080602   -0.590753   -2.701550
      6          6           0        3.172555   -0.731994   -3.553527
      7          6           0        4.349397   -1.328183   -3.094872
      8          6           0        4.417618   -1.778865   -1.778263
      9          6           0        3.319790   -1.637166   -0.925569
     10          6           0        0.263265    0.500899   -0.390433
     11          6           0        0.991186    1.766031   -0.635479
     12          6           0        2.317320    1.946172   -0.202784
     13          6           0        2.993770    3.140753   -0.445542
     14          6           0        2.368104    4.177534   -1.138887
     15          6           0        1.058434    4.006725   -1.592594
     16          6           0        0.379488    2.815736   -1.346863
     17          6           0       -1.066273    0.352138   -0.114205
     18          6           0       -2.048586    1.413965    0.211739
     19          6           0       -3.260097    1.544920   -0.489950
     20          6           0       -4.168896    2.550802   -0.162869
     21          6           0       -3.894117    3.440376    0.876985
     22          6           0       -2.698251    3.319003    1.586543
     23          6           0       -1.786080    2.318224    1.256262
     24          6           0       -1.392787   -1.156560   -0.037881
     25          6           0       -2.832438   -1.598057   -0.170827
     26          6           0       -3.653553   -1.662289    0.965244
     27          6           0       -4.989332   -2.051091    0.867175
     28          6           0       -5.531542   -2.388296   -0.373521
     29          6           0       -4.725609   -2.331431   -1.511051
     30          6           0       -3.389422   -1.938883   -1.413835
     31          6           0       -0.654348   -1.683462    1.243297
     32          6           0        0.868623   -1.657385    0.890123
     33          6           0        1.744494   -1.194390    2.042398
     34          6           0        2.664231   -2.089201    2.610574
     35          6           0        3.450737   -1.727168    3.705090
     36          6           0        3.331262   -0.453211    4.260206
     37          6           0        2.413628    0.446324    3.714810
     38          6           0        1.625121    0.076950    2.624696
     39          1           0        1.171346   -0.128143   -3.072957
     40          1           0        3.103116   -0.377914   -4.578701
     41          1           0        5.203019   -1.438738   -3.758418
     42          1           0        5.327398   -2.242600   -1.405552
     43          1           0        3.404209   -1.984387    0.097121
     44          1           0        2.821264    1.148394    0.330836
     45          1           0        4.016044    3.256826   -0.095329
     46          1           0        2.898424    5.106216   -1.332382
     47          1           0        0.564500    4.800548   -2.146853
     48          1           0       -0.632743    2.689906   -1.715983
     49          1           0       -3.488492    0.860052   -1.299203
     50          1           0       -5.095743    2.636923   -0.723811
     51          1           0       -4.605704    4.220976    1.132484
     52          1           0       -2.473130    4.004134    2.399699
     53          1           0       -0.855525    2.236529    1.809629
     54          1           0       -3.249940   -1.395557    1.937789
     55          1           0       -5.605400   -2.088944    1.761825
     56          1           0       -6.571357   -2.694531   -0.452348
     57          1           0       -5.134501   -2.598254   -2.482259
     58          1           0       -2.769523   -1.919520   -2.302108
     59          1           0       -0.982198   -2.699307    1.486796
     60          1           0       -0.875665   -1.045305    2.103063
     61          1           0        1.173852   -2.684203    0.654091
     62          1           0        2.759689   -3.089459    2.192867
     63          1           0        4.153094   -2.443196    4.123740
     64          1           0        3.941430   -0.165643    5.112084
     65          1           0        2.305186    1.440066    4.141580
     66          1           0        0.909979    0.786751    2.223135
 ---------------------------------------------------------------------

 The electronic state is 1-A.
 Alpha  occ. eigenvalues --  -19.15400 -10.28038 -10.21617 -10.21537 -10.21022
 Alpha  occ. eigenvalues --  -10.20664 -10.20561 -10.20235 -10.20183 -10.19820
 Alpha  occ. eigenvalues --  -10.19740 -10.19640 -10.19366 -10.19350 -10.19235
 Alpha  occ. eigenvalues --  -10.19223 -10.19137 -10.19133 -10.19078 -10.19068
 Alpha  occ. eigenvalues --  -10.19017 -10.18969 -10.18859 -10.18757 -10.18722
 Alpha  occ. eigenvalues --  -10.18696 -10.18658 -10.18609 -10.18602 -10.18563
 Alpha  occ. eigenvalues --  -10.18542 -10.18442 -10.18226 -10.18206 -10.18173
 Alpha  occ. eigenvalues --  -10.18104 -10.18077 -10.17972  -1.05564  -0.90190
 Alpha  occ. eigenvalues --   -0.85946  -0.85370  -0.85257  -0.84703  -0.84165
 Alpha  occ. eigenvalues --   -0.79222  -0.78342  -0.76143  -0.74897  -0.74670
 Alpha  occ. eigenvalues --   -0.74435  -0.74196  -0.74014  -0.73890  -0.73514
 Alpha  occ. eigenvalues --   -0.71903  -0.69573  -0.66699  -0.63386  -0.61463
 Alpha  occ. eigenvalues --   -0.61097  -0.60799  -0.60291  -0.59870  -0.59797
 Alpha  occ. eigenvalues --   -0.59617  -0.58599  -0.57972  -0.56202  -0.53589
 Alpha  occ. eigenvalues --   -0.53475  -0.52253  -0.51335  -0.50397  -0.50038
 Alpha  occ. eigenvalues --   -0.48621  -0.47786  -0.47546  -0.46511  -0.45660
 Alpha  occ. eigenvalues --   -0.45443  -0.45188  -0.45007  -0.44871  -0.44429
 Alpha  occ. eigenvalues --   -0.43799  -0.43675  -0.43251  -0.42735  -0.42186
 Alpha  occ. eigenvalues --   -0.41892  -0.41675  -0.41571  -0.41325  -0.40773
 Alpha  occ. eigenvalues --   -0.40641  -0.40048  -0.39821  -0.38452  -0.37862
 Alpha  occ. eigenvalues --   -0.37237  -0.36560  -0.36345  -0.36114  -0.35893
 Alpha  occ. eigenvalues --   -0.35326  -0.35275  -0.34799  -0.34642  -0.34375
 Alpha  occ. eigenvalues --   -0.34176  -0.34040  -0.33652  -0.33305  -0.32915
 Alpha  occ. eigenvalues --   -0.32881  -0.31701  -0.28101  -0.25997  -0.25394
 Alpha  occ. eigenvalues --   -0.25346  -0.24895  -0.24652  -0.24459  -0.24250
 Alpha  occ. eigenvalues --   -0.23944  -0.23832  -0.22763  -0.21219
 Alpha virt. eigenvalues --   -0.03883  -0.01597  -0.00885  -0.00611  -0.00157
 Alpha virt. eigenvalues --   -0.00045   0.00204   0.00283   0.00503   0.01062
 Alpha virt. eigenvalues --    0.01276   0.04814   0.07636   0.09153   0.09757

 Mulliken charges:
               1
     1  O   -0.443848
     2  C    0.434898
     3  C   -0.153713
     4  C    0.148448
     5  C   -0.146995
     6  C   -0.138374
     7  C   -0.124675
     8  C   -0.140202
     9  C   -0.182560
    10  C    0.043089
    11  C    0.093183
    12  C   -0.168958
    13  C   -0.138292
    14  C   -0.125042
    15  C   -0.137902
    16  C   -0.162495
    17  C   -0.015788
    18  C    0.067808
    19  C   -0.158620
    20  C   -0.138363
    21  C   -0.124933
    22  C   -0.136304
    23  C   -0.155824
    24  C   -0.110404
    25  C    0.117317
    26  C   -0.163672
    27  C   -0.136369
    28  C   -0.124203
    29  C   -0.140419
    30  C   -0.179332
    31  C   -0.296348
    32  C   -0.199755
    33  C    0.183031
    34  C   -0.196195
    35  C   -0.128751
    36  C   -0.130567
    37  C   -0.134917
    38  C   -0.198637
    39  H    0.133592
    40  H    0.128722
    41  H    0.126008
    42  H    0.125479
    43  H    0.131668
    44  H    0.151636
    45  H    0.130860
    46  H    0.128345
    47  H    0.130054
    48  H    0.141975
    49  H    0.145906
    50  H    0.132665
    51  H    0.130111
    52  H    0.131331
    53  H    0.143737
    54  H    0.129691
    55  H    0.129268
    56  H    0.128129
    57  H    0.130904
    58  H    0.161853
    59  H    0.162639
    60  H    0.159805
    61  H    0.148870
    62  H    0.131680
    63  H    0.132062
    64  H    0.131320
    65  H    0.131589
    66  H    0.154785
 Sum of Mulliken charges =  -0.00000

 Dipole moment (field-independent basis, Debye):
    X=             -0.0688    Y=              1.5946    Z=              2.1825  Tot=              2.7038
 Quadrupole moment (field-independent basis, Debye-Ang):
   XX=           -199.0289   YY=           -212.7349   ZZ=           -210.6107
   XY=             -3.4548   XZ=              4.5283   YZ=             -5.2435

 1\1\GINC-NODE90\FOpt\RB3LYP\6-31G(d)\C37H28O1\WYKGROUP\04-Nov-2022\0\\
 #p b3lyp/6-31g(d) opt SCF=XQC\\Gaussian input prepared by ASE\\0,1\O,0
 .6441578041,-0.9570881338,-3.0115645149\C,0.4617761986,-0.8765971723,-
 1.8262970916\C,1.214145107,-0.0076282208,-0.763769545\C,2.2760441688,0
 .8869961928,-1.3595321981\C,1.9068029813,1.7959123068,-2.3655247796\C,
 2.8512773255,2.6163259237,-2.9763160303\C,4.1935417113,2.546498128,-2.
 5965648008\C,4.5753429265,1.6484868603,-1.6020637995\C,3.6256880117,0.
 8251889057,-0.9915506236\C,-0.0542493432,0.6610859648,-0.1970869841\C,

 Normal termination of Gaussian 16 at Fri Nov  4 23:08:52 2022.
