 Gaussian 16, Revision B.01,
 Gaussian 16:  ES64L-G16RevB.01 20-Dec-2017

 -------------------------------------------------------------------
 #p b3lyp/6-31g(d) 6D 10F nosymm GFInput td=(50-50,nstate=2) SCF=XQC
 -------------------------------------------------------------------

 ------------------------------
 Gaussian input prepared by ASE
 ------------------------------
 Symbolic Z-matrix:
 Charge =  0 Multiplicity = 1

                          Input orientation:
 ---------------------------------------------------------------------
 Center     Atomic      Atomic             Coordinates (Angstroms)
 Number     Number       Type             X           Y           Z
 ---------------------------------------------------------------------
      1          8           0        0.644158   -0.957088   -3.011565
      2          6           0        0.461776   -0.876597   -1.826297
      3          6           0        1.214145   -0.007628   -0.763770
      4          6           0        2.276044    0.886996   -1.359532
      5          6           0        1.906803    1.795912   -2.365525
      6          6           0        2.851277    2.616326   -2.976316
      7          6           0        4.193542    2.546498   -2.596565
      8          6           0        4.575343    1.648487   -1.602064
      9          6           0        3.625688    0.825189   -0.991551
     10          6           0       -0.054249    0.661086   -0.197087
     11          6           0       -0.115163    2.070333    0.251010
     12          6           0        0.945478    2.662101    0.960347
     13          6           0        0.877965    3.992552    1.371298
     14          6           0       -0.242687    4.767782    1.070870
     15          6           0       -1.295636    4.200594    0.349858
     16          6           0       -1.231926    2.870228   -0.057419
     17          6           0       -1.086953   -0.230632   -0.263915
     18          6           0       -2.455633   -0.075127    0.284892
     19          6           0       -3.599834   -0.257445   -0.511876
     20          6           0       -4.876704   -0.107702    0.028380
     21          6           0       -5.040027    0.216418    1.376124
     22          6           0       -3.913606    0.394559    2.180947
     23          6           0       -2.636760    0.251719    1.640615
     24          6           0       -0.568823   -1.546049   -0.888274
     25          6           0       -1.568968   -2.523759   -1.461843
     26          6           0       -2.156869   -3.491890   -0.633528
     27          6           0       -3.094085   -4.395060   -1.134530
     28          6           0       -3.460609   -4.350092   -2.480139
     29          6           0       -2.881838   -3.394258   -3.315687
     30          6           0       -1.946296   -2.487720   -2.813800
     31          6           0        0.419694   -2.153857    0.168958
     32          6           0        1.675797   -1.222845    0.152501
     33          6           0        2.253879   -0.969714    1.534889
     34          6           0        3.541542   -1.437705    1.838755
     35          6           0        4.092772   -1.277400    3.110791
     36          6           0        3.360972   -0.642669    4.114276
     37          6           0        2.074139   -0.180468    3.833025
     38          6           0        1.525350   -0.349206    2.561457
     39          1           0        0.867563    1.859061   -2.673245
     40          1           0        2.538477    3.309851   -3.752431
     41          1           0        4.932114    3.186619   -3.071901
     42          1           0        5.615703    1.584170   -1.293557
     43          1           0        3.947450    0.145272   -0.211957
     44          1           0        1.826915    2.076638    1.195849
     45          1           0        1.708629    4.424255    1.923382
     46          1           0       -0.291722    5.806447    1.386942
     47          1           0       -2.167877    4.797422    0.096243
     48          1           0       -2.050212    2.444815   -0.628495
     49          1           0       -3.488981   -0.511352   -1.560372
     50          1           0       -5.746298   -0.246676   -0.608496
     51          1           0       -6.036184    0.328743    1.795679
     52          1           0       -4.027117    0.645275    3.232406
     53          1           0       -1.766840    0.399243    2.273306
     54          1           0       -1.889003   -3.535916    0.418234
     55          1           0       -3.537774   -5.132934   -0.471166
     56          1           0       -4.188460   -5.054676   -2.873842
     57          1           0       -3.154051   -3.353510   -4.367292
     58          1           0       -1.489242   -1.764571   -3.478507
     59          1           0        0.689658   -3.179989   -0.101027
     60          1           0       -0.045219   -2.179426    1.158213
     61          1           0        2.457151   -1.727238   -0.429140
     62          1           0        4.118732   -1.943486    1.067299
     63          1           0        5.092213   -1.652142    3.315623
     64          1           0        3.785286   -0.514581    5.106369
     65          1           0        1.489941    0.309958    4.607369
     66          1           0        0.519454    0.006855    2.366803
 ---------------------------------------------------------------------

 SCF Done:  E(RB3LYP) =  -1501.99617320     A.U. after   16 cycles

 Excitation energies and oscillator strengths:

 Excited state symmetry could not be determined.
 Excited State   1:      Triplet-?Sym    2.8775 eV  430.87 nm  f=0.0000  <S**2>=2.000
     118 ->141         0.11888
     129 ->130         0.63604
 This state for optimization and/or second-order correction.
 Total Energy, E(TD-HF/TD-DFT) =  -1501.89042681
 Copying the excited state density for this state as the 1-particle RhoCI density.

 Excited state symmetry could not be determined.
 Excited State   2:      Triplet-?Sym    3.6107 eV  343.38 nm  f=0.0000  <S**2>=2.000
     119 ->130         0.20553
     120 ->132        -0.11043
     120 ->134         0.10970
     122 ->130        -0.15503
     123 ->130         0.18719
     124 ->130        -0.13992
     125 ->140        -0.11552
     128 ->130         0.12533
     129 ->131        -0.11911
     129 ->135         0.26840
     129 ->137        -0.14426
     129 ->139         0.11322

 Excited state symmetry could not be determined.
 Excited State   3:      Singlet-?Sym    4.1870 eV  296.11 nm  f=0.1777  <S**2>=0.000
     128 ->130         0.17368
     129 ->130         0.65098
     129 ->131         0.12917

 Excited state symmetry could not be determined.
 Excited State   4:      Singlet-?Sym    4.3755 eV  283.36 nm  f=0.0913  <S**2>=0.000
     119 ->131        -0.11118
     128 ->130         0.41874
     128 ->131         0.26091
     128 ->132         0.10549
     128 ->134         0.12134
     129 ->130        -0.24710
     129 ->131         0.25383

 Alpha  occ. eigenvalues --  -19.15400 -10.28038 -10.21617 -10.21537 -10.21022
 Alpha  occ. eigenvalues --  -10.20664 -10.20561 -10.20235 -10.20183 -10.19820
 Alpha  occ. eigenvalues --  -10.19740 -10.19640 -10.19366 -10.19350 -10.19235
 Alpha  occ. eigenvalues --  -10.19223 -10.19137 -10.19133 -10.19078 -10.19068
 Alpha  occ. eigenvalues --  -10.19017 -10.18969 -10.18859 -10.18757 -10.18722
 Alpha  occ. eigenvalues --  -10.18696 -10.18658 -10.18609 -10.18602 -10.18563
 Alpha  occ. eigenvalues --  -10.18542 -10.18442 -10.18226 -10.18206 -10.18173
 Alpha  occ. eigenvalues --  -10.18104 -10.18077 -10.17972  -1.05564  -0.90190
 Alpha  occ. eigenvalues --   -0.85946  -0.85370  -0.85257  -0.84703  -0.84165
 Alpha  occ. eigenvalues --   -0.79222  -0.78342  -0.76143  -0.74897  -0.74670
 Alpha  occ. eigenvalues --   -0.74435  -0.74196  -0.74014  -0.73890  -0.73514
 Alpha  occ. eigenvalues --   -0.71903  -0.69573  -0.66699  -0.63386  -0.61463
 Alpha  occ. eigenvalues --   -0.61097  -0.60799  -0.60291  -0.59870  -0.59797
 Alpha  occ. eigenvalues --   -0.59617  -0.58599  -0.57972  -0.56202  -0.53589
 Alpha  occ. eigenvalues --   -0.53475  -0.52253  -0.51336  -0.50397  -0.50038
 Alpha  occ. eigenvalues --   -0.48621  -0.47786  -0.47546  -0.46511  -0.45660
 Alpha  occ. eigenvalues --   -0.45443  -0.45188  -0.45007  -0.44871  -0.44429
 Alpha  occ. eigenvalues --   -0.43799  -0.43675  -0.43251  -0.42735  -0.42186
 Alpha  occ. eigenvalues --   -0.41892  -0.41675  -0.41571  -0.41325  -0.40773
 Alpha  occ. eigenvalues --   -0.40641  -0.40048  -0.39821  -0.38452  -0.37862
 Alpha  occ. eigenvalues --   -0.37237  -0.36560  -0.36345  -0.36114  -0.35893
 Alpha  occ. eigenvalues --   -0.35326  -0.35275  -0.34799  -0.34642  -0.34375
 Alpha  occ. eigenvalues --   -0.34176  -0.34040  -0.33652  -0.33305  -0.32915
 Alpha  occ. eigenvalues --   -0.32881  -0.31701  -0.28100  -0.25997  -0.25394
 Alpha  occ. eigenvalues --   -0.25346  -0.24895  -0.24652  -0.24459  -0.24250
 Alpha  occ. eigenvalues --   -0.23944  -0.23832  -0.22763  -0.21219
 Alpha virt. eigenvalues --   -0.03883  -0.01597  -0.00885  -0.00611  -0.00157
 Alpha virt. eigenvalues --   -0.00045   0.00204   0.00283   0.00503   0.01062
 Alpha virt. eigenvalues --    0.01276   0.04814   0.07636   0.09153   0.09757

 Mulliken charges:
               1
     1  O   -0.443849
     2  C    0.434914
     3  C   -0.153746
     4  C    0.148465
     5  C   -0.147007
     6  C   -0.138366
     7  C   -0.124683
     8  C   -0.140195
     9  C   -0.182558
    10  C    0.043046
    11  C    0.093182
    12  C   -0.168953
    13  C   -0.138304
    14  C   -0.125032
    15  C   -0.137909
    16  C   -0.162502
    17  C   -0.015738
    18  C    0.067798
    19  C   -0.158626
    20  C   -0.138346
    21  C   -0.124942
    22  C   -0.136307
    23  C   -0.155819
    24  C   -0.110402
    25  C    0.117313
    26  C   -0.163671
    27  C   -0.136363
    28  C   -0.124206
    29  C   -0.140425
    30  C   -0.179326
    31  C   -0.296378
    32  C   -0.199721
    33  C    0.183046
    34  C   -0.196213
    35  C   -0.128747
    36  C   -0.130557
    37  C   -0.134940
    38  C   -0.198628
    39  H    0.133591
    40  H    0.128722
    41  H    0.126009
    42  H    0.125479
    43  H    0.131668
    44  H    0.151636
    45  H    0.130860
    46  H    0.128344
    47  H    0.130055
    48  H    0.141976
    49  H    0.145907
    50  H    0.132663
    51  H    0.130111
    52  H    0.131330
    53  H    0.143742
    54  H    0.129692
    55  H    0.129268
    56  H    0.128129
    57  H    0.130906
    58  H    0.161852
    59  H    0.162641
    60  H    0.159808
    61  H    0.148867
    62  H    0.131681
    63  H    0.132062
    64  H    0.131319
    65  H    0.131594
    66  H    0.154781
 Sum of Mulliken charges =  -0.00000

 Dipole moment (field-independent basis, Debye):
    X=             -0.7483    Y=              0.1597    Z=              2.5933  Tot=              2.7038
 Quadrupole moment (field-independent basis, Debye-Ang):
   XX=           -198.9046   YY=           -209.9937   ZZ=           -214.0635
   XY=              1.3087   XZ=              7.3074   YZ=             -1.7071

 Normal termination of Gaussian 16 at Sat Nov  5 10:06:34 2022.
