 Gaussian 16, Revision B.01,
 Gaussian 16:  ES64L-G16RevB.01 20-Dec-2017

 -------------------------------------------------------------------
 #p b3lyp/6-31g(d) 6D 10F nosymm GFInput td=(50-50,nstate=2) SCF=XQC
 -------------------------------------------------------------------

 ------------------------------
 Gaussian input prepared by ASE
 ------------------------------
 Symbolic Z-matrix:
 Charge =  0 Multiplicity = 1

                          Input orientation:
 ---------------------------------------------------------------------
 Center     Atomic      Atomic             Coordinates (Angstroms)
 Number     Number       Type             X           Y           Z
 ---------------------------------------------------------------------
      1          8           0        0.153793   -3.805171    1.109554
      2         16           0        0.412781   -2.832845    0.047339
      3          8           0        0.582748   -3.220479   -1.355701
      4          7           0       -0.906129   -1.789666    0.084119
      5          6           0       -0.994421   -0.726381   -0.917475
      6          6           0       -2.399250   -0.095195   -0.964643
      7          6           0       -3.527433   -1.025200   -1.209814
      8          6           0       -3.853719   -2.290886   -0.807977
      9          6           0       -5.116792   -2.594428   -1.409129
     10          6           0       -5.471568   -1.493751   -2.127773
     11          8           0       -4.521275   -0.526249   -2.020370
     12         16           0       -2.598150    0.919392    0.605646
     13          8           0       -2.492467   -0.014168    1.750185
     14          8           0       -1.663070    2.053357    0.483440
     15          6           0       -4.274970    1.561688    0.574528
     16          6           0       -5.302124    0.821513    1.163787
     17          6           0       -6.598757    1.334300    1.135602
     18          6           0       -6.852190    2.567874    0.530545
     19          6           0       -5.811746    3.300858   -0.045590
     20          6           0       -4.510252    2.800053   -0.026096
     21          6           0        1.856710   -1.883515    0.521355
     22          6           0        2.658030   -1.299594   -0.461348
     23          6           0        3.764549   -0.534893   -0.095161
     24          6           0        4.062256   -0.363945    1.261483
     25          8           0        5.105667    0.394166    1.725404
     26          6           0        6.124122    0.795869    0.868622
     27          6           0        6.296422    2.161743    0.652191
     28          6           0        7.366195    2.597867   -0.131703
     29          6           0        8.248429    1.674903   -0.696389
     30          6           0        8.063528    0.308656   -0.469780
     31          6           0        7.002783   -0.139131    0.318029
     32          6           0        3.259818   -0.956024    2.247064
     33          6           0        2.157566   -1.714753    1.878397
     34          1           0       -1.138586   -1.491112    1.032511
     35          1           0       -0.260664    0.075844   -0.752119
     36          1           0       -0.799560   -1.177198   -1.893725
     37          1           0       -2.396776    0.675106   -1.742538
     38          1           0       -3.253896   -2.924493   -0.172939
     39          1           0       -5.676669   -3.514822   -1.319957
     40          1           0       -6.319416   -1.248809   -2.749336
     41          1           0       -5.081191   -0.126654    1.641112
     42          1           0       -7.409159    0.773254    1.591820
     43          1           0       -7.864154    2.963171    0.514190
     44          1           0       -6.011462    4.265301   -0.503501
     45          1           0       -3.684318    3.363028   -0.448081
     46          1           0        2.427065   -1.460725   -1.508991
     47          1           0        4.389659   -0.080200   -0.854906
     48          1           0        5.599892    2.861244    1.103398
     49          1           0        7.506893    3.661787   -0.301020
     50          1           0        9.078839    2.017776   -1.306832
     51          1           0        8.751631   -0.413655   -0.900187
     52          1           0        6.855250   -1.196853    0.513166
     53          1           0        3.522044   -0.812850    3.290121
     54          1           0        1.543492   -2.195109    2.633041
 ---------------------------------------------------------------------

 SCF Done:  E(RB3LYP) =  -2229.50829475     A.U. after   15 cycles

 Excitation energies and oscillator strengths:

 Excited state symmetry could not be determined.
 Excited State   1:      Triplet-?Sym    3.5478 eV  349.47 nm  f=0.0000  <S**2>=2.000
     126 ->127         0.20566
     126 ->129        -0.11442
     126 ->131        -0.60670
     126 ->132         0.13137
     126 ->134         0.11720
 This state for optimization and/or second-order correction.
 Total Energy, E(TD-HF/TD-DFT) =  -2229.37791528
 Copying the excited state density for this state as the 1-particle RhoCI density.

 Excited state symmetry could not be determined.
 Excited State   2:      Triplet-?Sym    3.6014 eV  344.27 nm  f=0.0000  <S**2>=2.000
     122 ->130        -0.24630
     122 ->132         0.17327
     123 ->130         0.13854
     124 ->128        -0.16120
     124 ->133         0.10823
     125 ->128         0.53692

 Excited state symmetry could not be determined.
 Excited State   3:      Singlet-?Sym    4.2777 eV  289.84 nm  f=0.0055  <S**2>=0.000
     126 ->127         0.70057

 Excited state symmetry could not be determined.
 Excited State   4:      Singlet-?Sym    4.7278 eV  262.24 nm  f=0.0001  <S**2>=0.000
     125 ->127         0.69776

 Alpha  occ. eigenvalues --  -89.10562 -89.09518 -19.22336 -19.19935 -19.14873
 Alpha  occ. eigenvalues --  -19.14622 -19.13517 -19.13412 -14.35982 -10.26962
 Alpha  occ. eigenvalues --  -10.25850 -10.25189 -10.25103 -10.24627 -10.24511
 Alpha  occ. eigenvalues --  -10.23533 -10.22083 -10.21966 -10.21958 -10.21749
 Alpha  occ. eigenvalues --  -10.21508 -10.21453 -10.21292 -10.21165 -10.20409
 Alpha  occ. eigenvalues --  -10.20369 -10.20325 -10.20216 -10.20212 -10.20064
 Alpha  occ. eigenvalues --  -10.19929 -10.19379 -10.19319  -8.13024  -8.12533
 Alpha  occ. eigenvalues --   -6.09520  -6.09448  -6.09343  -6.08964  -6.08883
 Alpha  occ. eigenvalues --   -6.08824  -1.11679  -1.10338  -1.10088  -1.08906
 Alpha  occ. eigenvalues --   -0.99997  -0.99450  -0.92521  -0.88192  -0.87561
 Alpha  occ. eigenvalues --   -0.86019  -0.82664  -0.80315  -0.78474  -0.78165
 Alpha  occ. eigenvalues --   -0.77113  -0.76583  -0.75865  -0.74505  -0.73667
 Alpha  occ. eigenvalues --   -0.69600  -0.66651  -0.64777  -0.63392  -0.63074
 Alpha  occ. eigenvalues --   -0.62314  -0.61529  -0.60751  -0.59763  -0.58803
 Alpha  occ. eigenvalues --   -0.56840  -0.55838  -0.55265  -0.54538  -0.53431
 Alpha  occ. eigenvalues --   -0.51049  -0.50383  -0.49595  -0.49313  -0.48714
 Alpha  occ. eigenvalues --   -0.48180  -0.47988  -0.47819  -0.46439  -0.46180
 Alpha  occ. eigenvalues --   -0.45929  -0.45560  -0.45006  -0.44661  -0.44175
 Alpha  occ. eigenvalues --   -0.43999  -0.43659  -0.43468  -0.42481  -0.41911
 Alpha  occ. eigenvalues --   -0.41346  -0.40971  -0.40799  -0.40506  -0.39923
 Alpha  occ. eigenvalues --   -0.38955  -0.38476  -0.38003  -0.37470  -0.37329
 Alpha  occ. eigenvalues --   -0.37033  -0.36684  -0.34838  -0.34293  -0.33409
 Alpha  occ. eigenvalues --   -0.32890  -0.32198  -0.30952  -0.30677  -0.30024
 Alpha  occ. eigenvalues --   -0.29607  -0.29472  -0.28446  -0.27931  -0.27845
 Alpha  occ. eigenvalues --   -0.27456  -0.26823  -0.26271  -0.25589  -0.23323
 Alpha  occ. eigenvalues --   -0.22988
 Alpha virt. eigenvalues --   -0.04691  -0.02638  -0.02497  -0.02179  -0.01091
 Alpha virt. eigenvalues --   -0.00874  -0.00642   0.04638   0.05993   0.06554
 Alpha virt. eigenvalues --    0.07654   0.08150   0.08569   0.09228   0.10035

 Mulliken charges:
               1
     1  O   -0.534736
     2  S    1.214652
     3  O   -0.556995
     4  N   -0.689606
     5  C   -0.153862
     6  C   -0.432824
     7  C    0.352581
     8  C   -0.171429
     9  C   -0.189542
    10  C    0.092403
    11  O   -0.438837
    12  S    1.127047
    13  O   -0.566207
    14  O   -0.547897
    15  C   -0.154183
    16  C   -0.129163
    17  C   -0.129071
    18  C   -0.117029
    19  C   -0.127166
    20  C   -0.136846
    21  C   -0.152701
    22  C   -0.158511
    23  C   -0.173978
    24  C    0.360630
    25  O   -0.569521
    26  C    0.326823
    27  C   -0.160086
    28  C   -0.140327
    29  C   -0.123287
    30  C   -0.139431
    31  C   -0.153057
    32  C   -0.164948
    33  C   -0.149716
    34  H    0.388879
    35  H    0.182842
    36  H    0.208320
    37  H    0.213144
    38  H    0.186999
    39  H    0.149718
    40  H    0.159054
    41  H    0.186071
    42  H    0.148838
    43  H    0.146288
    44  H    0.147784
    45  H    0.179159
    46  H    0.176402
    47  H    0.160658
    48  H    0.148862
    49  H    0.140146
    50  H    0.135847
    51  H    0.141069
    52  H    0.150966
    53  H    0.155884
    54  H    0.179892
 Sum of Mulliken charges =  -0.00000

 Dipole moment (field-independent basis, Debye):
    X=             -2.2064    Y=              4.6318    Z=             -2.3452  Tot=              5.6410
 Quadrupole moment (field-independent basis, Debye-Ang):
   XX=           -135.3583   YY=           -214.2438   ZZ=           -203.6263
   XY=             -0.6024   XZ=             -0.5972   YZ=             -6.1186

 Normal termination of Gaussian 16 at Sat Nov  5 09:45:34 2022.
