 Gaussian 16, Revision B.01,
 Gaussian 16:  ES64L-G16RevB.01 20-Dec-2017

 -----------------------------
 #p b3lyp/6-31g(d) opt SCF=XQC
 -----------------------------

 ------------------------------
 Gaussian input prepared by ASE
 ------------------------------
 Symbolic Z-matrix:
 Charge =  0 Multiplicity = 1

 SCF Done:  E(RB3LYP) =  -2229.48149887     A.U. after   14 cycles
 SCF Done:  E(RB3LYP) =  -2229.49859149     A.U. after   14 cycles
 SCF Done:  E(RB3LYP) =  -2229.50358953     A.U. after   13 cycles
 SCF Done:  E(RB3LYP) =  -2229.50536919     A.U. after   12 cycles
 SCF Done:  E(RB3LYP) =  -2229.50639813     A.U. after   13 cycles
 SCF Done:  E(RB3LYP) =  -2229.50722821     A.U. after   12 cycles
 SCF Done:  E(RB3LYP) =  -2229.50790067     A.U. after   12 cycles
 SCF Done:  E(RB3LYP) =  -2229.50809531     A.U. after   12 cycles
 SCF Done:  E(RB3LYP) =  -2229.50819464     A.U. after   11 cycles
 SCF Done:  E(RB3LYP) =  -2229.50824239     A.U. after   11 cycles
 SCF Done:  E(RB3LYP) =  -2229.50827108     A.U. after    9 cycles
 SCF Done:  E(RB3LYP) =  -2229.50827346     A.U. after    9 cycles
 SCF Done:  E(RB3LYP) =  -2229.50827666     A.U. after    9 cycles
 SCF Done:  E(RB3LYP) =  -2229.50828396     A.U. after   10 cycles
 SCF Done:  E(RB3LYP) =  -2229.50829222     A.U. after   10 cycles
 SCF Done:  E(RB3LYP) =  -2229.50829603     A.U. after   10 cycles
 SCF Done:  E(RB3LYP) =  -2229.50829656     A.U. after    9 cycles
 SCF Done:  E(RB3LYP) =  -2229.50829726     A.U. after    9 cycles
 SCF Done:  E(RB3LYP) =  -2229.50829736     A.U. after    7 cycles
 SCF Done:  E(RB3LYP) =  -2229.50829745     A.U. after    7 cycles
 Optimization completed.
    -- Stationary point found.

                         Standard orientation:
 ---------------------------------------------------------------------
 Center     Atomic      Atomic             Coordinates (Angstroms)
 Number     Number       Type             X           Y           Z
 ---------------------------------------------------------------------
      1          8           0        0.344802   -3.415515    1.487923
      2         16           0        0.540383   -2.611962    0.280925
      3          8           0        0.642197   -3.204105   -1.055737
      4          7           0       -0.784473   -1.576927    0.230328
      5          6           0       -0.933453   -0.674915   -0.912362
      6          6           0       -2.344603   -0.059912   -0.980127
      7          6           0       -3.475216   -1.017758   -1.025510
      8          6           0       -3.768956   -2.209912   -0.423527
      9          6           0       -5.058176   -2.601544   -0.906656
     10          6           0       -5.459209   -1.620790   -1.761699
     11          8           0       -4.513612   -0.646664   -1.848735
     12         16           0       -2.472551    1.177064    0.429934
     13          8           0       -2.300112    0.424659    1.693589
     14          8           0       -1.555376    2.281553    0.092179
     15          6           0       -4.154612    1.805038    0.390442
     16          6           0       -5.143560    1.159409    1.135609
     17          6           0       -6.444604    1.660326    1.098602
     18          6           0       -6.739865    2.789573    0.330715
     19          6           0       -5.736909    3.430068   -0.401110
     20          6           0       -4.431564    2.939710   -0.374720
     21          6           0        1.997802   -1.600429    0.533082
     22          6           0        2.742609   -1.168281   -0.565688
     23          6           0        3.859273   -0.355890   -0.375088
     24          6           0        4.224134    0.015774    0.923788
     25          8           0        5.282815    0.836118    1.215147
     26          6           0        6.252557    1.107175    0.256596
     27          6           0        6.401043    2.425797   -0.169230
     28          6           0        7.425431    2.741830   -1.063579
     29          6           0        8.286193    1.746340   -1.529582
     30          6           0        8.125645    0.428846   -1.092998
     31          6           0        7.110579    0.101878   -0.193516
     32          6           0        3.478432   -0.424015    2.026670
     33          6           0        2.365849   -1.230862    1.832513
     34          1           0       -0.971039   -1.140717    1.134504
     35          1           0       -0.199629    0.144092   -0.906378
     36          1           0       -0.784453   -1.265895   -1.819452
     37          1           0       -2.388848    0.585861   -1.863027
     38          1           0       -3.131757   -2.740905    0.266793
     39          1           0       -5.604299   -3.499208   -0.652709
     40          1           0       -6.339842   -1.472484   -2.368060
     41          1           0       -4.889888    0.293297    1.736584
     42          1           0       -7.225517    1.172323    1.674524
     43          1           0       -7.754938    3.176502    0.308135
     44          1           0       -5.968554    4.315198   -0.986434
     45          1           0       -3.633413    3.434746   -0.917927
     46          1           0        2.460055   -1.484087   -1.564333
     47          1           0        4.440654   -0.018564   -1.225339
     48          1           0        5.722008    3.183686    0.208341
     49          1           0        7.547534    3.768845   -1.396326
     50          1           0        9.081235    1.995653   -2.226386
     51          1           0        8.797533   -0.348510   -1.446200
     52          1           0        6.982909   -0.915171    0.164161
     53          1           0        3.792138   -0.126601    3.021840
     54          1           0        1.795464   -1.594310    2.680972
 ---------------------------------------------------------------------

 The electronic state is 1-A.
 Alpha  occ. eigenvalues --  -89.10562 -89.09518 -19.22336 -19.19935 -19.14874
 Alpha  occ. eigenvalues --  -19.14622 -19.13517 -19.13412 -14.35982 -10.26962
 Alpha  occ. eigenvalues --  -10.25850 -10.25189 -10.25103 -10.24627 -10.24510
 Alpha  occ. eigenvalues --  -10.23533 -10.22083 -10.21966 -10.21958 -10.21749
 Alpha  occ. eigenvalues --  -10.21509 -10.21453 -10.21292 -10.21165 -10.20409
 Alpha  occ. eigenvalues --  -10.20369 -10.20325 -10.20216 -10.20212 -10.20064
 Alpha  occ. eigenvalues --  -10.19929 -10.19379 -10.19319  -8.13024  -8.12533
 Alpha  occ. eigenvalues --   -6.09520  -6.09448  -6.09343  -6.08964  -6.08883
 Alpha  occ. eigenvalues --   -6.08824  -1.11679  -1.10338  -1.10088  -1.08906
 Alpha  occ. eigenvalues --   -0.99997  -0.99451  -0.92521  -0.88192  -0.87561
 Alpha  occ. eigenvalues --   -0.86019  -0.82664  -0.80315  -0.78474  -0.78165
 Alpha  occ. eigenvalues --   -0.77113  -0.76583  -0.75865  -0.74505  -0.73667
 Alpha  occ. eigenvalues --   -0.69600  -0.66651  -0.64777  -0.63392  -0.63074
 Alpha  occ. eigenvalues --   -0.62314  -0.61529  -0.60751  -0.59763  -0.58803
 Alpha  occ. eigenvalues --   -0.56840  -0.55838  -0.55265  -0.54538  -0.53431
 Alpha  occ. eigenvalues --   -0.51049  -0.50383  -0.49595  -0.49313  -0.48714
 Alpha  occ. eigenvalues --   -0.48180  -0.47988  -0.47819  -0.46439  -0.46180
 Alpha  occ. eigenvalues --   -0.45929  -0.45560  -0.45006  -0.44661  -0.44175
 Alpha  occ. eigenvalues --   -0.43999  -0.43659  -0.43468  -0.42481  -0.41911
 Alpha  occ. eigenvalues --   -0.41346  -0.40971  -0.40799  -0.40506  -0.39923
 Alpha  occ. eigenvalues --   -0.38955  -0.38476  -0.38003  -0.37470  -0.37329
 Alpha  occ. eigenvalues --   -0.37033  -0.36684  -0.34838  -0.34293  -0.33410
 Alpha  occ. eigenvalues --   -0.32891  -0.32198  -0.30952  -0.30677  -0.30024
 Alpha  occ. eigenvalues --   -0.29607  -0.29472  -0.28446  -0.27931  -0.27845
 Alpha  occ. eigenvalues --   -0.27456  -0.26823  -0.26271  -0.25589  -0.23323
 Alpha  occ. eigenvalues --   -0.22988
 Alpha virt. eigenvalues --   -0.04691  -0.02638  -0.02497  -0.02179  -0.01091
 Alpha virt. eigenvalues --   -0.00874  -0.00642   0.04638   0.05992   0.06554
 Alpha virt. eigenvalues --    0.07654   0.08150   0.08569   0.09228   0.10034

 Mulliken charges:
               1
     1  O   -0.534725
     2  S    1.214618
     3  O   -0.556988
     4  N   -0.689586
     5  C   -0.153875
     6  C   -0.432867
     7  C    0.352605
     8  C   -0.171427
     9  C   -0.189562
    10  C    0.092440
    11  O   -0.438865
    12  S    1.127076
    13  O   -0.566210
    14  O   -0.547888
    15  C   -0.154168
    16  C   -0.129192
    17  C   -0.129070
    18  C   -0.117030
    19  C   -0.127162
    20  C   -0.136852
    21  C   -0.152696
    22  C   -0.158505
    23  C   -0.173981
    24  C    0.360631
    25  O   -0.569515
    26  C    0.326802
    27  C   -0.160062
    28  C   -0.140330
    29  C   -0.123290
    30  C   -0.139427
    31  C   -0.153063
    32  C   -0.164943
    33  C   -0.149720
    34  H    0.388877
    35  H    0.182843
    36  H    0.208320
    37  H    0.213147
    38  H    0.187000
    39  H    0.149717
    40  H    0.159056
    41  H    0.186071
    42  H    0.148839
    43  H    0.146288
    44  H    0.147784
    45  H    0.179158
    46  H    0.176400
    47  H    0.160657
    48  H    0.148858
    49  H    0.140146
    50  H    0.135848
    51  H    0.141068
    52  H    0.150967
    53  H    0.155884
    54  H    0.179895
 Sum of Mulliken charges =  -0.00000

 Dipole moment (field-independent basis, Debye):
    X=             -2.3655    Y=              4.2273    Z=             -2.8908  Tot=              5.6411
 Quadrupole moment (field-independent basis, Debye-Ang):
   XX=           -136.0574   YY=           -214.2782   ZZ=           -200.8703
   XY=             -0.7935   XZ=             -3.8351   YZ=             -5.4740

 Normal termination of Gaussian 16 at Fri Nov  4 22:48:37 2022.
