 Gaussian 16, Revision B.01,
 Gaussian 16:  ES64L-G16RevB.01 20-Dec-2017

 -----------------------------
 #p b3lyp/6-31g(d) opt SCF=XQC
 -----------------------------

 ------------------------------
 Gaussian input prepared by ASE
 ------------------------------
 Symbolic Z-matrix:
 Charge =  0 Multiplicity = 1

 SCF Done:  E(RB3LYP) =  -1090.50561108     A.U. after   15 cycles
 SCF Done:  E(RB3LYP) =  -1090.51179808     A.U. after   13 cycles
 SCF Done:  E(RB3LYP) =  -1090.51342625     A.U. after   12 cycles
 SCF Done:  E(RB3LYP) =  -1090.51376708     A.U. after   12 cycles
 SCF Done:  E(RB3LYP) =  -1090.51384804     A.U. after   11 cycles
 SCF Done:  E(RB3LYP) =  -1090.51388872     A.U. after   11 cycles
 SCF Done:  E(RB3LYP) =  -1090.51389905     A.U. after   10 cycles
 SCF Done:  E(RB3LYP) =  -1090.51390641     A.U. after    9 cycles
 SCF Done:  E(RB3LYP) =  -1090.51390881     A.U. after    8 cycles
 SCF Done:  E(RB3LYP) =  -1090.51390994     A.U. after    8 cycles
 SCF Done:  E(RB3LYP) =  -1090.51393417     A.U. after   10 cycles
 SCF Done:  E(RB3LYP) =  -1090.51393669     A.U. after   10 cycles
 SCF Done:  E(RB3LYP) =  -1090.51393613     A.U. after    9 cycles
 SCF Done:  E(RB3LYP) =  -1090.51393795     A.U. after    9 cycles
 SCF Done:  E(RB3LYP) =  -1090.51393775     A.U. after    9 cycles
 SCF Done:  E(RB3LYP) =  -1090.51393894     A.U. after    9 cycles
 SCF Done:  E(RB3LYP) =  -1090.51393921     A.U. after    8 cycles
 SCF Done:  E(RB3LYP) =  -1090.51393930     A.U. after   10 cycles
 SCF Done:  E(RB3LYP) =  -1090.51393956     A.U. after    8 cycles
 SCF Done:  E(RB3LYP) =  -1090.51393957     A.U. after    6 cycles
 Optimization completed.
    -- Stationary point found.

                         Standard orientation:
 ---------------------------------------------------------------------
 Center     Atomic      Atomic             Coordinates (Angstroms)
 Number     Number       Type             X           Y           Z
 ---------------------------------------------------------------------
      1          6           0       -4.342366    3.637950   -2.088006
      2          6           0       -3.834594    2.639881   -1.073796
      3          6           0       -3.950630    1.263694   -1.282469
      4          6           0       -3.464857    0.340348   -0.351731
      5          6           0       -2.840655    0.765627    0.825521
      6          6           0       -2.287693   -0.184661    1.886191
      7          6           0       -2.700043   -1.654830    1.718992
      8          6           0       -2.016494   -2.385127    0.563632
      9          8           0       -2.599450   -3.304294   -0.002719
     10          6           0       -0.650449   -1.951176    0.201252
     11          6           0        0.122786   -2.575496   -0.822133
     12          6           0       -0.365201   -3.740238   -1.638752
     13          7           0        1.347493   -2.147477   -1.109507
     14          6           0        1.827539   -1.097386   -0.401551
     15          7           0        3.093568   -0.737297   -0.770023
     16          6           0        3.972247    0.266487   -0.325592
     17          6           0        5.223128    0.329896   -0.965504
     18          6           0        6.160609    1.288055   -0.594958
     19          6           0        5.870845    2.202120    0.420361
     20          6           0        4.629934    2.138491    1.054428
     21          6           0        3.677957    1.183891    0.695480
     22          7           0        1.184259   -0.431308    0.567969
     23          6           0       -0.045799   -0.863271    0.861899
     24          6           0       -0.746044   -0.128322    1.979507
     25          6           0       -2.735407    2.149927    1.039482
     26          6           0       -3.219330    3.066971    0.112637
     27          1           0       -4.928670    4.432457   -1.611394
     28          1           0       -3.513645    4.124815   -2.618800
     29          1           0       -4.976495    3.156893   -2.839498
     30          1           0       -4.431896    0.898753   -2.187175
     31          1           0       -3.591511   -0.717336   -0.559673
     32          1           0       -2.675715    0.161025    2.853591
     33          1           0       -2.425481   -2.196623    2.636948
     34          1           0       -3.779754   -1.777526    1.595707
     35          1           0        0.421377   -4.034198   -2.336920
     36          1           0       -0.637331   -4.584391   -0.998350
     37          1           0       -1.276579   -3.480733   -2.185718
     38          1           0        3.441280   -1.327925   -1.515379
     39          1           0        5.456445   -0.378845   -1.757760
     40          1           0        7.120567    1.318304   -1.103342
     41          1           0        6.601451    2.951271    0.711263
     42          1           0        4.389688    2.843315    1.846355
     43          1           0        2.717820    1.138610    1.188808
     44          1           0       -0.377365    0.900983    1.995949
     45          1           0       -0.430435   -0.586615    2.929471
     46          1           0       -2.273469    2.515623    1.954889
     47          1           0       -3.124814    4.132086    0.314367
 ---------------------------------------------------------------------

 The electronic state is 1-A.
 Alpha  occ. eigenvalues --  -19.12800 -14.38074 -14.33309 -14.33296 -10.30039
 Alpha  occ. eigenvalues --  -10.27226 -10.25248 -10.25246 -10.23881 -10.20857
 Alpha  occ. eigenvalues --  -10.20020 -10.19784 -10.19447 -10.19446 -10.19315
 Alpha  occ. eigenvalues --  -10.19312 -10.19212 -10.18942 -10.18706 -10.18543
 Alpha  occ. eigenvalues --  -10.18538 -10.18526 -10.18409 -10.18310 -10.18255
 Alpha  occ. eigenvalues --  -10.17583  -1.02883  -1.01306  -0.94159  -0.90125
 Alpha  occ. eigenvalues --   -0.86083  -0.84862  -0.83058  -0.79198  -0.76249
 Alpha  occ. eigenvalues --   -0.74645  -0.74290  -0.73983  -0.73031  -0.72405
 Alpha  occ. eigenvalues --   -0.68674  -0.65966  -0.64003  -0.61862  -0.60328
 Alpha  occ. eigenvalues --   -0.59838  -0.58851  -0.57137  -0.55053  -0.54487
 Alpha  occ. eigenvalues --   -0.52987  -0.51042  -0.49804  -0.48713  -0.47308
 Alpha  occ. eigenvalues --   -0.46532  -0.45487  -0.45203  -0.44284  -0.44041
 Alpha  occ. eigenvalues --   -0.43804  -0.43017  -0.42667  -0.42070  -0.41730
 Alpha  occ. eigenvalues --   -0.41488  -0.41373  -0.41049  -0.40112  -0.39330
 Alpha  occ. eigenvalues --   -0.38637  -0.38012  -0.37429  -0.37014  -0.36398
 Alpha  occ. eigenvalues --   -0.35722  -0.35355  -0.34599  -0.33999  -0.33181
 Alpha  occ. eigenvalues --   -0.32548  -0.32515  -0.31455  -0.30245  -0.26701
 Alpha  occ. eigenvalues --   -0.25193  -0.25035  -0.24666  -0.24008  -0.23238
 Alpha  occ. eigenvalues --   -0.20890
 Alpha virt. eigenvalues --   -0.05464  -0.03338  -0.00022   0.00094   0.00107
 Alpha virt. eigenvalues --    0.00875   0.04574   0.08315   0.08621   0.10145
 Alpha virt. eigenvalues --    0.10287   0.11657   0.12532   0.13187   0.13690

 Mulliken charges:
               1
     1  C   -0.531036
     2  C    0.181209
     3  C   -0.188883
     4  C   -0.202089
     5  C    0.173763
     6  C   -0.195494
     7  C   -0.370520
     8  C    0.397252
     9  O   -0.505285
    10  C    0.019229
    11  C    0.296313
    12  C   -0.493129
    13  N   -0.545887
    14  C    0.699209
    15  N   -0.759090
    16  C    0.360003
    17  C   -0.197946
    18  C   -0.132524
    19  C   -0.128504
    20  C   -0.143913
    21  C   -0.153371
    22  N   -0.557461
    23  C    0.300089
    24  C   -0.343827
    25  C   -0.179910
    26  C   -0.176289
    27  H    0.159161
    28  H    0.165112
    29  H    0.156269
    30  H    0.124629
    31  H    0.148371
    32  H    0.144118
    33  H    0.165432
    34  H    0.174480
    35  H    0.159558
    36  H    0.181415
    37  H    0.182055
    38  H    0.345846
    39  H    0.125080
    40  H    0.131300
    41  H    0.127401
    42  H    0.130393
    43  H    0.175465
    44  H    0.173649
    45  H    0.164849
    46  H    0.121773
    47  H    0.121736
 Sum of Mulliken charges =  -0.00000

 Dipole moment (field-independent basis, Debye):
    X=              1.1185    Y=              1.9285    Z=              0.7197  Tot=              2.3426
 Quadrupole moment (field-independent basis, Debye-Ang):
   XX=           -145.7942   YY=           -151.4284   ZZ=           -140.9942
   XY=             -7.6571   XZ=             -4.0285   YZ=              0.5194

 Normal termination of Gaussian 16 at Fri Nov  4 22:47:43 2022.
