 Gaussian 16, Revision B.01,
 Gaussian 16:  ES64L-G16RevB.01 20-Dec-2017

 -------------------------------------------------------------------
 #p b3lyp/6-31g(d) 6D 10F nosymm GFInput td=(50-50,nstate=2) SCF=XQC
 -------------------------------------------------------------------

 ------------------------------
 Gaussian input prepared by ASE
 ------------------------------
 Symbolic Z-matrix:
 Charge =  0 Multiplicity = 1

                          Input orientation:
 ---------------------------------------------------------------------
 Center     Atomic      Atomic             Coordinates (Angstroms)
 Number     Number       Type             X           Y           Z
 ---------------------------------------------------------------------
      1          6           0       -4.924389    1.370106    2.740772
      2          6           0       -4.126780    0.456936    1.839365
      3          6           0       -4.062524    0.666833    0.459975
      4          6           0       -3.310091   -0.168152   -0.371568
      5          6           0       -2.590253   -1.246740    0.152734
      6          6           0       -1.748843   -2.199910   -0.694220
      7          6           0       -1.953796   -2.073312   -2.211240
      8          6           0       -1.346098   -0.818970   -2.837946
      9          8           0       -1.860363   -0.331047   -3.839407
     10          6           0       -0.130450   -0.265676   -2.204088
     11          6           0        0.568373    0.869783   -2.711399
     12          6           0        0.147093    1.622896   -3.943051
     13          7           0        1.657892    1.328149   -2.104322
     14          6           0        2.072701    0.683048   -0.988028
     15          7           0        3.200894    1.228728   -0.442428
     16          6           0        3.973302    0.903714    0.686700
     17          6           0        5.091473    1.720052    0.934688
     18          6           0        5.917328    1.477461    2.027098
     19          6           0        5.645903    0.416922    2.894241
     20          6           0        4.536644   -0.392161    2.647505
     21          6           0        3.697800   -0.163231    1.556498
     22          7           0        1.486583   -0.380605   -0.420096
     23          6           0        0.393404   -0.846184   -1.031833
     24          6           0       -0.236904   -2.065722   -0.403360
     25          6           0       -2.665499   -1.463578    1.538541
     26          6           0       -3.414592   -0.632076    2.364167
     27          1           0       -5.547242    0.800393    3.440510
     28          1           0       -4.266818    2.009933    3.343913
     29          1           0       -5.582459    2.027010    2.163106
     30          1           0       -4.611473    1.496057    0.019142
     31          1           0       -3.304369    0.034680   -1.437777
     32          1           0       -2.037257   -3.219024   -0.404139
     33          1           0       -1.467494   -2.932520   -2.697900
     34          1           0       -3.008659   -2.108753   -2.497660
     35          1           0        0.857030    2.433744   -4.119324
     36          1           0        0.103847    0.962100   -4.813822
     37          1           0       -0.863885    2.025546   -3.829384
     38          1           0        3.519896    2.025980   -0.979017
     39          1           0        5.309633    2.548589    0.263605
     40          1           0        6.775670    2.121324    2.199080
     41          1           0        6.289461    0.225727    3.748005
     42          1           0        4.312257   -1.221336    3.313661
     43          1           0        2.839332   -0.792005    1.369516
     44          1           0       -0.030137   -2.043057    0.670138
     45          1           0        0.281597   -2.951785   -0.801004
     46          1           0       -2.133970   -2.306246    1.977265
     47          1           0       -3.453768   -0.833615    3.432786
 ---------------------------------------------------------------------

 SCF Done:  E(RB3LYP) =  -1090.51394193     A.U. after   15 cycles

 Excitation energies and oscillator strengths:

 Excited state symmetry could not be determined.
 Excited State   1:      Triplet-?Sym    2.9484 eV  420.51 nm  f=0.0000  <S**2>=2.000
      85 -> 92         0.14191
      91 -> 92         0.65878
      91 -> 97        -0.11933
 This state for optimization and/or second-order correction.
 Total Energy, E(TD-HF/TD-DFT) =  -1090.40559044
 Copying the excited state density for this state as the 1-particle RhoCI density.

 Excited state symmetry could not be determined.
 Excited State   2:      Triplet-?Sym    3.2012 eV  387.31 nm  f=0.0000  <S**2>=2.000
      89 -> 92         0.61713
      89 -> 97         0.16270
      89 -> 98         0.10785
      90 -> 92        -0.24778

 Excited state symmetry could not be determined.
 Excited State   3:      Singlet-?Sym    3.6664 eV  338.16 nm  f=0.0000  <S**2>=0.000
      89 -> 92         0.62282
      89 -> 97         0.12526
      90 -> 92        -0.28061

 Excited state symmetry could not be determined.
 Excited State   4:      Singlet-?Sym    3.8980 eV  318.07 nm  f=0.6261  <S**2>=0.000
      91 -> 92         0.70024

 Alpha  occ. eigenvalues --  -19.12800 -14.38074 -14.33309 -14.33296 -10.30039
 Alpha  occ. eigenvalues --  -10.27226 -10.25248 -10.25246 -10.23881 -10.20857
 Alpha  occ. eigenvalues --  -10.20021 -10.19784 -10.19447 -10.19446 -10.19315
 Alpha  occ. eigenvalues --  -10.19312 -10.19212 -10.18942 -10.18706 -10.18543
 Alpha  occ. eigenvalues --  -10.18538 -10.18526 -10.18409 -10.18310 -10.18255
 Alpha  occ. eigenvalues --  -10.17583  -1.02883  -1.01306  -0.94159  -0.90125
 Alpha  occ. eigenvalues --   -0.86083  -0.84862  -0.83058  -0.79198  -0.76249
 Alpha  occ. eigenvalues --   -0.74645  -0.74290  -0.73983  -0.73031  -0.72405
 Alpha  occ. eigenvalues --   -0.68674  -0.65966  -0.64003  -0.61862  -0.60328
 Alpha  occ. eigenvalues --   -0.59838  -0.58851  -0.57137  -0.55053  -0.54487
 Alpha  occ. eigenvalues --   -0.52987  -0.51042  -0.49804  -0.48713  -0.47308
 Alpha  occ. eigenvalues --   -0.46532  -0.45487  -0.45203  -0.44284  -0.44041
 Alpha  occ. eigenvalues --   -0.43804  -0.43017  -0.42667  -0.42070  -0.41730
 Alpha  occ. eigenvalues --   -0.41488  -0.41373  -0.41049  -0.40112  -0.39330
 Alpha  occ. eigenvalues --   -0.38637  -0.38012  -0.37429  -0.37014  -0.36398
 Alpha  occ. eigenvalues --   -0.35722  -0.35355  -0.34599  -0.33999  -0.33181
 Alpha  occ. eigenvalues --   -0.32548  -0.32515  -0.31455  -0.30245  -0.26701
 Alpha  occ. eigenvalues --   -0.25193  -0.25035  -0.24666  -0.24008  -0.23238
 Alpha  occ. eigenvalues --   -0.20890
 Alpha virt. eigenvalues --   -0.05464  -0.03338  -0.00022   0.00094   0.00107
 Alpha virt. eigenvalues --    0.00875   0.04574   0.08315   0.08621   0.10144
 Alpha virt. eigenvalues --    0.10287   0.11657   0.12532   0.13187   0.13690

 Mulliken charges:
               1
     1  C   -0.531040
     2  C    0.181211
     3  C   -0.188882
     4  C   -0.202084
     5  C    0.173758
     6  C   -0.195495
     7  C   -0.370536
     8  C    0.397258
     9  O   -0.505286
    10  C    0.019262
    11  C    0.296301
    12  C   -0.493128
    13  N   -0.545882
    14  C    0.699213
    15  N   -0.759087
    16  C    0.359977
    17  C   -0.197935
    18  C   -0.132528
    19  C   -0.128498
    20  C   -0.143938
    21  C   -0.153332
    22  N   -0.557460
    23  C    0.300054
    24  C   -0.343817
    25  C   -0.179912
    26  C   -0.176286
    27  H    0.159162
    28  H    0.165112
    29  H    0.156270
    30  H    0.124629
    31  H    0.148370
    32  H    0.144119
    33  H    0.165432
    34  H    0.174482
    35  H    0.159558
    36  H    0.181415
    37  H    0.182054
    38  H    0.345845
    39  H    0.125079
    40  H    0.131300
    41  H    0.127402
    42  H    0.130395
    43  H    0.175461
    44  H    0.173649
    45  H    0.164848
    46  H    0.121773
    47  H    0.121735
 Sum of Mulliken charges =  -0.00000

 Dipole moment (field-independent basis, Debye):
    X=              0.9073    Y=             -0.5757    Z=              2.0816  Tot=              2.3426
 Quadrupole moment (field-independent basis, Debye-Ang):
   XX=           -144.4129   YY=           -139.8767   ZZ=           -154.3430
   XY=              3.3468   XZ=             -6.2034   YZ=             -0.8552

 Normal termination of Gaussian 16 at Sat Nov  5 09:41:43 2022.
