 Gaussian 16, Revision B.01,
 Gaussian 16:  ES64L-G16RevB.01 20-Dec-2017

 -------------------------------------------------------------------
 #p b3lyp/6-31g(d) 6D 10F nosymm GFInput td=(50-50,nstate=2) SCF=XQC
 -------------------------------------------------------------------

 ------------------------------
 Gaussian input prepared by ASE
 ------------------------------
 Symbolic Z-matrix:
 Charge =  0 Multiplicity = 1

                          Input orientation:
 ---------------------------------------------------------------------
 Center     Atomic      Atomic             Coordinates (Angstroms)
 Number     Number       Type             X           Y           Z
 ---------------------------------------------------------------------
      1          6           0       -7.020053   -4.221406   -2.434939
      2          8           0       -6.233911   -3.097451   -2.803127
      3          6           0       -5.273415   -2.667538   -1.938689
      4          6           0       -4.549490   -1.537656   -2.348122
      5          6           0       -3.548921   -1.020189   -1.535962
      6          6           0       -3.254870   -1.624616   -0.309829
      7          7           0       -2.185215   -1.082901    0.498759
      8          6           0       -2.504718   -0.301919    1.612148
      9         16           0       -4.052995   -0.147197    2.236854
     10          7           0       -1.446310    0.312590    2.191259
     11          6           0       -0.188905    0.610076    1.509598
     12          6           0       -0.222752    1.926898    0.719956
     13          6           0       -1.406625    2.415912    0.144375
     14          6           0       -1.378841    3.602162   -0.584265
     15          6           0       -0.193781    4.322105   -0.756321
     16          6           0        0.983447    3.839188   -0.173910
     17          8           0        2.199581    4.454157   -0.256718
     18          6           0        2.290997    5.666458   -0.987219
     19          6           0        0.961532    2.647431    0.563947
     20          6           0        0.156464   -0.598533    0.648317
     21          6           0        1.577212   -0.823356    0.466497
     22          7           0        2.536282   -0.255959    1.159563
     23          6           0        3.680321   -0.783670    0.606524
     24          6           0        5.030899   -0.439671    1.074552
     25          6           0        6.164322   -0.980769    0.447236
     26          6           0        7.437481   -0.648128    0.900988
     27          6           0        7.593748    0.224888    1.981589
     28          6           0        6.468729    0.764254    2.607637
     29          6           0        5.190957    0.434790    2.158121
     30          7           0        3.465864   -1.629796   -0.377744
     31          8           0        2.063444   -1.654547   -0.484077
     32          6           0       -0.847617   -1.372754    0.149080
     33          6           0       -0.660412   -2.576205   -0.737692
     34          6           0       -3.971293   -2.746886    0.098033
     35          6           0       -4.980148   -3.272937   -0.709002
     36          1           0       -7.579907   -4.034933   -1.509450
     37          1           0       -6.403427   -5.121198   -2.310290
     38          1           0       -7.721342   -4.376334   -3.256585
     39          1           0       -4.793743   -1.080493   -3.301437
     40          1           0       -2.994154   -0.138757   -1.845002
     41          1           0       -1.702523    0.897732    2.976425
     42          1           0        0.579248    0.699801    2.281663
     43          1           0       -2.349412    1.897816    0.283385
     44          1           0       -2.297227    3.983041   -1.023385
     45          1           0       -0.202020    5.244156   -1.326016
     46          1           0        3.336334    5.974550   -0.925565
     47          1           0        1.656128    6.450018   -0.552356
     48          1           0        2.016940    5.525273   -2.041226
     49          1           0        1.888628    2.293845    1.002698
     50          1           0        6.036373   -1.657044   -0.391941
     51          1           0        8.310585   -1.069909    0.410682
     52          1           0        8.589165    0.482845    2.333136
     53          1           0        6.585007    1.442928    3.448173
     54          1           0        4.310285    0.846479    2.639362
     55          1           0       -1.325202   -3.385879   -0.426701
     56          1           0       -0.908452   -2.338737   -1.778672
     57          1           0        0.368551   -2.925500   -0.712577
     58          1           0       -3.751294   -3.203862    1.057048
     59          1           0       -5.529545   -4.142663   -0.368781
 ---------------------------------------------------------------------

 SCF Done:  E(RB3LYP) =  -1886.14719085     A.U. after   15 cycles

 Excitation energies and oscillator strengths:

 Excited state symmetry could not be determined.
 Excited State   1:      Triplet-?Sym    2.5627 eV  483.80 nm  f=0.0000  <S**2>=2.000
     122 ->129        -0.10357
     123 ->128        -0.18378
     124 ->128         0.19559
     126 ->128         0.44197
     127 ->128        -0.41413
 This state for optimization and/or second-order correction.
 Total Energy, E(TD-HF/TD-DFT) =  -1886.05301264
 Copying the excited state density for this state as the 1-particle RhoCI density.

 Excited state symmetry could not be determined.
 Excited State   2:      Triplet-?Sym    2.9423 eV  421.38 nm  f=0.0000  <S**2>=2.000
     124 ->128         0.20033
     126 ->128         0.33552
     127 ->128         0.50297
     127 ->129         0.17435
     127 ->131         0.10320
     127 ->135         0.12208

 Excited state symmetry could not be determined.
 Excited State   3:      Singlet-?Sym    3.0692 eV  403.96 nm  f=0.0164  <S**2>=0.000
     126 ->128         0.16194
     127 ->128         0.65705
     127 ->129         0.13991

 Excited state symmetry could not be determined.
 Excited State   4:      Singlet-?Sym    3.7229 eV  333.03 nm  f=0.2067  <S**2>=0.000
     125 ->128        -0.33076
     126 ->128         0.59414
     127 ->128        -0.14902

 Alpha  occ. eigenvalues --  -88.81996 -19.24385 -19.18653 -19.17813 -14.40210
 Alpha  occ. eigenvalues --  -14.38288 -14.37630 -14.33866 -10.30551 -10.29931
 Alpha  occ. eigenvalues --  -10.26698 -10.25827 -10.25794 -10.24991 -10.24821
 Alpha  occ. eigenvalues --  -10.24763 -10.24195 -10.23170 -10.21834 -10.20730
 Alpha  occ. eigenvalues --  -10.20280 -10.20263 -10.20079 -10.19805 -10.19632
 Alpha  occ. eigenvalues --  -10.19582 -10.19497 -10.19484 -10.19470 -10.19416
 Alpha  occ. eigenvalues --  -10.19398 -10.19258 -10.18866 -10.18360 -10.18252
 Alpha  occ. eigenvalues --   -7.88235  -5.84790  -5.84208  -5.83816  -1.15900
 Alpha  occ. eigenvalues --   -1.07276  -1.06416  -1.01706  -0.94222  -0.93760
 Alpha  occ. eigenvalues --   -0.88584  -0.85872  -0.85644  -0.85124  -0.82505
 Alpha  occ. eigenvalues --   -0.77566  -0.76295  -0.75862  -0.75737  -0.75594
 Alpha  occ. eigenvalues --   -0.74929  -0.73603  -0.72863  -0.70682  -0.69591
 Alpha  occ. eigenvalues --   -0.67095  -0.64938  -0.64512  -0.63273  -0.62317
 Alpha  occ. eigenvalues --   -0.61152  -0.60503  -0.59400  -0.58738  -0.58417
 Alpha  occ. eigenvalues --   -0.56047  -0.54413  -0.54196  -0.53350  -0.51511
 Alpha  occ. eigenvalues --   -0.50530  -0.49903  -0.49160  -0.48746  -0.48587
 Alpha  occ. eigenvalues --   -0.47557  -0.47413  -0.46930  -0.46837  -0.46349
 Alpha  occ. eigenvalues --   -0.45883  -0.45780  -0.45390  -0.43949  -0.43626
 Alpha  occ. eigenvalues --   -0.43383  -0.42423  -0.42357  -0.42157  -0.42093
 Alpha  occ. eigenvalues --   -0.41532  -0.40861  -0.39893  -0.39488  -0.39248
 Alpha  occ. eigenvalues --   -0.38262  -0.37978  -0.37265  -0.37222  -0.36659
 Alpha  occ. eigenvalues --   -0.36161  -0.35912  -0.35617  -0.34860  -0.33831
 Alpha  occ. eigenvalues --   -0.33556  -0.33295  -0.32908  -0.32667  -0.32613
 Alpha  occ. eigenvalues --   -0.31685  -0.29834  -0.29160  -0.26224  -0.25450
 Alpha  occ. eigenvalues --   -0.24896  -0.24655  -0.23657  -0.22762  -0.22030
 Alpha  occ. eigenvalues --   -0.21278  -0.20052
 Alpha virt. eigenvalues --   -0.06091  -0.03486  -0.01181  -0.01047  -0.00371
 Alpha virt. eigenvalues --   -0.00201   0.00895   0.01128   0.05768   0.07320
 Alpha virt. eigenvalues --    0.07793   0.08382   0.08745   0.09616   0.10043

 Mulliken charges:
               1
     1  C   -0.218981
     2  O   -0.505419
     3  C    0.391420
     4  C   -0.186052
     5  C   -0.134989
     6  C    0.227632
     7  N   -0.581208
     8  C    0.331188
     9  S   -0.279751
    10  N   -0.563681
    11  C   -0.141160
    12  C    0.169324
    13  C   -0.202034
    14  C   -0.141087
    15  C   -0.193042
    16  C    0.379771
    17  O   -0.505645
    18  C   -0.215197
    19  C   -0.239937
    20  C    0.008463
    21  C    0.571263
    22  N   -0.563523
    23  C    0.394737
    24  C    0.100932
    25  C   -0.166764
    26  C   -0.138755
    27  C   -0.120162
    28  C   -0.135757
    29  C   -0.169997
    30  N   -0.220024
    31  O   -0.408534
    32  C    0.327795
    33  C   -0.532918
    34  C   -0.109964
    35  C   -0.210903
    36  H    0.159188
    37  H    0.153672
    38  H    0.173868
    39  H    0.146837
    40  H    0.148389
    41  H    0.357823
    42  H    0.191731
    43  H    0.156064
    44  H    0.134438
    45  H    0.132003
    46  H    0.171138
    47  H    0.151749
    48  H    0.152308
    49  H    0.162373
    50  H    0.161931
    51  H    0.135685
    52  H    0.133909
    53  H    0.135089
    54  H    0.158790
    55  H    0.176011
    56  H    0.187449
    57  H    0.207543
    58  H    0.154027
    59  H    0.140945
 Sum of Mulliken charges =  -0.00000

 Dipole moment (field-independent basis, Debye):
    X=              0.7720    Y=              0.0871    Z=             -2.0789  Tot=              2.2193
 Quadrupole moment (field-independent basis, Debye-Ang):
   XX=           -193.7779   YY=           -176.7244   ZZ=           -207.8823
   XY=             25.3713   XZ=             18.8337   YZ=             -1.1640

 Normal termination of Gaussian 16 at Sat Nov  5 09:46:18 2022.
