 Gaussian 16, Revision B.01,
 Gaussian 16:  ES64L-G16RevB.01 20-Dec-2017

 -----------------------------
 #p b3lyp/6-31g(d) opt SCF=XQC
 -----------------------------

 ------------------------------
 Gaussian input prepared by ASE
 ------------------------------
 Symbolic Z-matrix:
 Charge =  0 Multiplicity = 1

 SCF Done:  E(RB3LYP) =  -1886.13435600     A.U. after   15 cycles
 SCF Done:  E(RB3LYP) =  -1886.14445272     A.U. after   13 cycles
 SCF Done:  E(RB3LYP) =  -1886.14573439     A.U. after   12 cycles
 SCF Done:  E(RB3LYP) =  -1886.14629966     A.U. after   12 cycles
 SCF Done:  E(RB3LYP) =  -1886.14649836     A.U. after   12 cycles
 SCF Done:  E(RB3LYP) =  -1886.14660205     A.U. after   11 cycles
 SCF Done:  E(RB3LYP) =  -1886.14672042     A.U. after   12 cycles
 SCF Done:  E(RB3LYP) =  -1886.14675999     A.U. after   12 cycles
 SCF Done:  E(RB3LYP) =  -1886.14681693     A.U. after   10 cycles
 SCF Done:  E(RB3LYP) =  -1886.14695712     A.U. after   12 cycles
 SCF Done:  E(RB3LYP) =  -1886.14714912     A.U. after   12 cycles
 SCF Done:  E(RB3LYP) =  -1886.14717542     A.U. after   12 cycles
 SCF Done:  E(RB3LYP) =  -1886.14718337     A.U. after   11 cycles
 SCF Done:  E(RB3LYP) =  -1886.14718771     A.U. after   10 cycles
 SCF Done:  E(RB3LYP) =  -1886.14718052     A.U. after   11 cycles
 SCF Done:  E(RB3LYP) =  -1886.14718894     A.U. after   11 cycles
 SCF Done:  E(RB3LYP) =  -1886.14718904     A.U. after    7 cycles
 SCF Done:  E(RB3LYP) =  -1886.14718897     A.U. after    9 cycles
 SCF Done:  E(RB3LYP) =  -1886.14718905     A.U. after    9 cycles
 SCF Done:  E(RB3LYP) =  -1886.14718905     A.U. after    6 cycles
 Optimization completed.
    -- Stationary point found.

                         Standard orientation:
 ---------------------------------------------------------------------
 Center     Atomic      Atomic             Coordinates (Angstroms)
 Number     Number       Type             X           Y           Z
 ---------------------------------------------------------------------
      1          6           0       -8.225162   -1.771918   -1.168263
      2          8           0       -7.217890   -0.925595   -1.703048
      3          6           0       -6.028966   -0.837583   -1.044759
      4          6           0       -5.085710    0.034679   -1.608463
      5          6           0       -3.842492    0.195869   -1.011017
      6          6           0       -3.522995   -0.513021    0.151135
      7          7           0       -2.208523   -0.349485    0.731524
      8          6           0       -2.062818    0.450804    1.867286
      9         16           0       -3.346404    1.043565    2.768619
     10          7           0       -0.779466    0.695365    2.222839
     11          6           0        0.358976    0.623322    1.310158
     12          6           0        0.580106    1.916402    0.511568
     13          6           0       -0.484861    2.760796    0.158263
     14          6           0       -0.234420    3.908670   -0.589093
     15          6           0        1.059493    4.242505   -0.997300
     16          6           0        2.121373    3.405681   -0.636174
     17          8           0        3.429068    3.626908   -0.960238
     18          6           0        3.746533    4.780433   -1.721986
     19          6           0        1.876460    2.250454    0.119251
     20          6           0        0.154556   -0.601224    0.426687
     21          6           0        1.380115   -1.238206   -0.014207
     22          7           0        2.577545   -1.012615    0.472992
     23          6           0        3.383503   -1.841081   -0.273487
     24          6           0        4.837093   -1.938487   -0.075911
     25          6           0        5.615244   -2.773815   -0.893021
     26          6           0        6.990384   -2.858127   -0.694634
     27          6           0        7.602513   -2.112778    0.317308
     28          6           0        6.831454   -1.281594    1.131630
     29          6           0        5.453756   -1.193015    0.938199
     30          7           0        2.743088   -2.546707   -1.180495
     31          8           0        1.405273   -2.142591   -1.020361
     32          6           0       -1.111644   -1.017221    0.142930
     33          6           0       -1.467040   -2.188131   -0.735914
     34          6           0       -4.457223   -1.380242    0.711714
     35          6           0       -5.709835   -1.547288    0.121053
     36          1           0       -8.519487   -1.458504   -0.158370
     37          1           0       -7.898876   -2.819880   -1.141691
     38          1           0       -9.080432   -1.677880   -1.839516
     39          1           0       -5.352602    0.578390   -2.508805
     40          1           0       -3.114041    0.878968   -1.438717
     41          1           0       -0.695149    1.301829    3.028825
     42          1           0        1.247708    0.448756    1.921612
     43          1           0       -1.497259    2.547202    0.483876
     44          1           0       -1.058728    4.564895   -0.855953
     45          1           0        1.225656    5.143864   -1.575866
     46          1           0        4.828358    4.755749   -1.865150
     47          1           0        3.472046    5.702989   -1.193140
     48          1           0        3.251426    4.766830   -2.702115
     49          1           0        2.717123    1.617609    0.383493
     50          1           0        5.134227   -3.349033   -1.677675
     51          1           0        7.586992   -3.506070   -1.330903
     52          1           0        8.676422   -2.180598    0.469305
     53          1           0        7.302547   -0.700613    1.919762
     54          1           0        4.845326   -0.552071    1.567219
     55          1           0       -2.276160   -2.769696   -0.287204
     56          1           0       -1.820473   -1.849381   -1.716673
     57          1           0       -0.606863   -2.832742   -0.897078
     58          1           0       -4.211878   -1.916651    1.622213
     59          1           0       -6.423912   -2.221986    0.578094
 ---------------------------------------------------------------------

 The electronic state is 1-A.
 Alpha  occ. eigenvalues --  -88.81996 -19.24385 -19.18653 -19.17813 -14.40210
 Alpha  occ. eigenvalues --  -14.38288 -14.37630 -14.33866 -10.30551 -10.29931
 Alpha  occ. eigenvalues --  -10.26698 -10.25827 -10.25794 -10.24991 -10.24821
 Alpha  occ. eigenvalues --  -10.24763 -10.24195 -10.23170 -10.21834 -10.20730
 Alpha  occ. eigenvalues --  -10.20280 -10.20263 -10.20079 -10.19805 -10.19632
 Alpha  occ. eigenvalues --  -10.19583 -10.19497 -10.19484 -10.19470 -10.19416
 Alpha  occ. eigenvalues --  -10.19398 -10.19258 -10.18866 -10.18360 -10.18252
 Alpha  occ. eigenvalues --   -7.88235  -5.84790  -5.84208  -5.83815  -1.15900
 Alpha  occ. eigenvalues --   -1.07276  -1.06416  -1.01706  -0.94221  -0.93760
 Alpha  occ. eigenvalues --   -0.88584  -0.85872  -0.85644  -0.85124  -0.82505
 Alpha  occ. eigenvalues --   -0.77566  -0.76296  -0.75862  -0.75737  -0.75594
 Alpha  occ. eigenvalues --   -0.74929  -0.73603  -0.72863  -0.70682  -0.69591
 Alpha  occ. eigenvalues --   -0.67095  -0.64938  -0.64512  -0.63273  -0.62317
 Alpha  occ. eigenvalues --   -0.61152  -0.60503  -0.59400  -0.58738  -0.58417
 Alpha  occ. eigenvalues --   -0.56047  -0.54413  -0.54196  -0.53350  -0.51511
 Alpha  occ. eigenvalues --   -0.50530  -0.49903  -0.49160  -0.48746  -0.48587
 Alpha  occ. eigenvalues --   -0.47557  -0.47413  -0.46930  -0.46837  -0.46349
 Alpha  occ. eigenvalues --   -0.45883  -0.45780  -0.45390  -0.43949  -0.43626
 Alpha  occ. eigenvalues --   -0.43383  -0.42423  -0.42357  -0.42157  -0.42093
 Alpha  occ. eigenvalues --   -0.41532  -0.40861  -0.39893  -0.39488  -0.39248
 Alpha  occ. eigenvalues --   -0.38262  -0.37978  -0.37265  -0.37222  -0.36659
 Alpha  occ. eigenvalues --   -0.36161  -0.35912  -0.35617  -0.34860  -0.33831
 Alpha  occ. eigenvalues --   -0.33556  -0.33295  -0.32908  -0.32667  -0.32613
 Alpha  occ. eigenvalues --   -0.31685  -0.29834  -0.29160  -0.26224  -0.25450
 Alpha  occ. eigenvalues --   -0.24896  -0.24655  -0.23657  -0.22762  -0.22030
 Alpha  occ. eigenvalues --   -0.21278  -0.20052
 Alpha virt. eigenvalues --   -0.06091  -0.03486  -0.01181  -0.01047  -0.00371
 Alpha virt. eigenvalues --   -0.00201   0.00895   0.01128   0.05768   0.07320
 Alpha virt. eigenvalues --    0.07793   0.08382   0.08745   0.09616   0.10043

 Mulliken charges:
               1
     1  C   -0.218975
     2  O   -0.505428
     3  C    0.391439
     4  C   -0.186047
     5  C   -0.134996
     6  C    0.227633
     7  N   -0.581196
     8  C    0.331163
     9  S   -0.279736
    10  N   -0.563664
    11  C   -0.141194
    12  C    0.169336
    13  C   -0.202043
    14  C   -0.141083
    15  C   -0.193028
    16  C    0.379747
    17  O   -0.505642
    18  C   -0.215197
    19  C   -0.239928
    20  C    0.008458
    21  C    0.571270
    22  N   -0.563527
    23  C    0.394741
    24  C    0.100931
    25  C   -0.166766
    26  C   -0.138754
    27  C   -0.120164
    28  C   -0.135755
    29  C   -0.169994
    30  N   -0.220022
    31  O   -0.408533
    32  C    0.327821
    33  C   -0.532939
    34  C   -0.109972
    35  C   -0.210915
    36  H    0.159186
    37  H    0.153671
    38  H    0.173867
    39  H    0.146837
    40  H    0.148386
    41  H    0.357822
    42  H    0.191733
    43  H    0.156064
    44  H    0.134438
    45  H    0.132002
    46  H    0.171137
    47  H    0.151748
    48  H    0.152307
    49  H    0.162374
    50  H    0.161932
    51  H    0.135685
    52  H    0.133909
    53  H    0.135090
    54  H    0.158787
    55  H    0.176016
    56  H    0.187452
    57  H    0.207546
    58  H    0.154023
    59  H    0.140946
 Sum of Mulliken charges =  -0.00000

 Dipole moment (field-independent basis, Debye):
    X=              0.3609    Y=             -0.0754    Z=             -2.1885  Tot=              2.2193
 Quadrupole moment (field-independent basis, Debye-Ang):
   XX=           -171.8322   YY=           -192.4459   ZZ=           -213.2132
   XY=             23.4025   XZ=             11.3795   YZ=            -10.8647

 Normal termination of Gaussian 16 at Fri Nov  4 23:15:30 2022.
