 Gaussian 16, Revision B.01,
 Gaussian 16:  ES64L-G16RevB.01 20-Dec-2017

 -----------------------------
 #p b3lyp/6-31g(d) opt SCF=XQC
 -----------------------------

 ------------------------------
 Gaussian input prepared by ASE
 ------------------------------
 Symbolic Z-matrix:
 Charge =  0 Multiplicity = 1

 SCF Done:  E(RB3LYP) =  -1603.16705641     A.U. after   16 cycles
 SCF Done:  E(RB3LYP) =  -1603.17056749     A.U. after   13 cycles
 SCF Done:  E(RB3LYP) =  -1603.17065513     A.U. after   14 cycles
 SCF Done:  E(RB3LYP) =  -1603.17375322     A.U. after   12 cycles
 SCF Done:  E(RB3LYP) =  -1603.17447597     A.U. after   13 cycles
 SCF Done:  E(RB3LYP) =  -1603.17487256     A.U. after   12 cycles
 SCF Done:  E(RB3LYP) =  -1603.17491920     A.U. after   10 cycles
 SCF Done:  E(RB3LYP) =  -1603.17496164     A.U. after   11 cycles
 SCF Done:  E(RB3LYP) =  -1603.17498167     A.U. after   10 cycles
 SCF Done:  E(RB3LYP) =  -1603.17499690     A.U. after   10 cycles
 SCF Done:  E(RB3LYP) =  -1603.17500603     A.U. after   10 cycles
 SCF Done:  E(RB3LYP) =  -1603.17500753     A.U. after    8 cycles
 SCF Done:  E(RB3LYP) =  -1603.17500772     A.U. after    7 cycles
 Optimization completed.
    -- Stationary point found.

                         Standard orientation:
 ---------------------------------------------------------------------
 Center     Atomic      Atomic             Coordinates (Angstroms)
 Number     Number       Type             X           Y           Z
 ---------------------------------------------------------------------
      1          6           0        4.833590    3.180468    2.088656
      2          6           0        3.991887    2.607398    0.954441
      3          8           0        4.166881    1.189487    0.817845
      4          6           0        5.100532    0.685232   -0.019270
      5          6           0        6.160205    1.430385   -0.555817
      6          6           0        7.133709    0.813307   -1.339061
      7          6           0        7.089020   -0.560907   -1.580912
      8          6           0        6.042792   -1.303413   -1.046363
      9          6           0        5.010197   -0.702144   -0.304035
     10          6           0        3.938728   -1.571075    0.188080
     11          6           0        2.602186   -1.374401    0.236193
     12         16           0        1.527600   -2.621239    0.990137
     13          6           0        0.132858   -1.660915    0.551386
     14          7           0       -1.159348   -1.769234    0.698082
     15          6           0       -1.617495   -0.610310    0.074438
     16          6           0       -3.044335   -0.288563   -0.010590
     17          6           0       -4.000076   -1.147092    0.552210
     18          6           0       -5.353488   -0.840187    0.470694
     19          6           0       -5.812904    0.324585   -0.169278
     20          6           0       -7.321354    0.621916   -0.235010
     21          6           0       -7.628843    1.938456   -0.973485
     22          6           0       -7.886757    0.732152    1.201353
     23          6           0       -8.039911   -0.527889   -0.981104
     24          6           0       -4.843144    1.172271   -0.727011
     25          6           0       -3.484090    0.876419   -0.652121
     26          7           0       -0.670872    0.173620   -0.432950
     27          7           0        0.462972   -0.514513   -0.112909
     28          6           0        1.823341   -0.253265   -0.377678
     29          8           0        2.231416    0.683436   -1.025706
     30          1           0        4.610102    4.245987    2.216719
     31          1           0        5.906243    3.076116    1.897340
     32          1           0        4.604680    2.666556    3.027730
     33          1           0        2.926796    2.729709    1.167594
     34          1           0        4.192563    3.100748   -0.002674
     35          1           0        6.238989    2.491090   -0.349807
     36          1           0        7.944946    1.412738   -1.743436
     37          1           0        7.858945   -1.044914   -2.173555
     38          1           0        5.990966   -2.374088   -1.229646
     39          1           0        4.285774   -2.546581    0.532643
     40          1           0       -3.669032   -2.052158    1.050689
     41          1           0       -6.066409   -1.527410    0.917663
     42          1           0       -7.279154    1.915545   -2.011851
     43          1           0       -7.171322    2.801659   -0.476887
     44          1           0       -8.711721    2.105205   -0.993694
     45          1           0       -8.963931    0.937356    1.171705
     46          1           0       -7.400730    1.545200    1.752581
     47          1           0       -7.739146   -0.191716    1.770164
     48          1           0       -9.118384   -0.333761   -1.031088
     49          1           0       -7.897662   -1.491166   -0.480356
     50          1           0       -7.664017   -0.625319   -2.005934
     51          1           0       -5.141625    2.083736   -1.232664
     52          1           0       -2.753999    1.548233   -1.092398
 ---------------------------------------------------------------------

 The electronic state is 1-A.
 Alpha  occ. eigenvalues --  -88.92472 -19.18172 -19.14907 -14.42997 -14.36132
 Alpha  occ. eigenvalues --  -14.33681 -10.32276 -10.29365 -10.26391 -10.25399
 Alpha  occ. eigenvalues --  -10.25102 -10.24679 -10.23420 -10.21226 -10.20464
 Alpha  occ. eigenvalues --  -10.20425 -10.20295 -10.19709 -10.19551 -10.19375
 Alpha  occ. eigenvalues --  -10.19322 -10.18872 -10.18518 -10.18505 -10.18296
 Alpha  occ. eigenvalues --  -10.18271 -10.17304 -10.17300 -10.17291  -7.98576
 Alpha  occ. eigenvalues --   -5.95055  -5.94728  -5.94069  -1.09867  -1.07078
 Alpha  occ. eigenvalues --   -1.04973  -0.91821  -0.89621  -0.86738  -0.85693
 Alpha  occ. eigenvalues --   -0.82447  -0.81031  -0.78376  -0.77305  -0.74813
 Alpha  occ. eigenvalues --   -0.74448  -0.73986  -0.72971  -0.68361  -0.68252
 Alpha  occ. eigenvalues --   -0.68205  -0.65474  -0.63549  -0.62471  -0.61316
 Alpha  occ. eigenvalues --   -0.60149  -0.59363  -0.57517  -0.56115  -0.54384
 Alpha  occ. eigenvalues --   -0.53653  -0.50771  -0.50535  -0.49776  -0.49117
 Alpha  occ. eigenvalues --   -0.47389  -0.46857  -0.46181  -0.45825  -0.44977
 Alpha  occ. eigenvalues --   -0.44683  -0.44492  -0.43643  -0.43626  -0.43141
 Alpha  occ. eigenvalues --   -0.42212  -0.41632  -0.41150  -0.41075  -0.40572
 Alpha  occ. eigenvalues --   -0.39261  -0.39234  -0.38828  -0.38165  -0.37875
 Alpha  occ. eigenvalues --   -0.37278  -0.37136  -0.36453  -0.36177  -0.35991
 Alpha  occ. eigenvalues --   -0.34967  -0.34765  -0.33459  -0.33306  -0.33074
 Alpha  occ. eigenvalues --   -0.32006  -0.31756  -0.31410  -0.30445  -0.29879
 Alpha  occ. eigenvalues --   -0.28947  -0.27529  -0.26422  -0.24553  -0.24018
 Alpha  occ. eigenvalues --   -0.22122  -0.21889
 Alpha virt. eigenvalues --   -0.08462  -0.02931  -0.01277  -0.00252   0.00168
 Alpha virt. eigenvalues --    0.00536   0.02312   0.06533   0.07501   0.08207
 Alpha virt. eigenvalues --    0.08363   0.08390   0.10149   0.11469   0.11880

 Mulliken charges:
               1
     1  C   -0.463813
     2  C   -0.039891
     3  O   -0.520143
     4  C    0.375348
     5  C   -0.190301
     6  C   -0.129472
     7  C   -0.133766
     8  C   -0.185051
     9  C    0.109543
    10  C   -0.222519
    11  C   -0.160574
    12  S    0.249734
    13  C    0.340150
    14  N   -0.547009
    15  C    0.393092
    16  C    0.112808
    17  C   -0.176077
    18  C   -0.196263
    19  C    0.187808
    20  C    0.015640
    21  C   -0.457422
    22  C   -0.439057
    23  C   -0.439109
    24  C   -0.204098
    25  C   -0.175715
    26  N   -0.344728
    27  N   -0.347667
    28  C    0.653262
    29  O   -0.453624
    30  H    0.152399
    31  H    0.158424
    32  H    0.165876
    33  H    0.168038
    34  H    0.156143
    35  H    0.141401
    36  H    0.138100
    37  H    0.134302
    38  H    0.136149
    39  H    0.165180
    40  H    0.159642
    41  H    0.127126
    42  H    0.146836
    43  H    0.146320
    44  H    0.141395
    45  H    0.138730
    46  H    0.148245
    47  H    0.144062
    48  H    0.138693
    49  H    0.144093
    50  H    0.148788
    51  H    0.129277
    52  H    0.159695
 Sum of Mulliken charges =  -0.00000

 Dipole moment (field-independent basis, Debye):
    X=              2.5788    Y=              0.8131    Z=              0.8444  Tot=              2.8327
 Quadrupole moment (field-independent basis, Debye-Ang):
   XX=           -136.2464   YY=           -164.4809   ZZ=           -178.2965
   XY=             -0.0906   XZ=             -0.2339   YZ=              3.0563

 Normal termination of Gaussian 16 at Fri Nov  4 22:36:27 2022.
