 Gaussian 16, Revision B.01,
 Gaussian 16:  ES64L-G16RevB.01 20-Dec-2017

 -------------------------------------------------------------------
 #p b3lyp/6-31g(d) 6D 10F nosymm GFInput td=(50-50,nstate=2) SCF=XQC
 -------------------------------------------------------------------

 ------------------------------
 Gaussian input prepared by ASE
 ------------------------------
 Symbolic Z-matrix:
 Charge =  0 Multiplicity = 1

                          Input orientation:
 ---------------------------------------------------------------------
 Center     Atomic      Atomic             Coordinates (Angstroms)
 Number     Number       Type             X           Y           Z
 ---------------------------------------------------------------------
      1          6           0        6.107936    2.069207   -0.712931
      2          6           0        5.005623    1.059581   -1.011057
      3          8           0        4.947674    0.019086   -0.024261
      4          6           0        5.636382   -1.131788   -0.191317
      5          6           0        6.680812   -1.296550   -1.112220
      6          6           0        7.401582   -2.488308   -1.158777
      7          6           0        7.117443   -3.528776   -0.272413
      8          6           0        6.086133   -3.366873    0.645106
      9          6           0        5.298326   -2.201907    0.677377
     10          6           0        4.216740   -2.145819    1.663423
     11          6           0        2.952165   -1.681083    1.552914
     12         16           0        1.859327   -1.670718    2.996302
     13          6           0        0.562140   -1.067715    1.989464
     14          7           0       -0.685793   -0.733806    2.174441
     15          6           0       -1.075045   -0.354643    0.891221
     16          6           0       -2.433029    0.111694    0.599615
     17          6           0       -3.387956    0.200230    1.623106
     18          6           0       -4.675960    0.643019    1.344642
     19          6           0       -5.068487    1.014124    0.046365
     20          6           0       -6.506046    1.497804   -0.213687
     21          6           0       -6.746168    1.857863   -1.692156
     22          6           0       -6.787169    2.757354    0.640406
     23          6           0       -7.503014    0.380803    0.177970
     24          6           0       -4.100578    0.919256   -0.965675
     25          6           0       -2.806657    0.477302   -0.699947
     26          7           0       -0.129961   -0.447515   -0.039518
     27          7           0        0.931441   -0.906048    0.684864
     28          6           0        2.246931   -1.245641    0.306552
     29          8           0        2.664809   -1.222786   -0.828670
     30          1           0        6.066402    2.890828   -1.437425
     31          1           0        7.103582    1.617394   -0.764218
     32          1           0        5.976780    2.488785    0.289625
     33          1           0        4.023782    1.537195   -0.959240
     34          1           0        5.103141    0.620061   -2.009579
     35          1           0        6.946666   -0.489259   -1.784042
     36          1           0        8.206449   -2.591342   -1.881630
     37          1           0        7.692799   -4.448959   -0.294848
     38          1           0        5.849103   -4.169845    1.339134
     39          1           0        4.474971   -2.589403    2.626402
     40          1           0       -3.107992   -0.081337    2.632837
     41          1           0       -5.390224    0.699410    2.161319
     42          1           0       -6.592258    0.996797   -2.352373
     43          1           0       -6.088691    2.668183   -2.027060
     44          1           0       -7.780118    2.195379   -1.825826
     45          1           0       -7.811693    3.111002    0.471362
     46          1           0       -6.099516    3.569703    0.378973
     47          1           0       -6.676109    2.557578    1.711211
     48          1           0       -8.533988    0.712698    0.004111
     49          1           0       -7.414865    0.106972    1.234442
     50          1           0       -7.331932   -0.523522   -0.417003
     51          1           0       -4.349179    1.192168   -1.985117
     52          1           0       -2.076714    0.412165   -1.500666
 ---------------------------------------------------------------------

 SCF Done:  E(RB3LYP) =  -1603.17500778     A.U. after   16 cycles

 Excitation energies and oscillator strengths:

 Excited state symmetry could not be determined.
 Excited State   1:      Triplet-?Sym    2.2307 eV  555.81 nm  f=0.0000  <S**2>=2.000
      99 ->108         0.10385
     105 ->108         0.23677
     106 ->108         0.16825
     107 ->108         0.60986
 This state for optimization and/or second-order correction.
 Total Energy, E(TD-HF/TD-DFT) =  -1603.09303088
 Copying the excited state density for this state as the 1-particle RhoCI density.

 Excited state symmetry could not be determined.
 Excited State   2:      Triplet-?Sym    2.6915 eV  460.64 nm  f=0.0000  <S**2>=2.000
     103 ->108        -0.10161
     106 ->108         0.60539
     106 ->109         0.16660
     107 ->108        -0.15365
     107 ->109        -0.19731

 Excited state symmetry could not be determined.
 Excited State   3:      Singlet-?Sym    3.1208 eV  397.28 nm  f=0.2353  <S**2>=0.000
     105 ->108        -0.11891
     106 ->108         0.36099
     107 ->108         0.58987

 Excited state symmetry could not be determined.
 Excited State   4:      Singlet-?Sym    3.2084 eV  386.44 nm  f=0.1076  <S**2>=0.000
     105 ->108        -0.10531
     106 ->108         0.58258
     107 ->108        -0.37118

 Alpha  occ. eigenvalues --  -88.92472 -19.18172 -19.14908 -14.42997 -14.36132
 Alpha  occ. eigenvalues --  -14.33681 -10.32276 -10.29365 -10.26391 -10.25399
 Alpha  occ. eigenvalues --  -10.25102 -10.24679 -10.23420 -10.21226 -10.20464
 Alpha  occ. eigenvalues --  -10.20425 -10.20295 -10.19709 -10.19551 -10.19375
 Alpha  occ. eigenvalues --  -10.19322 -10.18872 -10.18518 -10.18505 -10.18296
 Alpha  occ. eigenvalues --  -10.18270 -10.17304 -10.17300 -10.17290  -7.98576
 Alpha  occ. eigenvalues --   -5.95054  -5.94728  -5.94069  -1.09867  -1.07078
 Alpha  occ. eigenvalues --   -1.04974  -0.91821  -0.89621  -0.86738  -0.85693
 Alpha  occ. eigenvalues --   -0.82447  -0.81031  -0.78376  -0.77305  -0.74813
 Alpha  occ. eigenvalues --   -0.74448  -0.73987  -0.72971  -0.68361  -0.68252
 Alpha  occ. eigenvalues --   -0.68205  -0.65474  -0.63549  -0.62471  -0.61316
 Alpha  occ. eigenvalues --   -0.60149  -0.59363  -0.57517  -0.56115  -0.54384
 Alpha  occ. eigenvalues --   -0.53653  -0.50771  -0.50535  -0.49776  -0.49117
 Alpha  occ. eigenvalues --   -0.47389  -0.46857  -0.46181  -0.45825  -0.44977
 Alpha  occ. eigenvalues --   -0.44683  -0.44492  -0.43643  -0.43626  -0.43141
 Alpha  occ. eigenvalues --   -0.42212  -0.41632  -0.41150  -0.41075  -0.40572
 Alpha  occ. eigenvalues --   -0.39261  -0.39234  -0.38828  -0.38165  -0.37875
 Alpha  occ. eigenvalues --   -0.37278  -0.37136  -0.36453  -0.36177  -0.35991
 Alpha  occ. eigenvalues --   -0.34967  -0.34765  -0.33459  -0.33306  -0.33074
 Alpha  occ. eigenvalues --   -0.32006  -0.31756  -0.31410  -0.30445  -0.29879
 Alpha  occ. eigenvalues --   -0.28947  -0.27529  -0.26422  -0.24553  -0.24018
 Alpha  occ. eigenvalues --   -0.22122  -0.21889
 Alpha virt. eigenvalues --   -0.08462  -0.02931  -0.01277  -0.00252   0.00168
 Alpha virt. eigenvalues --    0.00536   0.02312   0.06533   0.07501   0.08207
 Alpha virt. eigenvalues --    0.08363   0.08390   0.10149   0.11469   0.11880

 Mulliken charges:
               1
     1  C   -0.463819
     2  C   -0.039885
     3  O   -0.520134
     4  C    0.375339
     5  C   -0.190301
     6  C   -0.129472
     7  C   -0.133764
     8  C   -0.185052
     9  C    0.109550
    10  C   -0.222525
    11  C   -0.160573
    12  S    0.249739
    13  C    0.340141
    14  N   -0.547008
    15  C    0.393099
    16  C    0.112822
    17  C   -0.176087
    18  C   -0.196267
    19  C    0.187820
    20  C    0.015635
    21  C   -0.457417
    22  C   -0.439053
    23  C   -0.439107
    24  C   -0.204101
    25  C   -0.175724
    26  N   -0.344734
    27  N   -0.347664
    28  C    0.653254
    29  O   -0.453618
    30  H    0.152400
    31  H    0.158426
    32  H    0.165877
    33  H    0.168036
    34  H    0.156141
    35  H    0.141400
    36  H    0.138099
    37  H    0.134301
    38  H    0.136149
    39  H    0.165179
    40  H    0.159643
    41  H    0.127128
    42  H    0.146835
    43  H    0.146320
    44  H    0.141395
    45  H    0.138730
    46  H    0.148243
    47  H    0.144061
    48  H    0.138692
    49  H    0.144093
    50  H    0.148787
    51  H    0.129276
    52  H    0.159695
 Sum of Mulliken charges =  -0.00000

 Dipole moment (field-independent basis, Debye):
    X=              2.7771    Y=              0.5523    Z=             -0.0825  Tot=              2.8327
 Quadrupole moment (field-independent basis, Debye-Ang):
   XX=           -134.9011   YY=           -168.0142   ZZ=           -173.4096
   XY=             -8.3743   XZ=             -0.9648   YZ=             -6.7981

 Normal termination of Gaussian 16 at Sat Nov  5 10:00:30 2022.
