 Gaussian 16, Revision B.01,
 Gaussian 16:  ES64L-G16RevB.01 20-Dec-2017

 -----------------------------
 #p b3lyp/6-31g(d) opt SCF=XQC
 -----------------------------

 ------------------------------
 Gaussian input prepared by ASE
 ------------------------------
 Symbolic Z-matrix:
 Charge =  0 Multiplicity = 1

 SCF Done:  E(RB3LYP) =  -1431.28885772     A.U. after   15 cycles
 SCF Done:  E(RB3LYP) =  -1431.29722982     A.U. after   13 cycles
 SCF Done:  E(RB3LYP) =  -1431.29786806     A.U. after   11 cycles
 SCF Done:  E(RB3LYP) =  -1431.29801183     A.U. after   12 cycles
 SCF Done:  E(RB3LYP) =  -1431.29803535     A.U. after    9 cycles
 SCF Done:  E(RB3LYP) =  -1431.29804935     A.U. after    9 cycles
 SCF Done:  E(RB3LYP) =  -1431.29805450     A.U. after    9 cycles
 SCF Done:  E(RB3LYP) =  -1431.29806063     A.U. after    9 cycles
 SCF Done:  E(RB3LYP) =  -1431.29806398     A.U. after   10 cycles
 SCF Done:  E(RB3LYP) =  -1431.29806461     A.U. after    9 cycles
 SCF Done:  E(RB3LYP) =  -1431.29806471     A.U. after    7 cycles
 SCF Done:  E(RB3LYP) =  -1431.29806482     A.U. after    7 cycles
 SCF Done:  E(RB3LYP) =  -1431.29806488     A.U. after    7 cycles
 SCF Done:  E(RB3LYP) =  -1431.29806491     A.U. after    7 cycles
 SCF Done:  E(RB3LYP) =  -1431.29806494     A.U. after    7 cycles
 SCF Done:  E(RB3LYP) =  -1431.29806496     A.U. after    6 cycles
 SCF Done:  E(RB3LYP) =  -1431.29806498     A.U. after    6 cycles
 Optimization completed.
    -- Stationary point found.

                         Standard orientation:
 ---------------------------------------------------------------------
 Center     Atomic      Atomic             Coordinates (Angstroms)
 Number     Number       Type             X           Y           Z
 ---------------------------------------------------------------------
      1          6           0        0.517434   -3.469418    0.557571
      2          6           0       -0.532343   -2.434630    0.319092
      3          6           0       -1.852494   -2.421655    0.694052
      4          6           0       -2.676901   -3.404762    1.455189
      5          7           0       -2.377638   -1.226200    0.191007
      6          6           0       -3.524940   -0.429400    0.092645
      7          6           0       -4.853539   -0.596578    0.572984
      8          8           0       -5.297039   -1.544283    1.219906
      9          7           0       -5.674986    0.512728    0.209679
     10          6           0       -7.078075    0.490508    0.631531
     11          6           0       -5.291157    1.646693   -0.517732
     12          8           0       -6.090771    2.539369   -0.769261
     13          7           0       -3.958583    1.705285   -0.937330
     14          6           0       -3.490981    2.860035   -1.699969
     15          6           0       -3.094308    0.680997   -0.634184
     16          7           0       -1.781875    0.639021   -0.991253
     17          6           0       -1.403771   -0.534352   -0.468958
     18          7           0       -0.257923   -1.261883   -0.415784
     19          6           0        1.025962   -0.807582   -0.938010
     20          6           0        1.736676    0.169755    0.009316
     21          6           0        3.125428    0.598276   -0.516905
     22          6           0        3.735460    1.769168    0.257301
     23          6           0        3.343103    2.117032    1.555407
     24          6           0        3.947647    3.184871    2.225459
     25          6           0        4.954032    3.924417    1.607420
     26          6           0        5.353993    3.588719    0.311314
     27          6           0        4.750483    2.522924   -0.351852
     28          6           0        4.087583   -0.590472   -0.585086
     29          6           0        4.473705   -1.129247   -1.818734
     30          6           0        5.331875   -2.230042   -1.886987
     31          6           0        5.817915   -2.810801   -0.716248
     32          6           0        5.443304   -2.280658    0.521311
     33          6           0        4.588927   -1.180770    0.584935
     34          1           0        0.862595   -3.929843   -0.377506
     35          1           0        1.399676   -3.057506    1.063393
     36          1           0        0.117855   -4.267559    1.187674
     37          1           0       -3.493919   -3.799991    0.842004
     38          1           0       -3.144253   -2.938958    2.328348
     39          1           0       -2.058181   -4.241158    1.791052
     40          1           0       -7.293033    1.353126    1.267278
     41          1           0       -7.733517    0.536076   -0.241820
     42          1           0       -7.233757   -0.436896    1.179201
     43          1           0       -3.122078    2.538421   -2.678278
     44          1           0       -4.335317    3.536522   -1.816790
     45          1           0       -2.675644    3.356272   -1.165667
     46          1           0        1.643487   -1.688646   -1.126328
     47          1           0        0.834309   -0.326093   -1.902918
     48          1           0        1.102639    1.054761    0.135651
     49          1           0        1.834436   -0.303241    0.994203
     50          1           0        2.981071    0.948388   -1.548899
     51          1           0        2.554186    1.563825    2.055899
     52          1           0        3.624109    3.437842    3.231806
     53          1           0        5.421258    4.756495    2.127084
     54          1           0        6.134880    4.159814   -0.184085
     55          1           0        5.071622    2.265146   -1.358796
     56          1           0        4.101124   -0.681466   -2.737857
     57          1           0        5.620324   -2.629299   -2.855888
     58          1           0        6.487228   -3.665383   -0.765396
     59          1           0        5.824308   -2.720371    1.439457
     60          1           0        4.323995   -0.761785    1.552600
 ---------------------------------------------------------------------

 The electronic state is 1-A.
 Alpha  occ. eigenvalues --  -19.10777 -19.10630 -14.40343 -14.39963 -14.38357
 Alpha  occ. eigenvalues --  -14.37288 -14.32281 -10.31418 -10.28866 -10.28232
 Alpha  occ. eigenvalues --  -10.25798 -10.24389 -10.23723 -10.23526 -10.21430
 Alpha  occ. eigenvalues --  -10.21298 -10.21275 -10.20861 -10.20715 -10.20348
 Alpha  occ. eigenvalues --  -10.20301 -10.19989 -10.19967 -10.19959 -10.19893
 Alpha  occ. eigenvalues --  -10.19810 -10.19738 -10.19417 -10.19386 -10.19329
 Alpha  occ. eigenvalues --  -10.19246 -10.19208 -10.19140  -1.06916  -1.05175
 Alpha  occ. eigenvalues --   -1.01985  -0.97995  -0.94796  -0.91882  -0.90369
 Alpha  occ. eigenvalues --   -0.87298  -0.85527  -0.82127  -0.80054  -0.78312
 Alpha  occ. eigenvalues --   -0.76273  -0.75322  -0.74789  -0.74659  -0.73979
 Alpha  occ. eigenvalues --   -0.71739  -0.70011  -0.69801  -0.67578  -0.64543
 Alpha  occ. eigenvalues --   -0.63381  -0.62218  -0.61564  -0.60486  -0.60394
 Alpha  occ. eigenvalues --   -0.59483  -0.58337  -0.57208  -0.53828  -0.53085
 Alpha  occ. eigenvalues --   -0.52424  -0.51570  -0.50081  -0.49801  -0.48363
 Alpha  occ. eigenvalues --   -0.48093  -0.47570  -0.46644  -0.46392  -0.45645
 Alpha  occ. eigenvalues --   -0.45268  -0.44904  -0.44093  -0.43767  -0.43459
 Alpha  occ. eigenvalues --   -0.43112  -0.42991  -0.42962  -0.42597  -0.42365
 Alpha  occ. eigenvalues --   -0.42020  -0.41703  -0.41411  -0.40619  -0.40249
 Alpha  occ. eigenvalues --   -0.39863  -0.39392  -0.38567  -0.38300  -0.37976
 Alpha  occ. eigenvalues --   -0.37654  -0.37470  -0.37146  -0.36670  -0.36238
 Alpha  occ. eigenvalues --   -0.35400  -0.34679  -0.34373  -0.33920  -0.33321
 Alpha  occ. eigenvalues --   -0.31539  -0.29684  -0.27824  -0.27361  -0.26030
 Alpha  occ. eigenvalues --   -0.25865  -0.25350  -0.25231  -0.24394  -0.24133
 Alpha  occ. eigenvalues --   -0.20763  -0.19885
 Alpha virt. eigenvalues --   -0.01616  -0.01360  -0.00616  -0.00484   0.00355
 Alpha virt. eigenvalues --    0.02206   0.04513   0.06708   0.07219   0.08191
 Alpha virt. eigenvalues --    0.08909   0.09439   0.10044   0.11374   0.11752

 Mulliken charges:
               1
     1  C   -0.539491
     2  C    0.256907
     3  C    0.251738
     4  C   -0.506053
     5  N   -0.644867
     6  C    0.213819
     7  C    0.621640
     8  O   -0.549286
     9  N   -0.568524
    10  C   -0.311458
    11  C    0.780161
    12  O   -0.532609
    13  N   -0.604919
    14  C   -0.321835
    15  C    0.480018
    16  N   -0.622228
    17  C    0.803576
    18  N   -0.589503
    19  C   -0.170319
    20  C   -0.278461
    21  C   -0.265984
    22  C    0.168975
    23  C   -0.190358
    24  C   -0.133276
    25  C   -0.127685
    26  C   -0.128819
    27  C   -0.171744
    28  C    0.179758
    29  C   -0.200456
    30  C   -0.126418
    31  C   -0.130994
    32  C   -0.130300
    33  C   -0.181865
    34  H    0.173647
    35  H    0.173221
    36  H    0.176214
    37  H    0.186694
    38  H    0.190684
    39  H    0.150349
    40  H    0.171894
    41  H    0.172133
    42  H    0.196471
    43  H    0.172797
    44  H    0.204661
    45  H    0.173170
    46  H    0.174334
    47  H    0.177339
    48  H    0.175161
    49  H    0.148594
    50  H    0.142930
    51  H    0.128076
    52  H    0.131712
    53  H    0.131133
    54  H    0.131797
    55  H    0.126745
    56  H    0.126288
    57  H    0.133250
    58  H    0.132887
    59  H    0.133551
    60  H    0.135127
 Sum of Mulliken charges =  -0.00000

 Dipole moment (field-independent basis, Debye):
    X=              6.9573    Y=             -2.4250    Z=             -0.2215  Tot=              7.3712
 Quadrupole moment (field-independent basis, Debye-Ang):
   XX=           -216.9625   YY=           -184.2220   ZZ=           -183.3632
   XY=              2.7971   XZ=             -1.2448   YZ=              2.9028

 Normal termination of Gaussian 16 at Fri Nov  4 23:00:14 2022.
