 Gaussian 16, Revision B.01,
 Gaussian 16:  ES64L-G16RevB.01 20-Dec-2017

 -------------------------------------------------------------------
 #p b3lyp/6-31g(d) 6D 10F nosymm GFInput td=(50-50,nstate=2) SCF=XQC
 -------------------------------------------------------------------

 ------------------------------
 Gaussian input prepared by ASE
 ------------------------------
 Symbolic Z-matrix:
 Charge =  0 Multiplicity = 1

                          Input orientation:
 ---------------------------------------------------------------------
 Center     Atomic      Atomic             Coordinates (Angstroms)
 Number     Number       Type             X           Y           Z
 ---------------------------------------------------------------------
      1          6           0       -0.212189    2.071948    2.717265
      2          6           0        0.856582    1.492751    1.850115
      3          6           0        2.170879    1.223430    2.139341
      4          6           0        2.968630    1.403042    3.387062
      5          7           0        2.721611    0.712092    0.959015
      6          6           0        3.882154    0.206988    0.359951
      7          6           0        5.200570   -0.005781    0.850214
      8          8           0        5.619785    0.227542    1.982983
      9          7           0        6.044098   -0.552031   -0.163391
     10          6           0        7.440065   -0.828546    0.185789
     11          6           0        5.688579   -0.863563   -1.482057
     12          8           0        6.505304   -1.331449   -2.265359
     13          7           0        4.363623   -0.614783   -1.853339
     14          6           0        3.925202   -0.916844   -3.213583
     15          6           0        3.479479   -0.087991   -0.942947
     16          7           0        2.172186    0.189791   -1.199007
     17          6           0        1.768498    0.671903   -0.016990
     18          7           0        0.611144    1.158504    0.501515
     19          6           0       -0.657603    1.193657   -0.217176
     20          6           0       -1.367948   -0.167593   -0.228816
     21          6           0       -2.741865   -0.111129   -0.934745
     22          6           0       -3.345985   -1.491538   -1.203134
     23          6           0       -2.968368   -2.642876   -0.501806
     24          6           0       -3.566958   -3.876805   -0.773529
     25          6           0       -4.552505   -3.980438   -1.753155
     26          6           0       -4.937571   -2.839249   -2.461649
     27          6           0       -4.340090   -1.611571   -2.186411
     28          6           0       -3.720654    0.791769   -0.179590
     29          6           0       -4.095900    2.035804   -0.701914
     30          6           0       -4.969403    2.875457   -0.005609
     31          6           0       -5.482013    2.480852    1.229567
     32          6           0       -5.118465    1.240314    1.760450
     33          6           0       -4.248698    0.404526    1.061361
     34          1           0       -0.549878    3.052355    2.356344
     35          1           0       -1.095774    1.424149    2.776536
     36          1           0        0.165625    2.209264    3.733200
     37          1           0        3.788902    2.113337    3.237541
     38          1           0        3.429512    0.461765    3.702312
     39          1           0        2.332312    1.771915    4.195894
     40          1           0        7.658224   -1.890756    0.049386
     41          1           0        8.109423   -0.255035   -0.460330
     42          1           0        7.573356   -0.541008    1.226853
     43          1           0        3.566530   -0.006365   -3.702454
     44          1           0        4.781320   -1.322585   -3.748953
     45          1           0        3.109341   -1.645102   -3.190892
     46          1           0       -1.285367    1.958511    0.245408
     47          1           0       -0.443960    1.516801   -1.241649
     48          1           0       -0.722666   -0.892260   -0.738392
     49          1           0       -1.487898   -0.510698    0.806160
     50          1           0       -2.576458    0.353146   -1.917353
     51          1           0       -2.195631   -2.591844    0.259242
     52          1           0       -3.255103   -4.757339   -0.217820
     53          1           0       -5.015054   -4.940234   -1.966569
     54          1           0       -5.702089   -2.906690   -3.231272
     55          1           0       -4.649610   -0.727162   -2.739161
     56          1           0       -3.702580    2.351473   -1.666157
     57          1           0       -5.248954    3.835317   -0.432103
     58          1           0       -6.163288    3.130035    1.772827
     59          1           0       -5.520069    0.919513    2.718210
     60          1           0       -3.992343   -0.568684    1.472770
 ---------------------------------------------------------------------

 SCF Done:  E(RB3LYP) =  -1431.29805999     A.U. after   15 cycles

 Excitation energies and oscillator strengths:

 Excited state symmetry could not be determined.
 Excited State   1:      Triplet-?Sym    3.5877 eV  345.58 nm  f=0.0000  <S**2>=2.000
     117 ->120         0.21006
     117 ->121         0.65219
 This state for optimization and/or second-order correction.
 Total Energy, E(TD-HF/TD-DFT) =  -1431.16621444
 Copying the excited state density for this state as the 1-particle RhoCI density.

 Excited state symmetry could not be determined.
 Excited State   2:      Triplet-?Sym    3.7407 eV  331.45 nm  f=0.0000  <S**2>=2.000
     110 ->118         0.12705
     110 ->119        -0.30804
     110 ->120        -0.15398
     111 ->118         0.30443
     111 ->119         0.13649
     111 ->122        -0.13500
     112 ->118         0.14491
     112 ->120         0.19840
     112 ->122         0.11224
     115 ->119        -0.25663
     115 ->120         0.13298
     115 ->122        -0.23749

 Excited state symmetry could not be determined.
 Excited State   3:      Singlet-?Sym    4.6111 eV  268.88 nm  f=0.0003  <S**2>=0.000
     117 ->118         0.70556

 Excited state symmetry could not be determined.
 Excited State   4:      Singlet-?Sym    4.6858 eV  264.60 nm  f=0.0004  <S**2>=0.000
     117 ->119         0.70460

 Alpha  occ. eigenvalues --  -19.10777 -19.10630 -14.40343 -14.39963 -14.38357
 Alpha  occ. eigenvalues --  -14.37288 -14.32281 -10.31418 -10.28866 -10.28232
 Alpha  occ. eigenvalues --  -10.25798 -10.24389 -10.23723 -10.23526 -10.21430
 Alpha  occ. eigenvalues --  -10.21298 -10.21275 -10.20861 -10.20715 -10.20348
 Alpha  occ. eigenvalues --  -10.20301 -10.19988 -10.19967 -10.19959 -10.19893
 Alpha  occ. eigenvalues --  -10.19810 -10.19738 -10.19417 -10.19386 -10.19329
 Alpha  occ. eigenvalues --  -10.19246 -10.19208 -10.19140  -1.06916  -1.05175
 Alpha  occ. eigenvalues --   -1.01986  -0.97995  -0.94796  -0.91882  -0.90369
 Alpha  occ. eigenvalues --   -0.87298  -0.85527  -0.82127  -0.80054  -0.78312
 Alpha  occ. eigenvalues --   -0.76273  -0.75322  -0.74789  -0.74659  -0.73979
 Alpha  occ. eigenvalues --   -0.71739  -0.70011  -0.69801  -0.67578  -0.64543
 Alpha  occ. eigenvalues --   -0.63381  -0.62218  -0.61564  -0.60486  -0.60394
 Alpha  occ. eigenvalues --   -0.59483  -0.58337  -0.57208  -0.53828  -0.53085
 Alpha  occ. eigenvalues --   -0.52424  -0.51570  -0.50081  -0.49801  -0.48363
 Alpha  occ. eigenvalues --   -0.48093  -0.47570  -0.46644  -0.46392  -0.45645
 Alpha  occ. eigenvalues --   -0.45268  -0.44904  -0.44093  -0.43767  -0.43459
 Alpha  occ. eigenvalues --   -0.43112  -0.42991  -0.42963  -0.42597  -0.42365
 Alpha  occ. eigenvalues --   -0.42020  -0.41703  -0.41411  -0.40619  -0.40249
 Alpha  occ. eigenvalues --   -0.39863  -0.39392  -0.38567  -0.38300  -0.37976
 Alpha  occ. eigenvalues --   -0.37654  -0.37470  -0.37146  -0.36670  -0.36238
 Alpha  occ. eigenvalues --   -0.35400  -0.34679  -0.34373  -0.33920  -0.33321
 Alpha  occ. eigenvalues --   -0.31539  -0.29684  -0.27824  -0.27362  -0.26030
 Alpha  occ. eigenvalues --   -0.25865  -0.25350  -0.25231  -0.24394  -0.24133
 Alpha  occ. eigenvalues --   -0.20763  -0.19886
 Alpha virt. eigenvalues --   -0.01616  -0.01360  -0.00616  -0.00484   0.00355
 Alpha virt. eigenvalues --    0.02206   0.04513   0.06708   0.07219   0.08191
 Alpha virt. eigenvalues --    0.08909   0.09439   0.10044   0.11374   0.11752

 Mulliken charges:
               1
     1  C   -0.539504
     2  C    0.256920
     3  C    0.251734
     4  C   -0.506052
     5  N   -0.644873
     6  C    0.213855
     7  C    0.621592
     8  O   -0.549272
     9  N   -0.568501
    10  C   -0.311454
    11  C    0.780159
    12  O   -0.532620
    13  N   -0.604909
    14  C   -0.321845
    15  C    0.480002
    16  N   -0.622232
    17  C    0.803596
    18  N   -0.589523
    19  C   -0.170318
    20  C   -0.278445
    21  C   -0.266007
    22  C    0.168971
    23  C   -0.190352
    24  C   -0.133276
    25  C   -0.127687
    26  C   -0.128819
    27  C   -0.171740
    28  C    0.179797
    29  C   -0.200475
    30  C   -0.126418
    31  C   -0.130980
    32  C   -0.130312
    33  C   -0.181876
    34  H    0.173646
    35  H    0.173230
    36  H    0.176213
    37  H    0.186692
    38  H    0.190684
    39  H    0.150350
    40  H    0.171894
    41  H    0.172132
    42  H    0.196471
    43  H    0.172800
    44  H    0.204662
    45  H    0.173172
    46  H    0.174332
    47  H    0.177339
    48  H    0.175160
    49  H    0.148592
    50  H    0.142931
    51  H    0.128074
    52  H    0.131712
    53  H    0.131133
    54  H    0.131796
    55  H    0.126745
    56  H    0.126288
    57  H    0.133251
    58  H    0.132885
    59  H    0.133552
    60  H    0.135129
 Sum of Mulliken charges =  -0.00000

 Dipole moment (field-independent basis, Debye):
    X=             -6.9888    Y=              1.8981    Z=              1.3738  Tot=              7.3712
 Quadrupole moment (field-independent basis, Debye-Ang):
   XX=           -222.1856   YY=           -181.0536   ZZ=           -186.7908
   XY=              2.1175   XZ=              3.2493   YZ=             -0.7155

 Normal termination of Gaussian 16 at Sat Nov  5 09:51:43 2022.
