 Gaussian 16, Revision B.01,
 Gaussian 16:  ES64L-G16RevB.01 20-Dec-2017

 -------------------------------------------------------------------
 #p b3lyp/6-31g(d) 6D 10F nosymm GFInput td=(50-50,nstate=2) SCF=XQC
 -------------------------------------------------------------------

 ------------------------------
 Gaussian input prepared by ASE
 ------------------------------
 Symbolic Z-matrix:
 Charge =  0 Multiplicity = 1

                          Input orientation:
 ---------------------------------------------------------------------
 Center     Atomic      Atomic             Coordinates (Angstroms)
 Number     Number       Type             X           Y           Z
 ---------------------------------------------------------------------
      1          6           0       -6.686250    0.556112    2.865334
      2          6           0       -5.708180    0.946260    1.752520
      3          6           0       -5.400968   -0.236313    0.818992
      4          7           0       -4.423172    0.063365   -0.234822
      5          6           0       -3.080295    0.056132    0.068491
      6          6           0       -2.612261   -0.236168    1.374777
      7          6           0       -1.264985   -0.242564    1.689050
      8          6           0       -0.284682    0.053908    0.719110
      9          6           0        1.144317    0.072793    0.939133
     10          6           0        1.907387   -0.105600    2.060405
     11          6           0        1.360494   -0.316365    3.362652
     12          7           0        0.908866   -0.509707    4.418848
     13          6           0        3.409640    0.026476    2.045280
     14          8           0        4.012750    0.495174    3.000969
     15          7           0        4.009512   -0.421543    0.886473
     16          6           0        5.373107   -0.377651    0.520329
     17          6           0        6.359361    0.238679    1.295902
     18          6           0        7.689616    0.247088    0.851942
     19          6           0        8.751820    0.908936    1.700346
     20          6           0        8.016668   -0.360464   -0.361336
     21          6           0        7.038200   -0.983487   -1.150151
     22          6           0        7.409628   -1.632708   -2.463711
     23          6           0        5.721013   -0.984844   -0.699008
     24          6           0       -0.753682    0.357897   -0.577844
     25          6           0       -2.098689    0.368151   -0.924812
     26          6           0       -2.551101    0.714962   -2.276845
     27          6           0       -1.552463    1.176400   -3.308541
     28          6           0       -3.854601    0.618919   -2.570222
     29          6           0       -4.935363    0.135525   -1.633744
     30          6           0       -6.113206    1.134456   -1.724900
     31          6           0       -5.396767   -1.267930   -2.107810
     32          1           0       -7.638971    0.198258    2.455207
     33          1           0       -6.904770    1.410887    3.513769
     34          1           0       -6.276945   -0.242210    3.496518
     35          1           0       -4.776327    1.323435    2.188852
     36          1           0       -6.123364    1.768678    1.157879
     37          1           0       -5.058386   -1.100052    1.402405
     38          1           0       -6.327187   -0.560256    0.340381
     39          1           0       -3.310687   -0.464569    2.168274
     40          1           0       -0.976550   -0.482452    2.704840
     41          1           0        1.710995    0.302781    0.037503
     42          1           0        3.418082   -0.946628    0.257868
     43          1           0        6.087560    0.694555    2.238194
     44          1           0        8.844012    0.416401    2.676211
     45          1           0        9.731734    0.875337    1.213843
     46          1           0        8.507729    1.960189    1.895402
     47          1           0        9.050284   -0.353193   -0.701767
     48          1           0        7.799357   -0.895541   -3.177060
     49          1           0        6.547922   -2.122121   -2.928911
     50          1           0        8.190956   -2.390284   -2.327247
     51          1           0        4.948646   -1.463335   -1.299892
     52          1           0       -0.021029    0.600719   -1.342115
     53          1           0       -0.804788    0.401171   -3.520495
     54          1           0       -1.006022    2.065850   -2.970572
     55          1           0       -2.052325    1.423539   -4.249391
     56          1           0       -4.203583    0.869500   -3.569866
     57          1           0       -6.443762    1.212774   -2.766375
     58          1           0       -5.800914    2.128214   -1.390186
     59          1           0       -6.978486    0.819392   -1.133351
     60          1           0       -6.236804   -1.647852   -1.515507
     61          1           0       -4.569495   -1.980752   -2.037935
     62          1           0       -5.722602   -1.223451   -3.153284
 ---------------------------------------------------------------------

 SCF Done:  E(RB3LYP) =  -1287.03108582     A.U. after   16 cycles

 Excitation energies and oscillator strengths:

 Excited state symmetry could not be determined.
 Excited State   1:      Triplet-?Sym    2.0360 eV  608.95 nm  f=0.0000  <S**2>=2.000
     106 ->112        -0.13325
     108 ->112         0.11056
     111 ->112         0.67229
 This state for optimization and/or second-order correction.
 Total Energy, E(TD-HF/TD-DFT) =  -1286.95626243
 Copying the excited state density for this state as the 1-particle RhoCI density.

 Excited state symmetry could not be determined.
 Excited State   2:      Triplet-?Sym    2.8558 eV  434.15 nm  f=0.0000  <S**2>=2.000
     108 ->113        -0.28415
     111 ->113         0.61083

 Excited state symmetry could not be determined.
 Excited State   3:      Singlet-?Sym    3.1089 eV  398.81 nm  f=0.6702  <S**2>=0.000
     110 ->112         0.13904
     111 ->112         0.68505

 Excited state symmetry could not be determined.
 Excited State   4:      Singlet-?Sym    3.4304 eV  361.43 nm  f=0.0108  <S**2>=0.000
     110 ->112         0.68836
     111 ->112        -0.12778

 Alpha  occ. eigenvalues --  -19.11677 -14.37551 -14.37453 -14.32071 -10.29748
 Alpha  occ. eigenvalues --  -10.25669 -10.25069 -10.23241 -10.23052 -10.22738
 Alpha  occ. eigenvalues --  -10.22628 -10.21628 -10.20934 -10.20393 -10.20321
 Alpha  occ. eigenvalues --  -10.20257 -10.19899 -10.19594 -10.19564 -10.19560
 Alpha  occ. eigenvalues --  -10.19455 -10.19399 -10.19390 -10.19236 -10.19000
 Alpha  occ. eigenvalues --  -10.18827 -10.18356 -10.18310 -10.17490 -10.17359
 Alpha  occ. eigenvalues --  -10.17057  -1.03712  -0.97040  -0.94000  -0.89082
 Alpha  occ. eigenvalues --   -0.86818  -0.84804  -0.83894  -0.82198  -0.79548
 Alpha  occ. eigenvalues --   -0.78946  -0.77496  -0.75693  -0.74732  -0.73661
 Alpha  occ. eigenvalues --   -0.70939  -0.70555  -0.68764  -0.68499  -0.67996
 Alpha  occ. eigenvalues --   -0.66290  -0.63632  -0.62600  -0.61464  -0.60812
 Alpha  occ. eigenvalues --   -0.58784  -0.58472  -0.55670  -0.54496  -0.54139
 Alpha  occ. eigenvalues --   -0.53072  -0.50672  -0.49460  -0.48337  -0.47893
 Alpha  occ. eigenvalues --   -0.47286  -0.46614  -0.46155  -0.45626  -0.45093
 Alpha  occ. eigenvalues --   -0.44260  -0.43939  -0.43349  -0.42839  -0.42566
 Alpha  occ. eigenvalues --   -0.42050  -0.41668  -0.41399  -0.41107  -0.40821
 Alpha  occ. eigenvalues --   -0.40716  -0.40639  -0.39996  -0.39653  -0.39542
 Alpha  occ. eigenvalues --   -0.39163  -0.39102  -0.38887  -0.37760  -0.37355
 Alpha  occ. eigenvalues --   -0.37179  -0.36854  -0.36238  -0.35788  -0.35316
 Alpha  occ. eigenvalues --   -0.34820  -0.34629  -0.34493  -0.34173  -0.33294
 Alpha  occ. eigenvalues --   -0.33103  -0.31822  -0.31169  -0.29473  -0.29270
 Alpha  occ. eigenvalues --   -0.26616  -0.25268  -0.23945  -0.23156  -0.21251
 Alpha  occ. eigenvalues --   -0.19191
 Alpha virt. eigenvalues --   -0.06929  -0.03300  -0.00051   0.00758   0.01735
 Alpha virt. eigenvalues --    0.04082   0.05335   0.05573   0.06369   0.07697
 Alpha virt. eigenvalues --    0.07743   0.09209   0.10067   0.10596   0.11027

 Mulliken charges:
               1
     1  C   -0.451388
     2  C   -0.261903
     3  C   -0.155469
     4  N   -0.552110
     5  C    0.362053
     6  C   -0.203349
     7  C   -0.199028
     8  C    0.195834
     9  C   -0.206281
    10  C    0.007495
    11  C    0.303263
    12  N   -0.514927
    13  C    0.596011
    14  O   -0.491783
    15  N   -0.734448
    16  C    0.373761
    17  C   -0.222552
    18  C    0.168513
    19  C   -0.527669
    20  C   -0.235465
    21  C    0.188149
    22  C   -0.532326
    23  C   -0.267601
    24  C   -0.308264
    25  C    0.072626
    26  C    0.209012
    27  C   -0.535091
    28  C   -0.255933
    29  C    0.195650
    30  C   -0.452673
    31  C   -0.435569
    32  H    0.143512
    33  H    0.156561
    34  H    0.150033
    35  H    0.158573
    36  H    0.146271
    37  H    0.157251
    38  H    0.152503
    39  H    0.141856
    40  H    0.176043
    41  H    0.140614
    42  H    0.331209
    43  H    0.180319
    44  H    0.167656
    45  H    0.150133
    46  H    0.164565
    47  H    0.111223
    48  H    0.162883
    49  H    0.150276
    50  H    0.163244
    51  H    0.107655
    52  H    0.129925
    53  H    0.161420
    54  H    0.166504
    55  H    0.158760
    56  H    0.124016
    57  H    0.150508
    58  H    0.164140
    59  H    0.148175
    60  H    0.146364
    61  H    0.161150
    62  H    0.148119
 Sum of Mulliken charges =  -0.00000

 Dipole moment (field-independent basis, Debye):
    X=             -5.8299    Y=             -0.5271    Z=             -7.9596  Tot=              9.8803
 Quadrupole moment (field-independent basis, Debye-Ang):
   XX=           -149.9009   YY=           -185.4197   ZZ=           -205.6574
   XY=             -2.9984   XZ=            -14.7122   YZ=              1.1024

 Normal termination of Gaussian 16 at Sat Nov  5 09:52:48 2022.
