 Gaussian 16, Revision B.01,
 Gaussian 16:  ES64L-G16RevB.01 20-Dec-2017

 -----------------------------
 #p b3lyp/6-31g(d) opt SCF=XQC
 -----------------------------

 ------------------------------
 Gaussian input prepared by ASE
 ------------------------------
 Symbolic Z-matrix:
 Charge =  0 Multiplicity = 1

 SCF Done:  E(RB3LYP) =  -1287.02266334     A.U. after   16 cycles
 SCF Done:  E(RB3LYP) =  -1287.02989283     A.U. after   13 cycles
 SCF Done:  E(RB3LYP) =  -1287.03060171     A.U. after   13 cycles
 SCF Done:  E(RB3LYP) =  -1287.03088297     A.U. after   13 cycles
 SCF Done:  E(RB3LYP) =  -1287.03096801     A.U. after   12 cycles
 SCF Done:  E(RB3LYP) =  -1287.03101361     A.U. after   11 cycles
 SCF Done:  E(RB3LYP) =  -1287.03103575     A.U. after   10 cycles
 SCF Done:  E(RB3LYP) =  -1287.03103982     A.U. after   10 cycles
 SCF Done:  E(RB3LYP) =  -1287.03104162     A.U. after    9 cycles
 SCF Done:  E(RB3LYP) =  -1287.03104315     A.U. after    9 cycles
 SCF Done:  E(RB3LYP) =  -1287.03106996     A.U. after   10 cycles
 SCF Done:  E(RB3LYP) =  -1287.03107726     A.U. after   10 cycles
 SCF Done:  E(RB3LYP) =  -1287.03108247     A.U. after   10 cycles
 SCF Done:  E(RB3LYP) =  -1287.03108473     A.U. after   10 cycles
 SCF Done:  E(RB3LYP) =  -1287.03108662     A.U. after   10 cycles
 SCF Done:  E(RB3LYP) =  -1287.03108788     A.U. after    9 cycles
 SCF Done:  E(RB3LYP) =  -1287.03108858     A.U. after    9 cycles
 SCF Done:  E(RB3LYP) =  -1287.03108869     A.U. after    9 cycles
 SCF Done:  E(RB3LYP) =  -1287.03108876     A.U. after    7 cycles
 SCF Done:  E(RB3LYP) =  -1287.03108876     A.U. after    6 cycles
 Optimization completed.
    -- Stationary point found.

                         Standard orientation:
 ---------------------------------------------------------------------
 Center     Atomic      Atomic             Coordinates (Angstroms)
 Number     Number       Type             X           Y           Z
 ---------------------------------------------------------------------
      1          6           0       -6.931572    3.036971   -0.070916
      2          6           0       -6.045622    1.884924   -0.555754
      3          6           0       -5.744191    0.881152    0.569375
      4          7           0       -4.850560   -0.216187    0.177347
      5          6           0       -3.492172    0.003042    0.131616
      6          6           0       -2.928704    1.263235    0.456108
      7          6           0       -1.565270    1.493158    0.409795
      8          6           0       -0.663639    0.479144    0.024425
      9          6           0        0.774078    0.611208   -0.055152
     10          6           0        1.614585    1.673936    0.133296
     11          6           0        1.162252    2.996451    0.426061
     12          7           0        0.788381    4.068559    0.686257
     13          6           0        3.105082    1.572199   -0.072869
     14          8           0        3.745603    2.509273   -0.529362
     15          7           0        3.649880    0.359326    0.295281
     16          6           0        4.983833   -0.087868    0.168929
     17          6           0        5.987977    0.652728   -0.461377
     18          6           0        7.285371    0.128383   -0.554008
     19          6           0        8.367769    0.938990   -1.230353
     20          6           0        7.562108   -1.129257   -0.015600
     21          6           0        6.565191   -1.883842    0.620437
     22          6           0        6.881695   -3.246112    1.193965
     23          6           0        5.280956   -1.352821    0.705695
     24          6           0       -1.228016   -0.771150   -0.311286
     25          6           0       -2.591453   -1.033637   -0.270329
     26          6           0       -3.144791   -2.337914   -0.651937
     27          6           0       -2.236459   -3.407095   -1.205460
     28          6           0       -4.458508   -2.554386   -0.504656
     29          6           0       -5.453768   -1.576078    0.070740
     30          6           0       -6.680007   -1.548640   -0.872166
     31          6           0       -5.879015   -2.084413    1.473622
     32          1           0       -7.890933    2.670485    0.315421
     33          1           0       -7.147605    3.736038   -0.885468
     34          1           0       -6.446305    3.604554    0.732581
     35          1           0       -5.106286    2.279708   -0.959229
     36          1           0       -6.535533    1.355240   -1.381448
     37          1           0       -5.325459    1.402232    1.439384
     38          1           0       -6.683072    0.446299    0.917647
     39          1           0       -3.563746    2.087046    0.752184
     40          1           0       -1.201807    2.477190    0.678395
     41          1           0        1.270809   -0.312214   -0.350964
     42          1           0        3.044485   -0.254928    0.821436
     43          1           0        5.756049    1.629842   -0.862712
     44          1           0        8.544750    1.883776   -0.701715
     45          1           0        9.315143    0.391925   -1.265688
     46          1           0        8.088218    1.196573   -2.259071
     47          1           0        8.570446   -1.532127   -0.088118
     48          1           0        7.190563   -3.947714    0.408772
     49          1           0        6.015642   -3.679135    1.704764
     50          1           0        7.704372   -3.192882    1.917419
     51          1           0        4.494800   -1.926141    1.195418
     52          1           0       -0.557656   -1.567275   -0.622184
     53          1           0       -1.468748   -3.699983   -0.477615
     54          1           0       -1.711329   -3.063192   -2.105411
     55          1           0       -2.806246   -4.303030   -1.467720
     56          1           0       -4.881796   -3.518095   -0.780267
     57          1           0       -7.079620   -2.563065   -0.978568
     58          1           0       -6.393333   -1.188768   -1.864852
     59          1           0       -7.490259   -0.919846   -0.490046
     60          1           0       -6.661052   -1.459390    1.919256
     61          1           0       -5.016859   -2.098365    2.147320
     62          1           0       -6.272611   -3.104664    1.400584
 ---------------------------------------------------------------------

 The electronic state is 1-A.
 Alpha  occ. eigenvalues --  -19.11677 -14.37551 -14.37453 -14.32071 -10.29748
 Alpha  occ. eigenvalues --  -10.25669 -10.25069 -10.23241 -10.23051 -10.22738
 Alpha  occ. eigenvalues --  -10.22628 -10.21628 -10.20934 -10.20393 -10.20321
 Alpha  occ. eigenvalues --  -10.20257 -10.19899 -10.19594 -10.19564 -10.19560
 Alpha  occ. eigenvalues --  -10.19455 -10.19399 -10.19390 -10.19236 -10.19000
 Alpha  occ. eigenvalues --  -10.18827 -10.18356 -10.18310 -10.17490 -10.17360
 Alpha  occ. eigenvalues --  -10.17057  -1.03712  -0.97040  -0.94000  -0.89082
 Alpha  occ. eigenvalues --   -0.86818  -0.84804  -0.83894  -0.82198  -0.79548
 Alpha  occ. eigenvalues --   -0.78946  -0.77496  -0.75693  -0.74732  -0.73661
 Alpha  occ. eigenvalues --   -0.70939  -0.70555  -0.68764  -0.68500  -0.67996
 Alpha  occ. eigenvalues --   -0.66290  -0.63632  -0.62600  -0.61464  -0.60812
 Alpha  occ. eigenvalues --   -0.58784  -0.58472  -0.55670  -0.54496  -0.54139
 Alpha  occ. eigenvalues --   -0.53072  -0.50672  -0.49460  -0.48337  -0.47893
 Alpha  occ. eigenvalues --   -0.47286  -0.46614  -0.46155  -0.45626  -0.45093
 Alpha  occ. eigenvalues --   -0.44260  -0.43939  -0.43349  -0.42839  -0.42566
 Alpha  occ. eigenvalues --   -0.42050  -0.41668  -0.41399  -0.41107  -0.40821
 Alpha  occ. eigenvalues --   -0.40716  -0.40639  -0.39996  -0.39653  -0.39542
 Alpha  occ. eigenvalues --   -0.39163  -0.39102  -0.38887  -0.37760  -0.37355
 Alpha  occ. eigenvalues --   -0.37180  -0.36854  -0.36238  -0.35788  -0.35316
 Alpha  occ. eigenvalues --   -0.34820  -0.34629  -0.34493  -0.34173  -0.33294
 Alpha  occ. eigenvalues --   -0.33103  -0.31822  -0.31169  -0.29473  -0.29270
 Alpha  occ. eigenvalues --   -0.26616  -0.25268  -0.23945  -0.23156  -0.21251
 Alpha  occ. eigenvalues --   -0.19191
 Alpha virt. eigenvalues --   -0.06929  -0.03300  -0.00051   0.00758   0.01735
 Alpha virt. eigenvalues --    0.04082   0.05335   0.05573   0.06369   0.07697
 Alpha virt. eigenvalues --    0.07743   0.09209   0.10067   0.10596   0.11027

 Mulliken charges:
               1
     1  C   -0.451373
     2  C   -0.261920
     3  C   -0.155457
     4  N   -0.552094
     5  C    0.362020
     6  C   -0.203336
     7  C   -0.199018
     8  C    0.195827
     9  C   -0.206277
    10  C    0.007499
    11  C    0.303258
    12  N   -0.514928
    13  C    0.596034
    14  O   -0.491790
    15  N   -0.734472
    16  C    0.373771
    17  C   -0.222544
    18  C    0.168506
    19  C   -0.527671
    20  C   -0.235466
    21  C    0.188149
    22  C   -0.532325
    23  C   -0.267603
    24  C   -0.308272
    25  C    0.072632
    26  C    0.209022
    27  C   -0.535093
    28  C   -0.255949
    29  C    0.195641
    30  C   -0.452658
    31  C   -0.435565
    32  H    0.143509
    33  H    0.156559
    34  H    0.150030
    35  H    0.158574
    36  H    0.146273
    37  H    0.157253
    38  H    0.152503
    39  H    0.141855
    40  H    0.176041
    41  H    0.140611
    42  H    0.331212
    43  H    0.180319
    44  H    0.167657
    45  H    0.150133
    46  H    0.164566
    47  H    0.111223
    48  H    0.162883
    49  H    0.150276
    50  H    0.163244
    51  H    0.107654
    52  H    0.129926
    53  H    0.161422
    54  H    0.166504
    55  H    0.158760
    56  H    0.124016
    57  H    0.150508
    58  H    0.164135
    59  H    0.148174
    60  H    0.146363
    61  H    0.161150
    62  H    0.148119
 Sum of Mulliken charges =  -0.00000

 Dipole moment (field-independent basis, Debye):
    X=             -6.2953    Y=             -7.6005    Z=              0.4722  Tot=              9.8803
 Quadrupole moment (field-independent basis, Debye-Ang):
   XX=           -146.4769   YY=           -199.5554   ZZ=           -185.6654
   XY=            -13.3900   XZ=              0.1195   YZ=             -1.6446

 Normal termination of Gaussian 16 at Fri Nov  4 23:15:40 2022.
