 Gaussian 16, Revision B.01,
 Gaussian 16:  ES64L-G16RevB.01 20-Dec-2017

 -------------------------------------------------------------------
 #p b3lyp/6-31g(d) 6D 10F nosymm GFInput td=(50-50,nstate=2) SCF=XQC
 -------------------------------------------------------------------

 ------------------------------
 Gaussian input prepared by ASE
 ------------------------------
 Symbolic Z-matrix:
 Charge =  0 Multiplicity = 1

                          Input orientation:
 ---------------------------------------------------------------------
 Center     Atomic      Atomic             Coordinates (Angstroms)
 Number     Number       Type             X           Y           Z
 ---------------------------------------------------------------------
      1          6           0        5.724269    2.157286   -0.395398
      2          6           0        5.455862    0.714142   -0.100757
      3          7           0        4.179592    0.293354    0.240913
      4          6           0        4.276903   -1.004456    0.427976
      5         16           0        2.958113   -2.094382    0.906682
      6          6           0        1.583315   -0.884435    0.879260
      7          6           0        1.102286   -0.501527   -0.525365
      8          6           0        0.011936    0.600579   -0.479596
      9          7           0       -1.259115   -0.103975   -0.446789
     10          6           0       -1.265976   -1.383749   -0.913283
     11          7           0       -2.449082   -1.937569   -0.885043
     12          6           0       -3.288898   -0.953367   -0.374803
     13          6           0       -4.728510   -1.234304   -0.238316
     14          6           0       -5.155027   -2.566132   -0.092101
     15          6           0       -6.509118   -2.872003    0.023890
     16          6           0       -7.467570   -1.856559   -0.007417
     17          6           0       -7.056857   -0.531652   -0.167443
     18          6           0       -5.702952   -0.222452   -0.287763
     19          6           0       -2.568046    0.204564   -0.078548
     20          6           0       -2.913963    1.481063    0.566873
     21          6           0       -3.663226    1.499227    1.757584
     22          6           0       -3.975760    2.703580    2.383679
     23          6           0       -3.536141    3.915262    1.844057
     24          6           0       -2.788304    3.912419    0.665993
     25          6           0       -2.484546    2.708318    0.030424
     26         16           0        0.331777   -1.943680   -1.425145
     27          7           0        5.546427   -1.468294    0.215361
     28          6           0        6.013905   -2.834144    0.379082
     29          6           0        6.322565   -0.352775   -0.117062
     30          6           0        7.782778   -0.456300   -0.412639
     31          1           0        5.444355    2.790015    0.455457
     32          1           0        5.140355    2.500961   -1.258287
     33          1           0        6.781669    2.335056   -0.614298
     34          1           0        0.780804   -1.346009    1.461697
     35          1           0        1.937915    0.011714    1.396523
     36          1           0        1.955619   -0.153674   -1.107787
     37          1           0        0.125984    1.237830    0.402181
     38          1           0        0.073381    1.234949   -1.372590
     39          1           0       -4.407318   -3.352130   -0.078212
     40          1           0       -6.817194   -3.908219    0.139214
     41          1           0       -8.523905   -2.095750    0.083536
     42          1           0       -7.794079    0.266129   -0.211754
     43          1           0       -5.401258    0.808986   -0.437179
     44          1           0       -3.995201    0.559271    2.187102
     45          1           0       -4.555587    2.695281    3.302834
     46          1           0       -3.776090    4.853162    2.337417
     47          1           0       -2.448588    4.849469    0.232666
     48          1           0       -1.929171    2.720204   -0.903588
     49          1           0        5.206468   -3.528926    0.134080
     50          1           0        6.845578   -3.020734   -0.303736
     51          1           0        6.347305   -3.026856    1.405771
     52          1           0        8.353952   -0.864059    0.432283
     53          1           0        8.186684    0.535803   -0.630512
     54          1           0        7.991684   -1.090513   -1.285319
 ---------------------------------------------------------------------

 SCF Done:  E(RB3LYP) =  -1944.41095085     A.U. after   14 cycles

 Excitation energies and oscillator strengths:

 Excited state symmetry could not be determined.
 Excited State   1:      Triplet-?Sym    2.8351 eV  437.32 nm  f=0.0000  <S**2>=2.000
     114 ->115         0.64745
 This state for optimization and/or second-order correction.
 Total Energy, E(TD-HF/TD-DFT) =  -1944.30676305
 Copying the excited state density for this state as the 1-particle RhoCI density.

 Excited state symmetry could not be determined.
 Excited State   2:      Triplet-?Sym    3.5570 eV  348.56 nm  f=0.0000  <S**2>=2.000
     109 ->116        -0.23823
     110 ->115         0.25162
     111 ->119        -0.20448
     112 ->115        -0.22775
     112 ->117        -0.10276
     112 ->118         0.10014
     112 ->119        -0.12115
     114 ->117         0.31188
     114 ->118        -0.29803

 Excited state symmetry could not be determined.
 Excited State   3:      Singlet-?Sym    3.8113 eV  325.31 nm  f=0.1967  <S**2>=0.000
     114 ->115         0.69879

 Excited state symmetry could not be determined.
 Excited State   4:      Singlet-?Sym    4.1869 eV  296.12 nm  f=0.0079  <S**2>=0.000
     114 ->116         0.69075

 Alpha  occ. eigenvalues --  -88.89625 -88.89157 -14.39390 -14.39023 -14.31062
 Alpha  occ. eigenvalues --  -14.30770 -10.26404 -10.25825 -10.25145 -10.24373
 Alpha  occ. eigenvalues --  -10.24108 -10.23208 -10.21994 -10.21602 -10.20808
 Alpha  occ. eigenvalues --  -10.20547 -10.20255 -10.20147 -10.19608 -10.19511
 Alpha  occ. eigenvalues --  -10.19390 -10.19330 -10.19220 -10.18562 -10.18220
 Alpha  occ. eigenvalues --  -10.17650 -10.17577 -10.17495 -10.17482 -10.17067
 Alpha  occ. eigenvalues --   -7.95718  -7.95239  -5.92242  -5.91837  -5.91733
 Alpha  occ. eigenvalues --   -5.91408  -5.91205  -5.90702  -1.02491  -1.01889
 Alpha  occ. eigenvalues --   -0.89859  -0.88967  -0.86169  -0.84066  -0.83709
 Alpha  occ. eigenvalues --   -0.80898  -0.78280  -0.76134  -0.75257  -0.74829
 Alpha  occ. eigenvalues --   -0.73936  -0.73242  -0.72768  -0.71645  -0.70907
 Alpha  occ. eigenvalues --   -0.67977  -0.64058  -0.62719  -0.60988  -0.60814
 Alpha  occ. eigenvalues --   -0.59105  -0.58613  -0.57461  -0.55865  -0.55160
 Alpha  occ. eigenvalues --   -0.54846  -0.52631  -0.50601  -0.49937  -0.49684
 Alpha  occ. eigenvalues --   -0.48462  -0.48382  -0.46684  -0.46035  -0.45286
 Alpha  occ. eigenvalues --   -0.44996  -0.44039  -0.43780  -0.43621  -0.43088
 Alpha  occ. eigenvalues --   -0.42803  -0.42269  -0.41693  -0.41444  -0.41390
 Alpha  occ. eigenvalues --   -0.40901  -0.40520  -0.40430  -0.39387  -0.38900
 Alpha  occ. eigenvalues --   -0.38552  -0.38346  -0.38228  -0.37052  -0.36760
 Alpha  occ. eigenvalues --   -0.35701  -0.35097  -0.34677  -0.34322  -0.33308
 Alpha  occ. eigenvalues --   -0.32868  -0.32706  -0.28921  -0.27981  -0.27757
 Alpha  occ. eigenvalues --   -0.27330  -0.26750  -0.26111  -0.25491  -0.24936
 Alpha  occ. eigenvalues --   -0.23509  -0.23168  -0.19821  -0.18532
 Alpha virt. eigenvalues --   -0.02652  -0.00647   0.00491   0.01066   0.01678
 Alpha virt. eigenvalues --    0.02456   0.02822   0.04066   0.06327   0.06473
 Alpha virt. eigenvalues --    0.07771   0.08305   0.08840   0.09399   0.10248

 Mulliken charges:
               1
     1  C   -0.519392
     2  C    0.191435
     3  N   -0.520504
     4  C    0.262722
     5  S    0.151082
     6  C   -0.418457
     7  C   -0.285619
     8  C   -0.137400
     9  N   -0.458142
    10  C    0.281638
    11  N   -0.524200
    12  C    0.087231
    13  C    0.106450
    14  C   -0.165897
    15  C   -0.135767
    16  C   -0.127623
    17  C   -0.140237
    18  C   -0.179933
    19  C    0.194811
    20  C    0.087867
    21  C   -0.155183
    22  C   -0.136497
    23  C   -0.125874
    24  C   -0.134979
    25  C   -0.173434
    26  S    0.177007
    27  N   -0.462976
    28  C   -0.335717
    29  C    0.289574
    30  C   -0.538044
    31  H    0.163459
    32  H    0.160017
    33  H    0.146937
    34  H    0.196126
    35  H    0.211634
    36  H    0.211265
    37  H    0.185860
    38  H    0.177568
    39  H    0.152202
    40  H    0.125229
    41  H    0.122752
    42  H    0.124038
    43  H    0.137129
    44  H    0.150661
    45  H    0.135478
    46  H    0.132320
    47  H    0.132656
    48  H    0.131603
    49  H    0.195864
    50  H    0.176292
    51  H    0.179720
    52  H    0.161866
    53  H    0.173087
    54  H    0.162298
 Sum of Mulliken charges =  -0.00000

 Dipole moment (field-independent basis, Debye):
    X=              5.2968    Y=              2.4504    Z=              1.3996  Tot=              6.0016
 Quadrupole moment (field-independent basis, Debye-Ang):
   XX=           -157.1957   YY=           -180.5697   ZZ=           -191.0467
   XY=            -17.5763   XZ=             -9.7806   YZ=             -4.1431

 Normal termination of Gaussian 16 at Sat Nov  5 09:53:10 2022.
