 Gaussian 16, Revision B.01,
 Gaussian 16:  ES64L-G16RevB.01 20-Dec-2017

 -----------------------------
 #p b3lyp/6-31g(d) opt SCF=XQC
 -----------------------------

 ------------------------------
 Gaussian input prepared by ASE
 ------------------------------
 Symbolic Z-matrix:
 Charge =  0 Multiplicity = 1

 SCF Done:  E(RB3LYP) =  -1944.40074163     A.U. after   15 cycles
 SCF Done:  E(RB3LYP) =  -1944.40836577     A.U. after   13 cycles
 SCF Done:  E(RB3LYP) =  -1944.40890199     A.U. after   13 cycles
 SCF Done:  E(RB3LYP) =  -1944.40975289     A.U. after   13 cycles
 SCF Done:  E(RB3LYP) =  -1944.40994499     A.U. after   11 cycles
 SCF Done:  E(RB3LYP) =  -1944.41000875     A.U. after   10 cycles
 SCF Done:  E(RB3LYP) =  -1944.41003128     A.U. after   10 cycles
 SCF Done:  E(RB3LYP) =  -1944.41004644     A.U. after   10 cycles
 SCF Done:  E(RB3LYP) =  -1944.41005589     A.U. after   10 cycles
 SCF Done:  E(RB3LYP) =  -1944.41007991     A.U. after   10 cycles
 SCF Done:  E(RB3LYP) =  -1944.41093289     A.U. after    9 cycles
 SCF Done:  E(RB3LYP) =  -1944.41093744     A.U. after    9 cycles
 SCF Done:  E(RB3LYP) =  -1944.41094252     A.U. after    9 cycles
 SCF Done:  E(RB3LYP) =  -1944.41094583     A.U. after    9 cycles
 SCF Done:  E(RB3LYP) =  -1944.41095023     A.U. after    9 cycles
 SCF Done:  E(RB3LYP) =  -1944.41095556     A.U. after    9 cycles
 SCF Done:  E(RB3LYP) =  -1944.41095666     A.U. after    8 cycles
 SCF Done:  E(RB3LYP) =  -1944.41095680     A.U. after    7 cycles
 SCF Done:  E(RB3LYP) =  -1944.41095683     A.U. after    7 cycles
 SCF Done:  E(RB3LYP) =  -1944.41095685     A.U. after    6 cycles
 Optimization completed.
    -- Stationary point found.

                         Standard orientation:
 ---------------------------------------------------------------------
 Center     Atomic      Atomic             Coordinates (Angstroms)
 Number     Number       Type             X           Y           Z
 ---------------------------------------------------------------------
      1          6           0        5.769581    2.617701   -0.935888
      2          6           0        5.568865    1.259709   -0.338318
      3          7           0        4.308265    0.852838    0.071573
      4          6           0        4.467731   -0.366520    0.536876
      5         16           0        3.195857   -1.398432    1.225208
      6          6           0        1.761724   -0.300787    0.919868
      7          6           0        1.294615   -0.257499   -0.539897
      8          6           0        0.148307    0.766537   -0.747073
      9          7           0       -1.085283    0.016613   -0.577041
     10          6           0       -1.015476   -1.332094   -0.754811
     11          7           0       -2.168899   -1.931208   -0.620913
     12          6           0       -3.069870   -0.907940   -0.346206
     13          6           0       -4.495942   -1.231822   -0.168848
     14          6           0       -4.856767   -2.522094    0.257844
     15          6           0       -6.195693   -2.869988    0.421605
     16          6           0       -7.204060   -1.939797    0.159538
     17          6           0       -6.858337   -0.660129   -0.279319
     18          6           0       -5.519664   -0.309935   -0.448029
     19          6           0       -2.416587    0.324646   -0.299831
     20          6           0       -2.842624    1.689329    0.049182
     21          6           0       -3.619454    1.922869    1.198752
     22          6           0       -4.008002    3.214891    1.544943
     23          6           0       -3.618730    4.303783    0.760463
     24          6           0       -2.844405    4.087833   -0.380104
     25          6           0       -2.464411    2.793525   -0.735700
     26         16           0        0.620463   -1.900265   -1.114295
     27          7           0        5.764033   -0.794502    0.444807
     28          6           0        6.297117   -2.064788    0.906413
     29          6           0        6.489386    0.263990   -0.112629
     30          6           0        7.959498    0.179860   -0.361623
     31          1           0        5.437717    3.402842   -0.245907
     32          1           0        5.189106    2.734084   -1.859549
     33          1           0        6.821276    2.802105   -1.175773
     34          1           0        0.970597   -0.669245    1.579158
     35          1           0        2.057625    0.704122    1.234489
     36          1           0        2.142327    0.002910   -1.173906
     37          1           0        0.208823    1.584520   -0.023287
     38          1           0        0.197930    1.195433   -1.755649
     39          1           0       -4.070189   -3.244015    0.450667
     40          1           0       -6.452733   -3.872222    0.755392
     41          1           0       -8.248546   -2.211656    0.287870
     42          1           0       -7.634338    0.067287   -0.504271
     43          1           0       -5.267956    0.679924   -0.814132
     44          1           0       -3.912642    1.081022    1.818063
     45          1           0       -4.607960    3.373330    2.437166
     46          1           0       -3.918015    5.311395    1.035747
     47          1           0       -2.543251    4.926450   -1.002412
     48          1           0       -1.888703    2.634022   -1.643489
     49          1           0        5.532392   -2.839595    0.808570
     50          1           0        7.153010   -2.348252    0.290107
     51          1           0        6.615892   -2.012459    1.954281
     52          1           0        8.530966   -0.003577    0.558254
     53          1           0        8.316877    1.122232   -0.784819
     54          1           0        8.221053   -0.615362   -1.073416
 ---------------------------------------------------------------------

 The electronic state is 1-A.
 Alpha  occ. eigenvalues --  -88.89625 -88.89157 -14.39390 -14.39023 -14.31062
 Alpha  occ. eigenvalues --  -14.30770 -10.26404 -10.25825 -10.25145 -10.24373
 Alpha  occ. eigenvalues --  -10.24108 -10.23208 -10.21994 -10.21602 -10.20808
 Alpha  occ. eigenvalues --  -10.20547 -10.20256 -10.20147 -10.19608 -10.19511
 Alpha  occ. eigenvalues --  -10.19390 -10.19330 -10.19220 -10.18562 -10.18220
 Alpha  occ. eigenvalues --  -10.17650 -10.17577 -10.17495 -10.17482 -10.17067
 Alpha  occ. eigenvalues --   -7.95718  -7.95239  -5.92242  -5.91837  -5.91733
 Alpha  occ. eigenvalues --   -5.91408  -5.91205  -5.90702  -1.02491  -1.01890
 Alpha  occ. eigenvalues --   -0.89859  -0.88967  -0.86169  -0.84066  -0.83709
 Alpha  occ. eigenvalues --   -0.80898  -0.78280  -0.76134  -0.75257  -0.74829
 Alpha  occ. eigenvalues --   -0.73936  -0.73242  -0.72768  -0.71645  -0.70907
 Alpha  occ. eigenvalues --   -0.67977  -0.64058  -0.62719  -0.60989  -0.60814
 Alpha  occ. eigenvalues --   -0.59105  -0.58613  -0.57461  -0.55865  -0.55160
 Alpha  occ. eigenvalues --   -0.54846  -0.52631  -0.50601  -0.49937  -0.49684
 Alpha  occ. eigenvalues --   -0.48462  -0.48382  -0.46684  -0.46035  -0.45286
 Alpha  occ. eigenvalues --   -0.44996  -0.44039  -0.43780  -0.43621  -0.43088
 Alpha  occ. eigenvalues --   -0.42803  -0.42269  -0.41693  -0.41444  -0.41390
 Alpha  occ. eigenvalues --   -0.40901  -0.40520  -0.40430  -0.39387  -0.38900
 Alpha  occ. eigenvalues --   -0.38552  -0.38346  -0.38228  -0.37052  -0.36760
 Alpha  occ. eigenvalues --   -0.35701  -0.35097  -0.34677  -0.34322  -0.33308
 Alpha  occ. eigenvalues --   -0.32868  -0.32706  -0.28921  -0.27982  -0.27757
 Alpha  occ. eigenvalues --   -0.27330  -0.26750  -0.26111  -0.25490  -0.24936
 Alpha  occ. eigenvalues --   -0.23509  -0.23168  -0.19821  -0.18531
 Alpha virt. eigenvalues --   -0.02652  -0.00647   0.00491   0.01066   0.01678
 Alpha virt. eigenvalues --    0.02456   0.02822   0.04066   0.06327   0.06473
 Alpha virt. eigenvalues --    0.07771   0.08305   0.08840   0.09399   0.10248

 Mulliken charges:
               1
     1  C   -0.519390
     2  C    0.191430
     3  N   -0.520504
     4  C    0.262725
     5  S    0.151089
     6  C   -0.418452
     7  C   -0.285633
     8  C   -0.137395
     9  N   -0.458140
    10  C    0.281626
    11  N   -0.524198
    12  C    0.087222
    13  C    0.106448
    14  C   -0.165903
    15  C   -0.135765
    16  C   -0.127619
    17  C   -0.140246
    18  C   -0.179925
    19  C    0.194825
    20  C    0.087834
    21  C   -0.155157
    22  C   -0.136493
    23  C   -0.125883
    24  C   -0.134984
    25  C   -0.173417
    26  S    0.177006
    27  N   -0.462974
    28  C   -0.335716
    29  C    0.289567
    30  C   -0.538042
    31  H    0.163459
    32  H    0.160016
    33  H    0.146938
    34  H    0.196124
    35  H    0.211633
    36  H    0.211269
    37  H    0.185861
    38  H    0.177568
    39  H    0.152202
    40  H    0.125229
    41  H    0.122752
    42  H    0.124038
    43  H    0.137132
    44  H    0.150659
    45  H    0.135478
    46  H    0.132322
    47  H    0.132656
    48  H    0.131603
    49  H    0.195861
    50  H    0.176292
    51  H    0.179720
    52  H    0.161866
    53  H    0.173087
    54  H    0.162298
 Sum of Mulliken charges =  -0.00000

 Dipole moment (field-independent basis, Debye):
    X=              5.1298    Y=              2.9835    Z=              0.8965  Tot=              6.0016
 Quadrupole moment (field-independent basis, Debye-Ang):
   XX=           -153.4248   YY=           -183.1632   ZZ=           -189.1947
   XY=            -15.7491   XZ=             -5.6360   YZ=             -6.6730

 Normal termination of Gaussian 16 at Fri Nov  4 23:50:01 2022.
