 Gaussian 16, Revision B.01,
 Gaussian 16:  ES64L-G16RevB.01 20-Dec-2017

 -----------------------------
 #p b3lyp/6-31g(d) opt SCF=XQC
 -----------------------------

 ------------------------------
 Gaussian input prepared by ASE
 ------------------------------
 Symbolic Z-matrix:
 Charge =  0 Multiplicity = 1

 SCF Done:  E(RB3LYP) =  -1280.03582086     A.U. after   15 cycles
 SCF Done:  E(RB3LYP) =  -1280.04360102     A.U. after   13 cycles
 SCF Done:  E(RB3LYP) =  -1280.04478323     A.U. after   12 cycles
 SCF Done:  E(RB3LYP) =  -1280.04502050     A.U. after   12 cycles
 SCF Done:  E(RB3LYP) =  -1280.04505753     A.U. after   12 cycles
 SCF Done:  E(RB3LYP) =  -1280.04513609     A.U. after   11 cycles
 SCF Done:  E(RB3LYP) =  -1280.04518394     A.U. after   12 cycles
 SCF Done:  E(RB3LYP) =  -1280.04519495     A.U. after   11 cycles
 SCF Done:  E(RB3LYP) =  -1280.04519676     A.U. after    9 cycles
 SCF Done:  E(RB3LYP) =  -1280.04519766     A.U. after    8 cycles
 SCF Done:  E(RB3LYP) =  -1280.04519810     A.U. after    8 cycles
 SCF Done:  E(RB3LYP) =  -1280.04519830     A.U. after    8 cycles
 SCF Done:  E(RB3LYP) =  -1280.04519842     A.U. after    8 cycles
 SCF Done:  E(RB3LYP) =  -1280.04519849     A.U. after    7 cycles
 Optimization completed.
    -- Stationary point found.

                         Standard orientation:
 ---------------------------------------------------------------------
 Center     Atomic      Atomic             Coordinates (Angstroms)
 Number     Number       Type             X           Y           Z
 ---------------------------------------------------------------------
      1          6           0        1.671142    2.255555   -1.207012
      2          6           0        2.718064    1.296078   -0.698924
      3          6           0        4.061607    1.669822   -0.579733
      4          6           0        5.033091    0.777935   -0.123550
      5          6           0        4.672613   -0.526325    0.211473
      6          6           0        3.344984   -0.937766    0.089947
      7          6           0        2.390888   -0.021143   -0.347047
      8          8           0        1.042905   -0.383703   -0.534362
      9         16           0        0.274401   -1.333974    0.598976
     10          8           0        0.490097   -0.754447    1.923543
     11          8           0        0.633684   -2.729956    0.356259
     12          6           0       -1.396502   -1.050863    0.015120
     13          6           0       -1.978571   -2.108568   -0.651677
     14          6           0       -3.290635   -1.989472   -1.159508
     15          6           0       -3.983636   -0.813948   -0.994299
     16          6           0       -3.411640    0.290199   -0.307726
     17          6           0       -4.138795    1.498921   -0.139032
     18          6           0       -3.590630    2.565578    0.533285
     19          6           0       -2.287884    2.460643    1.072759
     20          6           0       -1.550445    1.305409    0.929658
     21          6           0       -2.082539    0.187906    0.229309
     22          1           0        1.230084    1.903858   -2.147350
     23          1           0        2.108404    3.242490   -1.385198
     24          1           0        0.844077    2.368574   -0.497911
     25          1           0        4.344118    2.684871   -0.848628
     26          1           0        6.066505    1.100969   -0.035235
     27          1           0        5.420458   -1.232793    0.559985
     28          1           0        3.053546   -1.954994    0.325277
     29          1           0       -1.418329   -3.027148   -0.782804
     30          1           0       -3.739574   -2.828757   -1.681607
     31          1           0       -4.991983   -0.711505   -1.387891
     32          1           0       -5.142268    1.561470   -0.552610
     33          1           0       -4.155785    3.484918    0.657234
     34          1           0       -1.863101    3.300318    1.615737
     35          1           0       -0.566714    1.236392    1.375619
 ---------------------------------------------------------------------

 The electronic state is 1-A.
 Alpha  occ. eigenvalues --  -89.13179 -19.20480 -19.15580 -19.15559 -10.25281
 Alpha  occ. eigenvalues --  -10.24011 -10.22796 -10.22060 -10.21972 -10.21656
 Alpha  occ. eigenvalues --  -10.21233 -10.20764 -10.20649 -10.20601 -10.20224
 Alpha  occ. eigenvalues --  -10.20150 -10.19105 -10.19077 -10.19031 -10.18846
 Alpha  occ. eigenvalues --  -10.18381  -8.15569  -6.12171  -6.11940  -6.11835
 Alpha  occ. eigenvalues --   -1.14048  -1.04675  -1.01275  -0.89546  -0.85699
 Alpha  occ. eigenvalues --   -0.84212  -0.80305  -0.77483  -0.76099  -0.75579
 Alpha  occ. eigenvalues --   -0.73988  -0.69632  -0.67724  -0.64125  -0.63385
 Alpha  occ. eigenvalues --   -0.62174  -0.59490  -0.57780  -0.54802  -0.53275
 Alpha  occ. eigenvalues --   -0.52208  -0.51432  -0.49932  -0.48752  -0.47716
 Alpha  occ. eigenvalues --   -0.46957  -0.45876  -0.44852  -0.44088  -0.43692
 Alpha  occ. eigenvalues --   -0.42641  -0.41911  -0.41831  -0.41140  -0.40884
 Alpha  occ. eigenvalues --   -0.39453  -0.39221  -0.38588  -0.36817  -0.36164
 Alpha  occ. eigenvalues --   -0.35932  -0.35300  -0.34751  -0.34425  -0.33567
 Alpha  occ. eigenvalues --   -0.31949  -0.31896  -0.30537  -0.29585  -0.26286
 Alpha  occ. eigenvalues --   -0.24718  -0.23776  -0.23483
 Alpha virt. eigenvalues --   -0.06801  -0.02798  -0.00736  -0.00054   0.00273
 Alpha virt. eigenvalues --    0.04682   0.06883   0.08310   0.08601   0.09241
 Alpha virt. eigenvalues --    0.10190   0.11239   0.11602   0.12425   0.13659

 Mulliken charges:
               1
     1  C   -0.521725
     2  C    0.149325
     3  C   -0.197894
     4  C   -0.114756
     5  C   -0.149532
     6  C   -0.151356
     7  C    0.269351
     8  O   -0.615736
     9  S    1.297955
    10  O   -0.521201
    11  O   -0.516945
    12  C   -0.246880
    13  C   -0.155012
    14  C   -0.130293
    15  C   -0.176209
    16  C    0.140083
    17  C   -0.190664
    18  C   -0.126602
    19  C   -0.141403
    20  C   -0.193795
    21  C    0.128598
    22  H    0.171440
    23  H    0.150992
    24  H    0.168473
    25  H    0.126901
    26  H    0.130615
    27  H    0.137461
    28  H    0.181948
    29  H    0.192518
    30  H    0.148508
    31  H    0.145329
    32  H    0.138843
    33  H    0.139851
    34  H    0.143100
    35  H    0.188711
 Sum of Mulliken charges =  -0.00000

 Dipole moment (field-independent basis, Debye):
    X=             -2.6589    Y=              2.4767    Z=             -2.1028  Tot=              4.1983
 Quadrupole moment (field-independent basis, Debye-Ang):
   XX=           -103.9656   YY=           -120.0652   ZZ=           -133.0140
   XY=              2.6008   XZ=              3.7297   YZ=              4.5149

 Normal termination of Gaussian 16 at Fri Nov  4 22:42:53 2022.
