 Gaussian 16, Revision B.01,
 Gaussian 16:  ES64L-G16RevB.01 20-Dec-2017

 -------------------------------------------------------------------
 #p b3lyp/6-31g(d) 6D 10F nosymm GFInput td=(50-50,nstate=2) SCF=XQC
 -------------------------------------------------------------------

 ------------------------------
 Gaussian input prepared by ASE
 ------------------------------
 Symbolic Z-matrix:
 Charge =  0 Multiplicity = 1

                          Input orientation:
 ---------------------------------------------------------------------
 Center     Atomic      Atomic             Coordinates (Angstroms)
 Number     Number       Type             X           Y           Z
 ---------------------------------------------------------------------
      1          6           0       -2.507989    0.050729    1.196075
      2          6           0       -2.879550    0.422698   -0.217565
      3          6           0       -4.135336    0.955033   -0.531600
      4          6           0       -4.484830    1.285683   -1.841512
      5          6           0       -3.574883    1.071703   -2.875673
      6          6           0       -2.319650    0.528009   -2.601013
      7          6           0       -1.987692    0.227116   -1.281646
      8          8           0       -0.755744   -0.364742   -0.941643
      9         16           0        0.650414    0.181045   -1.650801
     10          8           0        0.706948    1.636340   -1.525206
     11          8           0        0.774311   -0.433369   -2.971371
     12          6           0        1.784529   -0.626751   -0.521994
     13          6           0        2.448240   -1.722887   -1.032030
     14          6           0        3.360012   -2.437243   -0.224593
     15          6           0        3.578805   -2.042009    1.073605
     16          6           0        2.913392   -0.914312    1.624267
     17          6           0        3.150529   -0.512219    2.966023
     18          6           0        2.514637    0.584497    3.498101
     19          6           0        1.616575    1.330528    2.700534
     20          6           0        1.359579    0.972199    1.395002
     21          6           0        1.990785   -0.163794    0.817485
     22          1           0       -2.322008   -1.025877    1.289817
     23          1           0       -3.312359    0.317919    1.887875
     24          1           0       -1.591962    0.554816    1.522304
     25          1           0       -4.848022    1.114532    0.274056
     26          1           0       -5.465088    1.704081   -2.051591
     27          1           0       -3.837465    1.317082   -3.900694
     28          1           0       -1.610049    0.335093   -3.397454
     29          1           0        2.260433   -2.029451   -2.054576
     30          1           0        3.877933   -3.297759   -0.636665
     31          1           0        4.274329   -2.590349    1.704273
     32          1           0        3.849739   -1.091248    3.564144
     33          1           0        2.703920    0.883666    4.525047
     34          1           0        1.126545    2.204937    3.119581
     35          1           0        0.690970    1.574303    0.793502
 ---------------------------------------------------------------------

 SCF Done:  E(RB3LYP) =  -1280.04520723     A.U. after   15 cycles

 Excitation energies and oscillator strengths:

 Excited state symmetry could not be determined.
 Excited State   1:      Triplet-?Sym    2.6744 eV  463.59 nm  f=0.0000  <S**2>=2.000
      75 -> 80         0.16261
      77 -> 79         0.65261
      78 -> 79        -0.14168
 This state for optimization and/or second-order correction.
 Total Energy, E(TD-HF/TD-DFT) =  -1279.94692423
 Copying the excited state density for this state as the 1-particle RhoCI density.

 Excited state symmetry could not be determined.
 Excited State   2:      Triplet-?Sym    3.6688 eV  337.94 nm  f=0.0000  <S**2>=2.000
      76 -> 81        -0.21866
      76 -> 82        -0.35186
      77 -> 81        -0.10139
      78 -> 79        -0.20584
      78 -> 81        -0.33183
      78 -> 82         0.26424
      78 -> 83        -0.27052

 Excited state symmetry could not be determined.
 Excited State   3:      Singlet-?Sym    4.0110 eV  309.11 nm  f=0.0019  <S**2>=0.000
      78 -> 79         0.69844

 Excited state symmetry could not be determined.
 Excited State   4:      Singlet-?Sym    4.1830 eV  296.40 nm  f=0.1206  <S**2>=0.000
      75 -> 80         0.11988
      77 -> 79         0.68249

 Alpha  occ. eigenvalues --  -89.13180 -19.20480 -19.15580 -19.15559 -10.25281
 Alpha  occ. eigenvalues --  -10.24011 -10.22797 -10.22060 -10.21972 -10.21656
 Alpha  occ. eigenvalues --  -10.21233 -10.20764 -10.20650 -10.20601 -10.20224
 Alpha  occ. eigenvalues --  -10.20150 -10.19105 -10.19077 -10.19031 -10.18846
 Alpha  occ. eigenvalues --  -10.18381  -8.15569  -6.12171  -6.11940  -6.11835
 Alpha  occ. eigenvalues --   -1.14048  -1.04675  -1.01275  -0.89546  -0.85699
 Alpha  occ. eigenvalues --   -0.84212  -0.80305  -0.77483  -0.76099  -0.75579
 Alpha  occ. eigenvalues --   -0.73988  -0.69632  -0.67724  -0.64125  -0.63385
 Alpha  occ. eigenvalues --   -0.62174  -0.59490  -0.57780  -0.54802  -0.53275
 Alpha  occ. eigenvalues --   -0.52208  -0.51432  -0.49932  -0.48752  -0.47717
 Alpha  occ. eigenvalues --   -0.46957  -0.45877  -0.44852  -0.44088  -0.43692
 Alpha  occ. eigenvalues --   -0.42641  -0.41911  -0.41831  -0.41141  -0.40884
 Alpha  occ. eigenvalues --   -0.39453  -0.39221  -0.38588  -0.36817  -0.36164
 Alpha  occ. eigenvalues --   -0.35932  -0.35300  -0.34751  -0.34425  -0.33567
 Alpha  occ. eigenvalues --   -0.31949  -0.31897  -0.30537  -0.29585  -0.26286
 Alpha  occ. eigenvalues --   -0.24718  -0.23776  -0.23483
 Alpha virt. eigenvalues --   -0.06801  -0.02798  -0.00736  -0.00054   0.00273
 Alpha virt. eigenvalues --    0.04682   0.06883   0.08310   0.08601   0.09241
 Alpha virt. eigenvalues --    0.10190   0.11239   0.11602   0.12425   0.13659

 Mulliken charges:
               1
     1  C   -0.521726
     2  C    0.149320
     3  C   -0.197892
     4  C   -0.114752
     5  C   -0.149539
     6  C   -0.151350
     7  C    0.269339
     8  O   -0.615712
     9  S    1.297904
    10  O   -0.521192
    11  O   -0.516934
    12  C   -0.246860
    13  C   -0.155008
    14  C   -0.130300
    15  C   -0.176204
    16  C    0.140096
    17  C   -0.190663
    18  C   -0.126605
    19  C   -0.141400
    20  C   -0.193790
    21  C    0.128576
    22  H    0.171440
    23  H    0.150991
    24  H    0.168476
    25  H    0.126901
    26  H    0.130615
    27  H    0.137462
    28  H    0.181948
    29  H    0.192520
    30  H    0.148509
    31  H    0.145330
    32  H    0.138843
    33  H    0.139852
    34  H    0.143100
    35  H    0.188709
 Sum of Mulliken charges =  -0.00000

 Dipole moment (field-independent basis, Debye):
    X=              0.6484    Y=             -1.6744    Z=              3.7949  Tot=              4.1983
 Quadrupole moment (field-independent basis, Debye-Ang):
   XX=           -111.1135   YY=           -125.5047   ZZ=           -122.1324
   XY=            -12.0867   XZ=              8.0937   YZ=              2.9820

 Normal termination of Gaussian 16 at Sat Nov  5 09:54:55 2022.
