 Gaussian 16, Revision B.01,
 Gaussian 16:  ES64L-G16RevB.01 20-Dec-2017

 -----------------------------
 #p b3lyp/6-31g(d) opt SCF=XQC
 -----------------------------

 ------------------------------
 Gaussian input prepared by ASE
 ------------------------------
 Symbolic Z-matrix:
 Charge =  0 Multiplicity = 1

 SCF Done:  E(RB3LYP) =  -1707.57136675     A.U. after   16 cycles
 SCF Done:  E(RB3LYP) =  -1707.58375867     A.U. after   15 cycles
 SCF Done:  E(RB3LYP) =  -1707.57815305     A.U. after   15 cycles
 SCF Done:  E(RB3LYP) =  -1707.57760456     A.U. after   13 cycles
 SCF Done:  E(RB3LYP) =  -1707.58774153     A.U. after   12 cycles
 SCF Done:  E(RB3LYP) =  -1707.59055210     A.U. after   13 cycles
 SCF Done:  E(RB3LYP) =  -1707.59121099     A.U. after   13 cycles
 SCF Done:  E(RB3LYP) =  -1707.59174780     A.U. after   12 cycles
 SCF Done:  E(RB3LYP) =  -1707.59232442     A.U. after   12 cycles
 SCF Done:  E(RB3LYP) =  -1707.59005911     A.U. after   15 cycles
 SCF Done:  E(RB3LYP) =  -1707.59292566     A.U. after    9 cycles
 SCF Done:  E(RB3LYP) =  -1707.59292659     A.U. after    9 cycles
 SCF Done:  E(RB3LYP) =  -1707.59292691     A.U. after    8 cycles
 SCF Done:  E(RB3LYP) =  -1707.59292710     A.U. after    7 cycles
 SCF Done:  E(RB3LYP) =  -1707.59292722     A.U. after    7 cycles
 SCF Done:  E(RB3LYP) =  -1707.59292728     A.U. after    7 cycles
 SCF Done:  E(RB3LYP) =  -1707.59292735     A.U. after    7 cycles
 SCF Done:  E(RB3LYP) =  -1707.59292745     A.U. after    7 cycles
 SCF Done:  E(RB3LYP) =  -1707.59292748     A.U. after    7 cycles
 SCF Done:  E(RB3LYP) =  -1707.59292749     A.U. after    6 cycles
 Optimization completed.
    -- Stationary point found.

                         Standard orientation:
 ---------------------------------------------------------------------
 Center     Atomic      Atomic             Coordinates (Angstroms)
 Number     Number       Type             X           Y           Z
 ---------------------------------------------------------------------
      1          6           0       -1.869737    4.845240   -0.337583
      2          6           0       -1.514697    3.447348   -0.786040
      3          6           0       -0.732490    3.231755   -1.928334
      4          6           0       -0.429568    1.938805   -2.346275
      5          6           0       -0.889774    0.807920   -1.649475
      6         15           0       -0.635383   -0.888842   -2.323119
      7          6           0        1.043514   -1.414013   -1.736024
      8          6           0        2.127998   -0.541244   -1.580752
      9          6           0        3.393303   -0.984270   -1.187028
     10          6           0        4.544283   -0.005615   -1.013897
     11          6           0        4.443559    0.860054    0.234433
     12          6           0        4.297771    2.248183    0.138645
     13          6           0        4.207495    3.043664    1.284198
     14          6           0        4.265709    2.458730    2.548275
     15          6           0        4.414456    1.072950    2.658238
     16          6           0        4.499495    0.283631    1.512162
     17          6           0        3.561029   -2.356003   -0.949498
     18          6           0        2.502759   -3.247364   -1.079152
     19          6           0        1.238985   -2.784963   -1.464692
     20          8           0        0.250835   -3.715999   -1.576210
     21          6           0       -1.670809    1.022481   -0.492706
     22          7           0       -2.184675   -0.073456    0.267910
     23          6           0       -3.583768   -0.115048    0.518978
     24          6           0       -4.094628   -0.416612    1.792259
     25          6           0       -5.471661   -0.449650    2.007170
     26          6           0       -6.362766   -0.167277    0.970322
     27          6           0       -5.857288    0.143044   -0.294123
     28          6           0       -4.483621    0.162414   -0.523903
     29          6           0       -1.287538   -0.892199    1.010326
     30          6           0       -1.577074   -2.253312    1.209765
     31          6           0       -0.702335   -3.057819    1.935000
     32          6           0        0.482137   -2.530353    2.456265
     33          6           0        0.778069   -1.183154    2.248776
     34          6           0       -0.101146   -0.364238    1.540599
     35          6           0       -1.966682    2.329845   -0.081155
     36          1           0       -1.026586    5.533077   -0.465844
     37          1           0       -2.707224    5.246915   -0.923310
     38          1           0       -2.167788    4.865264    0.715316
     39          1           0       -0.362173    4.080980   -2.498020
     40          1           0        0.162205    1.801680   -3.247395
     41          1           0       -0.261875   -0.471407   -3.629953
     42          1           0        1.975861    0.520215   -1.763443
     43          1           0        4.607742    0.650014   -1.891269
     44          1           0        5.485326   -0.570404   -0.985975
     45          1           0        4.257699    2.713852   -0.843845
     46          1           0        4.094122    4.120313    1.185470
     47          1           0        4.199103    3.074439    3.441292
     48          1           0        4.468625    0.607757    3.639476
     49          1           0        4.608034   -0.794410    1.606502
     50          1           0        4.538880   -2.733600   -0.657497
     51          1           0        2.630276   -4.308183   -0.887296
     52          1           0       -0.591322   -3.253325   -1.748752
     53          1           0       -3.411493   -0.624881    2.608862
     54          1           0       -5.847351   -0.685101    2.999712
     55          1           0       -7.434754   -0.189983    1.144313
     56          1           0       -6.536412    0.358741   -1.115012
     57          1           0       -4.097725    0.388283   -1.512913
     58          1           0       -2.488964   -2.670241    0.793802
     59          1           0       -0.939902   -4.108915    2.075565
     60          1           0        1.167611   -3.165177    3.010405
     61          1           0        1.698043   -0.755651    2.637461
     62          1           0        0.135901    0.683945    1.391377
     63          1           0       -2.568960    2.463046    0.813425
 ---------------------------------------------------------------------

 The electronic state is 1-A.
 Alpha  occ. eigenvalues --  -77.08471 -19.16441 -14.36009 -10.24418 -10.23436
 Alpha  occ. eigenvalues --  -10.22635 -10.22366 -10.20637 -10.20238 -10.19989
 Alpha  occ. eigenvalues --  -10.19423 -10.19281 -10.19175 -10.19085 -10.19004
 Alpha  occ. eigenvalues --  -10.18917 -10.18797 -10.18758 -10.18697 -10.18685
 Alpha  occ. eigenvalues --  -10.18640 -10.18623 -10.18593 -10.18552 -10.18545
 Alpha  occ. eigenvalues --  -10.18463 -10.18347 -10.18323 -10.18321 -10.18201
 Alpha  occ. eigenvalues --  -10.18167 -10.18081 -10.17947 -10.17843 -10.17800
 Alpha  occ. eigenvalues --   -6.55437  -4.71693  -4.71665  -4.71192  -1.04718
 Alpha  occ. eigenvalues --   -0.96055  -0.86115  -0.85562  -0.84777  -0.84255
 Alpha  occ. eigenvalues --   -0.83138  -0.78358  -0.77843  -0.75636  -0.74855
 Alpha  occ. eigenvalues --   -0.74597  -0.74008  -0.73894  -0.73550  -0.73193
 Alpha  occ. eigenvalues --   -0.70444  -0.69843  -0.67182  -0.64273  -0.62585
 Alpha  occ. eigenvalues --   -0.61660  -0.60423  -0.60229  -0.59703  -0.59438
 Alpha  occ. eigenvalues --   -0.59109  -0.58056  -0.56623  -0.55686  -0.52876
 Alpha  occ. eigenvalues --   -0.52688  -0.51315  -0.50803  -0.49109  -0.48305
 Alpha  occ. eigenvalues --   -0.47873  -0.47191  -0.47056  -0.45988  -0.45473
 Alpha  occ. eigenvalues --   -0.44693  -0.44182  -0.43735  -0.43500  -0.42921
 Alpha  occ. eigenvalues --   -0.42455  -0.42375  -0.42317  -0.41658  -0.41636
 Alpha  occ. eigenvalues --   -0.41347  -0.41270  -0.40508  -0.40012  -0.39653
 Alpha  occ. eigenvalues --   -0.39376  -0.38512  -0.36987  -0.36903  -0.36616
 Alpha  occ. eigenvalues --   -0.36439  -0.35946  -0.35721  -0.35363  -0.35075
 Alpha  occ. eigenvalues --   -0.34790  -0.34506  -0.34118  -0.33934  -0.33490
 Alpha  occ. eigenvalues --   -0.33303  -0.32226  -0.31458  -0.29828  -0.26416
 Alpha  occ. eigenvalues --   -0.26148  -0.25444  -0.24879  -0.24687  -0.24294
 Alpha  occ. eigenvalues --   -0.24024  -0.23847  -0.23122  -0.20752  -0.18561
 Alpha virt. eigenvalues --   -0.02602  -0.01806  -0.01335  -0.00444   0.00054
 Alpha virt. eigenvalues --    0.00118   0.00209   0.01245   0.02221   0.03180
 Alpha virt. eigenvalues --    0.05781   0.05993   0.08947   0.09476   0.10051

 Mulliken charges:
               1
     1  C   -0.530942
     2  C    0.169844
     3  C   -0.162386
     4  C   -0.175633
     5  C   -0.094683
     6  P    0.172767
     7  C   -0.138141
     8  C   -0.209171
     9  C    0.203117
    10  C   -0.453198
    11  C    0.195560
    12  C   -0.192697
    13  C   -0.125519
    14  C   -0.132532
    15  C   -0.131810
    16  C   -0.175158
    17  C   -0.202689
    18  C   -0.149713
    19  C    0.326622
    20  O   -0.649731
    21  C    0.212299
    22  N   -0.638380
    23  C    0.285727
    24  C   -0.174824
    25  C   -0.140492
    26  C   -0.129372
    27  C   -0.139423
    28  C   -0.162664
    29  C    0.279005
    30  C   -0.164043
    31  C   -0.130208
    32  C   -0.127300
    33  C   -0.134965
    34  C   -0.173573
    35  C   -0.194039
    36  H    0.160508
    37  H    0.170127
    38  H    0.162011
    39  H    0.125461
    40  H    0.135898
    41  H   -0.006269
    42  H    0.129397
    43  H    0.150063
    44  H    0.154636
    45  H    0.120527
    46  H    0.126566
    47  H    0.127453
    48  H    0.128431
    49  H    0.128550
    50  H    0.122662
    51  H    0.136596
    52  H    0.423028
    53  H    0.146038
    54  H    0.129540
    55  H    0.125409
    56  H    0.129233
    57  H    0.143041
    58  H    0.143059
    59  H    0.131240
    60  H    0.123571
    61  H    0.136809
    62  H    0.144131
    63  H    0.140630
 Sum of Mulliken charges =  -0.00000

 Dipole moment (field-independent basis, Debye):
    X=              0.0572    Y=              2.8903    Z=              0.3838  Tot=              2.9162
 Quadrupole moment (field-independent basis, Debye-Ang):
   XX=           -201.8724   YY=           -200.5277   ZZ=           -202.5743
   XY=             -2.9064   XZ=              0.5024   YZ=             -8.2865

 Normal termination of Gaussian 16 at Sat Nov  5 00:13:07 2022.
