 Gaussian 16, Revision B.01,
 Gaussian 16:  ES64L-G16RevB.01 20-Dec-2017

 -------------------------------------------------------------------
 #p b3lyp/6-31g(d) 6D 10F nosymm GFInput td=(50-50,nstate=2) SCF=XQC
 -------------------------------------------------------------------

 ------------------------------
 Gaussian input prepared by ASE
 ------------------------------
 Symbolic Z-matrix:
 Charge =  0 Multiplicity = 1

                          Input orientation:
 ---------------------------------------------------------------------
 Center     Atomic      Atomic             Coordinates (Angstroms)
 Number     Number       Type             X           Y           Z
 ---------------------------------------------------------------------
      1          6           0        0.480213   -1.917493    4.653124
      2          6           0        0.307828   -0.824714    3.624831
      3          6           0        1.208948    0.245577    3.549843
      4          6           0        1.028602    1.259684    2.613243
      5          6           0       -0.051821    1.254108    1.713867
      6         15           0       -0.375431    2.696051    0.612236
      7          6           0        0.667914    2.418172   -0.895543
      8          6           0        1.928999    1.808935   -0.874654
      9          6           0        2.708775    1.665563   -2.025167
     10          6           0        4.067433    0.984945   -1.967719
     11          6           0        4.000261   -0.527597   -1.807841
     12          6           0        4.502246   -1.153883   -0.661931
     13          6           0        4.442918   -2.542507   -0.515525
     14          6           0        3.880787   -3.328379   -1.520433
     15          6           0        3.378320   -2.715538   -2.672196
     16          6           0        3.435976   -1.329490   -2.811102
     17          6           0        2.192359    2.161260   -3.230904
     18          6           0        0.938400    2.757376   -3.290085
     19          6           0        0.165976    2.883746   -2.129493
     20          8           0       -1.050255    3.482837   -2.262074
     21          6           0       -0.956497    0.171897    1.781289
     22          7           0       -2.085896    0.095034    0.908234
     23          6           0       -3.372784   -0.062641    1.492429
     24          6           0       -4.302242   -0.987010    0.987639
     25          6           0       -5.556276   -1.118629    1.582260
     26          6           0       -5.902329   -0.350799    2.695607
     27          6           0       -4.976208    0.561637    3.205889
     28          6           0       -3.726732    0.713112    2.609232
     29          6           0       -1.882647   -0.145136   -0.480069
     30          6           0       -2.775043    0.389682   -1.425497
     31          6           0       -2.579933    0.157530   -2.784321
     32          6           0       -1.486439   -0.591128   -3.227822
     33          6           0       -0.592289   -1.112066   -2.292572
     34          6           0       -0.789855   -0.901825   -0.928048
     35          6           0       -0.762077   -0.844307    2.727675
     36          1           0        1.535452   -2.182311    4.782808
     37          1           0        0.103348   -1.599302    5.634210
     38          1           0       -0.065548   -2.823332    4.371290
     39          1           0        2.054644    0.288957    4.232319
     40          1           0        1.732055    2.087755    2.591585
     41          1           0        0.496044    3.593324    1.288260
     42          1           0        2.309160    1.424988    0.069422
     43          1           0        4.654321    1.399613   -1.138701
     44          1           0        4.621048    1.226315   -2.884551
     45          1           0        4.948352   -0.548869    0.124636
     46          1           0        4.838953   -3.007291    0.383867
     47          1           0        3.835858   -4.408719   -1.411518
     48          1           0        2.944843   -3.320089   -3.465153
     49          1           0        3.036449   -0.860102   -3.707152
     50          1           0        2.783262    2.079062   -4.140912
     51          1           0        0.534836    3.133772   -4.224894
     52          1           0       -1.522223    3.415366   -1.410157
     53          1           0       -4.039588   -1.598501    0.130911
     54          1           0       -6.261678   -1.839581    1.176853
     55          1           0       -6.879165   -0.460544    3.157878
     56          1           0       -5.231001    1.172889    4.067890
     57          1           0       -3.017737    1.435685    3.000749
     58          1           0       -3.617412    0.984192   -1.085833
     59          1           0       -3.277213    0.582435   -3.501438
     60          1           0       -1.331409   -0.758636   -4.289827
     61          1           0        0.269320   -1.688809   -2.616894
     62          1           0       -0.091820   -1.317795   -0.209119
     63          1           0       -1.474357   -1.664479    2.754645
 ---------------------------------------------------------------------

 SCF Done:  E(RB3LYP) =  -1707.59293638     A.U. after   16 cycles

 Excitation energies and oscillator strengths:

 Excited state symmetry could not be determined.
 Excited State   1:      Triplet-?Sym    3.1505 eV  393.54 nm  f=0.0000  <S**2>=2.000
     116 ->127        -0.10391
     123 ->126        -0.13416
     125 ->126         0.51772
     125 ->127         0.19998
     125 ->128         0.16820
     125 ->129        -0.20742
 This state for optimization and/or second-order correction.
 Total Energy, E(TD-HF/TD-DFT) =  -1707.47715736
 Copying the excited state density for this state as the 1-particle RhoCI density.

 Excited state symmetry could not be determined.
 Excited State   2:      Triplet-?Sym    3.2370 eV  383.02 nm  f=0.0000  <S**2>=2.000
     117 ->135         0.10555
     125 ->127         0.39414
     125 ->128         0.11253
     125 ->129         0.42239
     125 ->131        -0.15874

 Excited state symmetry could not be determined.
 Excited State   3:      Singlet-?Sym    3.6474 eV  339.92 nm  f=0.0741  <S**2>=0.000
     125 ->126         0.69600

 Excited state symmetry could not be determined.
 Excited State   4:      Singlet-?Sym    3.9012 eV  317.81 nm  f=0.0620  <S**2>=0.000
     125 ->127         0.61945
     125 ->128         0.32018

 Alpha  occ. eigenvalues --  -77.08471 -19.16441 -14.36009 -10.24419 -10.23436
 Alpha  occ. eigenvalues --  -10.22634 -10.22366 -10.20637 -10.20239 -10.19989
 Alpha  occ. eigenvalues --  -10.19423 -10.19281 -10.19175 -10.19085 -10.19005
 Alpha  occ. eigenvalues --  -10.18918 -10.18797 -10.18758 -10.18697 -10.18685
 Alpha  occ. eigenvalues --  -10.18640 -10.18623 -10.18593 -10.18552 -10.18545
 Alpha  occ. eigenvalues --  -10.18463 -10.18347 -10.18323 -10.18320 -10.18201
 Alpha  occ. eigenvalues --  -10.18167 -10.18081 -10.17947 -10.17843 -10.17800
 Alpha  occ. eigenvalues --   -6.55437  -4.71693  -4.71665  -4.71192  -1.04719
 Alpha  occ. eigenvalues --   -0.96055  -0.86115  -0.85562  -0.84777  -0.84255
 Alpha  occ. eigenvalues --   -0.83138  -0.78358  -0.77843  -0.75636  -0.74855
 Alpha  occ. eigenvalues --   -0.74597  -0.74008  -0.73894  -0.73550  -0.73193
 Alpha  occ. eigenvalues --   -0.70444  -0.69843  -0.67182  -0.64273  -0.62585
 Alpha  occ. eigenvalues --   -0.61660  -0.60423  -0.60229  -0.59703  -0.59438
 Alpha  occ. eigenvalues --   -0.59109  -0.58056  -0.56623  -0.55687  -0.52876
 Alpha  occ. eigenvalues --   -0.52688  -0.51315  -0.50803  -0.49109  -0.48305
 Alpha  occ. eigenvalues --   -0.47873  -0.47191  -0.47056  -0.45988  -0.45473
 Alpha  occ. eigenvalues --   -0.44693  -0.44182  -0.43735  -0.43500  -0.42921
 Alpha  occ. eigenvalues --   -0.42455  -0.42375  -0.42317  -0.41658  -0.41636
 Alpha  occ. eigenvalues --   -0.41347  -0.41270  -0.40508  -0.40012  -0.39653
 Alpha  occ. eigenvalues --   -0.39376  -0.38512  -0.36987  -0.36903  -0.36616
 Alpha  occ. eigenvalues --   -0.36439  -0.35946  -0.35721  -0.35363  -0.35075
 Alpha  occ. eigenvalues --   -0.34790  -0.34506  -0.34118  -0.33934  -0.33490
 Alpha  occ. eigenvalues --   -0.33303  -0.32226  -0.31458  -0.29828  -0.26416
 Alpha  occ. eigenvalues --   -0.26148  -0.25444  -0.24879  -0.24687  -0.24294
 Alpha  occ. eigenvalues --   -0.24024  -0.23847  -0.23122  -0.20752  -0.18561
 Alpha virt. eigenvalues --   -0.02602  -0.01806  -0.01335  -0.00444   0.00054
 Alpha virt. eigenvalues --    0.00118   0.00209   0.01245   0.02221   0.03180
 Alpha virt. eigenvalues --    0.05781   0.05993   0.08947   0.09476   0.10051

 Mulliken charges:
               1
     1  C   -0.530938
     2  C    0.169802
     3  C   -0.162360
     4  C   -0.175654
     5  C   -0.094670
     6  P    0.172776
     7  C   -0.138164
     8  C   -0.209154
     9  C    0.203123
    10  C   -0.453208
    11  C    0.195568
    12  C   -0.192702
    13  C   -0.125518
    14  C   -0.132534
    15  C   -0.131815
    16  C   -0.175148
    17  C   -0.202687
    18  C   -0.149703
    19  C    0.326601
    20  O   -0.649723
    21  C    0.212265
    22  N   -0.638400
    23  C    0.285753
    24  C   -0.174828
    25  C   -0.140490
    26  C   -0.129372
    27  C   -0.139419
    28  C   -0.162681
    29  C    0.279010
    30  C   -0.164050
    31  C   -0.130201
    32  C   -0.127308
    33  C   -0.134965
    34  C   -0.173571
    35  C   -0.193991
    36  H    0.160507
    37  H    0.170128
    38  H    0.162011
    39  H    0.125462
    40  H    0.135899
    41  H   -0.006268
    42  H    0.129392
    43  H    0.150065
    44  H    0.154637
    45  H    0.120532
    46  H    0.126565
    47  H    0.127453
    48  H    0.128430
    49  H    0.128549
    50  H    0.122663
    51  H    0.136596
    52  H    0.423026
    53  H    0.146040
    54  H    0.129539
    55  H    0.125408
    56  H    0.129233
    57  H    0.143043
    58  H    0.143057
    59  H    0.131241
    60  H    0.123573
    61  H    0.136810
    62  H    0.144142
    63  H    0.140625
 Sum of Mulliken charges =  -0.00000

 Dipole moment (field-independent basis, Debye):
    X=              1.1882    Y=             -1.8138    Z=              1.9500  Tot=              2.9162
 Quadrupole moment (field-independent basis, Debye-Ang):
   XX=           -202.2938   YY=           -210.2215   ZZ=           -193.7495
   XY=              2.8063   XZ=              2.0459   YZ=              2.7393

 Normal termination of Gaussian 16 at Sat Nov  5 09:53:05 2022.
