 Gaussian 16, Revision B.01,
 Gaussian 16:  ES64L-G16RevB.01 20-Dec-2017

 -----------------------------
 #p b3lyp/6-31g(d) opt SCF=XQC
 -----------------------------

 ------------------------------
 Gaussian input prepared by ASE
 ------------------------------
 Symbolic Z-matrix:
 Charge =  0 Multiplicity = 1

 SCF Done:  E(RB3LYP) =  -2181.83786927     A.U. after   20 cycles
 SCF Done:  E(RB3LYP) =  -2181.84783112     A.U. after   16 cycles
 SCF Done:  E(RB3LYP) =  -2181.85021353     A.U. after   13 cycles
 SCF Done:  E(RB3LYP) =  -2181.85042506     A.U. after   12 cycles
 SCF Done:  E(RB3LYP) =  -2181.85046264     A.U. after   11 cycles
 SCF Done:  E(RB3LYP) =  -2181.85047170     A.U. after    9 cycles
 SCF Done:  E(RB3LYP) =  -2181.85047358     A.U. after    8 cycles
 SCF Done:  E(RB3LYP) =  -2181.85047444     A.U. after    8 cycles
 SCF Done:  E(RB3LYP) =  -2181.85047511     A.U. after    8 cycles
 SCF Done:  E(RB3LYP) =  -2181.85047633     A.U. after    8 cycles
 SCF Done:  E(RB3LYP) =  -2181.85050877     A.U. after   12 cycles
 SCF Done:  E(RB3LYP) =  -2181.85052305     A.U. after   11 cycles
 SCF Done:  E(RB3LYP) =  -2181.85052328     A.U. after   11 cycles
 SCF Done:  E(RB3LYP) =  -2181.85054183     A.U. after   10 cycles
 SCF Done:  E(RB3LYP) =  -2181.85054973     A.U. after   11 cycles
 SCF Done:  E(RB3LYP) =  -2181.85055393     A.U. after    9 cycles
 SCF Done:  E(RB3LYP) =  -2181.85055426     A.U. after    8 cycles
 SCF Done:  E(RB3LYP) =  -2181.85055455     A.U. after    8 cycles
 SCF Done:  E(RB3LYP) =  -2181.85055469     A.U. after    8 cycles
 SCF Done:  E(RB3LYP) =  -2181.85055472     A.U. after    7 cycles
 Optimization completed.
    -- Stationary point found.

                         Standard orientation:
 ---------------------------------------------------------------------
 Center     Atomic      Atomic             Coordinates (Angstroms)
 Number     Number       Type             X           Y           Z
 ---------------------------------------------------------------------
      1          6           0        9.158740   -2.398092   -0.064831
      2          6           0        8.448038   -1.082972   -0.048721
      3          6           0        8.942172    0.215428   -0.042232
      4          6           0        7.841173    1.099086   -0.027159
      5          6           0        6.676270    0.329241   -0.024516
      6          6           0        5.282354    0.721888   -0.011022
      7          6           0        4.879744    2.053712    0.002140
      8          6           0        3.532637    2.468651    0.015376
      9          6           0        2.450363    1.593873    0.016772
     10          6           0        1.078754    2.058587    0.030454
     11          6           0        0.577981    3.370289    0.043595
     12          6           0       -0.819090    3.297949    0.053148
     13          6           0       -1.181866    1.941722    0.046149
     14          6           0       -2.497718    1.336066    0.051725
     15          6           0       -3.662658    2.092841    0.072756
     16          6           0       -4.959332    1.534976    0.080760
     17          6           0       -5.222018    0.169018    0.057825
     18          6           0       -6.562172   -0.381073    0.043469
     19          6           0       -7.042100   -1.672232    0.252491
     20          6           0       -8.452832   -1.635076    0.153024
     21          6           0       -8.830411   -0.331242   -0.123091
     22          6           0      -10.178537    0.272690   -0.350604
     23          7           0       -7.679921    0.416791   -0.173416
     24          6           0       -4.047002   -0.666675    0.044489
     25          7           0       -4.040155   -2.002937    0.029289
     26         16           0       -2.470001   -2.482709    0.016468
     27          7           0       -1.738454   -1.009012    0.026655
     28          6           0       -2.707783   -0.088787    0.041404
     29          7           0       -0.011257    1.220502    0.032275
     30          6           0        2.807950    0.200315    0.003551
     31          7           0        1.944972   -0.820960    0.002263
     32         16           0        2.821326   -2.209862   -0.014837
     33          7           0        4.334625   -1.562380   -0.021254
     34          6           0        4.201353   -0.229626   -0.010146
     35          7           0        7.082769   -0.993962   -0.037908
     36          1           0        8.908214   -2.991767   -0.954349
     37          1           0       10.240526   -2.238334   -0.067580
     38          1           0        8.915288   -3.009499    0.814550
     39          1           0        9.990080    0.484944   -0.047875
     40          1           0        7.886774    2.179497   -0.018931
     41          1           0        5.641824    2.826859    0.002324
     42          1           0        3.339849    3.536856    0.024992
     43          1           0        1.170405    4.274596    0.045601
     44          1           0       -1.501361    4.136547    0.063730
     45          1           0       -3.583876    3.175310    0.093182
     46          1           0       -5.788453    2.235659    0.131882
     47          1           0       -6.424238   -2.530620    0.463820
     48          1           0       -9.131932   -2.469233    0.270345
     49          1           0      -10.951239   -0.494698   -0.253184
     50          1           0      -10.404731    1.065476    0.375347
     51          1           0      -10.273170    0.710857   -1.353813
     52          1           0       -7.647893    1.386405   -0.448211
     53          1           0        0.037992    0.205107    0.024716
     54          1           0        6.422624   -1.762454   -0.038819
 ---------------------------------------------------------------------

 The electronic state is 1-A.
 Alpha  occ. eigenvalues --  -88.97402 -88.96770 -14.37639 -14.37560 -14.37395
 Alpha  occ. eigenvalues --  -14.36878 -14.36718 -14.36583 -14.36578 -10.24744
 Alpha  occ. eigenvalues --  -10.24667 -10.24334 -10.24232 -10.21799 -10.21780
 Alpha  occ. eigenvalues --  -10.21736 -10.21361 -10.21313 -10.21262 -10.21242
 Alpha  occ. eigenvalues --  -10.21162 -10.21161 -10.21086 -10.20126 -10.19985
 Alpha  occ. eigenvalues --  -10.19909 -10.19748 -10.19635 -10.19095 -10.17541
 Alpha  occ. eigenvalues --  -10.17485 -10.16983 -10.16743 -10.16680 -10.16581
 Alpha  occ. eigenvalues --   -8.02952  -8.02336  -5.99511  -5.98934  -5.98890
 Alpha  occ. eigenvalues --   -5.98649  -5.98310  -5.98043  -1.02128  -1.01589
 Alpha  occ. eigenvalues --   -0.97571  -0.97367  -0.97044  -0.89538  -0.89029
 Alpha  occ. eigenvalues --   -0.86101  -0.85684  -0.79551  -0.78544  -0.77472
 Alpha  occ. eigenvalues --   -0.77202  -0.76888  -0.76094  -0.75786  -0.75586
 Alpha  occ. eigenvalues --   -0.74817  -0.71452  -0.68356  -0.66273  -0.64601
 Alpha  occ. eigenvalues --   -0.64302  -0.62002  -0.61429  -0.60961  -0.59216
 Alpha  occ. eigenvalues --   -0.58752  -0.58475  -0.58218  -0.56912  -0.56109
 Alpha  occ. eigenvalues --   -0.55282  -0.52883  -0.51529  -0.50837  -0.50250
 Alpha  occ. eigenvalues --   -0.49501  -0.48570  -0.47876  -0.46296  -0.45561
 Alpha  occ. eigenvalues --   -0.45072  -0.44569  -0.43869  -0.43638  -0.43255
 Alpha  occ. eigenvalues --   -0.43233  -0.42584  -0.42321  -0.41658  -0.41344
 Alpha  occ. eigenvalues --   -0.40753  -0.39897  -0.39491  -0.39167  -0.39089
 Alpha  occ. eigenvalues --   -0.38864  -0.38844  -0.38558  -0.38319  -0.38086
 Alpha  occ. eigenvalues --   -0.37557  -0.36928  -0.36528  -0.36303  -0.36100
 Alpha  occ. eigenvalues --   -0.35922  -0.34734  -0.33639  -0.32927  -0.32447
 Alpha  occ. eigenvalues --   -0.32011  -0.30799  -0.29814  -0.27601  -0.26606
 Alpha  occ. eigenvalues --   -0.26313  -0.25771  -0.24350  -0.24150  -0.23852
 Alpha  occ. eigenvalues --   -0.21574  -0.18887  -0.16103
 Alpha virt. eigenvalues --   -0.09297  -0.08146  -0.02383  -0.00571   0.00012
 Alpha virt. eigenvalues --    0.01101   0.01155   0.01206   0.04141   0.05501
 Alpha virt. eigenvalues --    0.06587   0.06623   0.07407   0.07747   0.08302

 Mulliken charges:
               1
     1  C   -0.534153
     2  C    0.366404
     3  C   -0.231717
     4  C   -0.197777
     5  C    0.266633
     6  C    0.176073
     7  C   -0.237755
     8  C   -0.233137
     9  C    0.158757
    10  C    0.314387
    11  C   -0.213402
    12  C   -0.213609
    13  C    0.313228
    14  C    0.158791
    15  C   -0.228621
    16  C   -0.242457
    17  C    0.183935
    18  C    0.258349
    19  C   -0.189855
    20  C   -0.231812
    21  C    0.365846
    22  C   -0.536650
    23  N   -0.691535
    24  C    0.185333
    25  N   -0.577344
    26  S    0.563234
    27  N   -0.615614
    28  C    0.200601
    29  N   -0.780781
    30  C    0.207209
    31  N   -0.610624
    32  S    0.567957
    33  N   -0.628943
    34  C    0.205812
    35  N   -0.698652
    36  H    0.163057
    37  H    0.168482
    38  H    0.162962
    39  H    0.120619
    40  H    0.126100
    41  H    0.138265
    42  H    0.137588
    43  H    0.130530
    44  H    0.129155
    45  H    0.135336
    46  H    0.113826
    47  H    0.156678
    48  H    0.122217
    49  H    0.173168
    50  H    0.162051
    51  H    0.161066
    52  H    0.324610
    53  H    0.419320
    54  H    0.356856
 Sum of Mulliken charges =  -0.00000

 Dipole moment (field-independent basis, Debye):
    X=             -1.4939    Y=              1.0533    Z=             -0.4502  Tot=              1.8825
 Quadrupole moment (field-independent basis, Debye-Ang):
   XX=           -172.3155   YY=           -192.6446   ZZ=           -220.0718
   XY=            -22.2933   XZ=              3.7916   YZ=             -1.2592

 Normal termination of Gaussian 16 at Sat Nov  5 00:10:34 2022.
