 Gaussian 16, Revision B.01,
 Gaussian 16:  ES64L-G16RevB.01 20-Dec-2017

 -------------------------------------------------------------------
 #p b3lyp/6-31g(d) 6D 10F nosymm GFInput td=(50-50,nstate=2) SCF=XQC
 -------------------------------------------------------------------

 ------------------------------
 Gaussian input prepared by ASE
 ------------------------------
 Symbolic Z-matrix:
 Charge =  0 Multiplicity = 1

                          Input orientation:
 ---------------------------------------------------------------------
 Center     Atomic      Atomic             Coordinates (Angstroms)
 Number     Number       Type             X           Y           Z
 ---------------------------------------------------------------------
      1          6           0       -9.184724    1.091875    2.571253
      2          6           0       -8.485191    0.377560    1.459810
      3          6           0       -8.989145   -0.366759    0.400530
      4          6           0       -7.896314   -0.825794   -0.366467
      5          6           0       -6.726489   -0.355662    0.233659
      6          6           0       -5.337133   -0.529787   -0.136106
      7          6           0       -4.945548   -1.262995   -1.251943
      8          6           0       -3.603135   -1.451096   -1.638713
      9          6           0       -2.515009   -0.925018   -0.948946
     10          6           0       -1.148522   -1.140113   -1.377786
     11          6           0       -0.658746   -1.858301   -2.480435
     12          6           0        0.737444   -1.771343   -2.465458
     13          6           0        1.110684   -0.999708   -1.353577
     14          6           0        2.430024   -0.617081   -0.893951
     15          6           0        3.588079   -1.008246   -1.554353
     16          6           0        4.887997   -0.654875   -1.132470
     17          6           0        5.160531    0.131477   -0.017685
     18          6           0        6.502623    0.500837    0.383789
     19          6           0        7.003686    1.061393    1.556744
     20          6           0        8.406856    1.178855    1.419794
     21          6           0        8.758436    0.700704    0.168175
     22          6           0       10.087599    0.608085   -0.509090
     23          7           0        7.600674    0.282871   -0.440688
     24          6           0        3.993479    0.559583    0.713026
     25          7           0        3.997023    1.312471    1.817119
     26         16           0        2.432445    1.527405    2.266148
     27          7           0        1.690144    0.673552    1.071589
     28          6           0        2.651169    0.189355    0.278736
     29          7           0       -0.052953   -0.634419   -0.718605
     30          6           0       -2.861121   -0.155784    0.216615
     31          7           0       -1.990894    0.445107    1.034766
     32         16           0       -2.855278    1.194632    2.213064
     33          7           0       -4.372178    0.781780    1.725298
     34          6           0       -4.249663    0.039197    0.617291
     35          7           0       -7.122042    0.372807    1.342333
     36          1           0       -8.976460    2.170316    2.564393
     37          1           0      -10.266452    0.963185    2.475874
     38          1           0       -8.890163    0.709065    3.557706
     39          1           0      -10.038112   -0.552538    0.210968
     40          1           0       -7.950458   -1.433157   -1.259559
     41          1           0       -5.713002   -1.721503   -1.867820
     42          1           0       -3.419053   -2.043497   -2.529498
     43          1           0       -1.257788   -2.384353   -3.210613
     44          1           0        1.412283   -2.218101   -3.182292
     45          1           0        3.501428   -1.628195   -2.441212
     46          1           0        5.712767   -1.053152   -1.717399
     47          1           0        6.405024    1.337131    2.410451
     48          1           0        9.098151    1.570215    2.154442
     49          1           0       10.870756    0.982663    0.155591
     50          1           0       10.345092   -0.425992   -0.775662
     51          1           0       10.125567    1.203123   -1.432054
     52          1           0        7.546097   -0.027233   -1.398575
     53          1           0       -0.094033   -0.067362    0.124169
     54          1           0       -6.456454    0.825340    1.957621
 ---------------------------------------------------------------------

 SCF Done:  E(RB3LYP) =  -2181.85055375     A.U. after   21 cycles

 Excitation energies and oscillator strengths:

 Excited state symmetry could not be determined.
 Excited State   1:      Triplet-?Sym    0.8778 eV 1412.44 nm  f=0.0000  <S**2>=2.000
     127 ->130        -0.15581
     128 ->129         0.68328
     128 <-129         0.11810
 This state for optimization and/or second-order correction.
 Total Energy, E(TD-HF/TD-DFT) =  -2181.81829504
 Copying the excited state density for this state as the 1-particle RhoCI density.

 Excited state symmetry could not be determined.
 Excited State   2:      Triplet-?Sym    1.2264 eV 1010.93 nm  f=0.0000  <S**2>=2.000
     127 ->129        -0.27912
     128 ->130         0.62929

 Excited state symmetry could not be determined.
 Excited State   3:      Singlet-?Sym    1.5744 eV  787.49 nm  f=0.5561  <S**2>=0.000
     128 ->129         0.69714

 Excited state symmetry could not be determined.
 Excited State   4:      Singlet-?Sym    1.7874 eV  693.67 nm  f=0.0823  <S**2>=0.000
     128 ->130         0.69705

 Alpha  occ. eigenvalues --  -88.97402 -88.96770 -14.37639 -14.37560 -14.37395
 Alpha  occ. eigenvalues --  -14.36878 -14.36718 -14.36583 -14.36578 -10.24744
 Alpha  occ. eigenvalues --  -10.24667 -10.24334 -10.24232 -10.21799 -10.21780
 Alpha  occ. eigenvalues --  -10.21736 -10.21361 -10.21313 -10.21262 -10.21242
 Alpha  occ. eigenvalues --  -10.21162 -10.21161 -10.21086 -10.20126 -10.19985
 Alpha  occ. eigenvalues --  -10.19909 -10.19748 -10.19635 -10.19095 -10.17541
 Alpha  occ. eigenvalues --  -10.17485 -10.16983 -10.16743 -10.16680 -10.16581
 Alpha  occ. eigenvalues --   -8.02952  -8.02336  -5.99511  -5.98934  -5.98890
 Alpha  occ. eigenvalues --   -5.98649  -5.98310  -5.98043  -1.02128  -1.01589
 Alpha  occ. eigenvalues --   -0.97571  -0.97367  -0.97044  -0.89538  -0.89029
 Alpha  occ. eigenvalues --   -0.86101  -0.85684  -0.79551  -0.78544  -0.77472
 Alpha  occ. eigenvalues --   -0.77202  -0.76888  -0.76094  -0.75786  -0.75586
 Alpha  occ. eigenvalues --   -0.74817  -0.71452  -0.68356  -0.66273  -0.64601
 Alpha  occ. eigenvalues --   -0.64302  -0.62002  -0.61429  -0.60961  -0.59216
 Alpha  occ. eigenvalues --   -0.58752  -0.58475  -0.58218  -0.56912  -0.56109
 Alpha  occ. eigenvalues --   -0.55282  -0.52883  -0.51528  -0.50837  -0.50250
 Alpha  occ. eigenvalues --   -0.49501  -0.48570  -0.47876  -0.46296  -0.45561
 Alpha  occ. eigenvalues --   -0.45072  -0.44569  -0.43869  -0.43638  -0.43255
 Alpha  occ. eigenvalues --   -0.43233  -0.42584  -0.42321  -0.41658  -0.41344
 Alpha  occ. eigenvalues --   -0.40753  -0.39897  -0.39491  -0.39167  -0.39089
 Alpha  occ. eigenvalues --   -0.38864  -0.38844  -0.38558  -0.38319  -0.38086
 Alpha  occ. eigenvalues --   -0.37557  -0.36928  -0.36528  -0.36303  -0.36100
 Alpha  occ. eigenvalues --   -0.35921  -0.34734  -0.33639  -0.32927  -0.32447
 Alpha  occ. eigenvalues --   -0.32011  -0.30799  -0.29813  -0.27601  -0.26606
 Alpha  occ. eigenvalues --   -0.26313  -0.25771  -0.24350  -0.24150  -0.23851
 Alpha  occ. eigenvalues --   -0.21574  -0.18887  -0.16103
 Alpha virt. eigenvalues --   -0.09297  -0.08146  -0.02383  -0.00571   0.00012
 Alpha virt. eigenvalues --    0.01102   0.01155   0.01206   0.04141   0.05501
 Alpha virt. eigenvalues --    0.06587   0.06623   0.07407   0.07747   0.08302

 Mulliken charges:
               1
     1  C   -0.534152
     2  C    0.366411
     3  C   -0.231721
     4  C   -0.197774
     5  C    0.266633
     6  C    0.176077
     7  C   -0.237753
     8  C   -0.233139
     9  C    0.158783
    10  C    0.314380
    11  C   -0.213402
    12  C   -0.213613
    13  C    0.313237
    14  C    0.158772
    15  C   -0.228617
    16  C   -0.242460
    17  C    0.183922
    18  C    0.258350
    19  C   -0.189847
    20  C   -0.231813
    21  C    0.365848
    22  C   -0.536650
    23  N   -0.691538
    24  C    0.185343
    25  N   -0.577350
    26  S    0.563239
    27  N   -0.615621
    28  C    0.200621
    29  N   -0.780788
    30  C    0.207188
    31  N   -0.610624
    32  S    0.567959
    33  N   -0.628937
    34  C    0.205803
    35  N   -0.698654
    36  H    0.163057
    37  H    0.168482
    38  H    0.162961
    39  H    0.120619
    40  H    0.126100
    41  H    0.138264
    42  H    0.137587
    43  H    0.130530
    44  H    0.129154
    45  H    0.135336
    46  H    0.113827
    47  H    0.156678
    48  H    0.122217
    49  H    0.173168
    50  H    0.162051
    51  H    0.161066
    52  H    0.324610
    53  H    0.419324
    54  H    0.356857
 Sum of Mulliken charges =  -0.00000

 Dipole moment (field-independent basis, Debye):
    X=              1.4593    Y=             -0.1507    Z=             -1.1797  Tot=              1.8825
 Quadrupole moment (field-independent basis, Debye-Ang):
   XX=           -173.3826   YY=           -213.4782   ZZ=           -199.0144
   XY=             -7.0695   XZ=            -21.6080   YZ=             11.4977

 Normal termination of Gaussian 16 at Sat Nov  5 09:50:52 2022.
