 Gaussian 16, Revision B.01,
 Gaussian 16:  ES64L-G16RevB.01 20-Dec-2017

 -----------------------------
 #p b3lyp/6-31g(d) opt SCF=XQC
 -----------------------------

 ------------------------------
 Gaussian input prepared by ASE
 ------------------------------
 Symbolic Z-matrix:
 Charge =  0 Multiplicity = 1

 SCF Done:  E(RB3LYP) =  -1462.90104999     A.U. after   14 cycles
 SCF Done:  E(RB3LYP) =  -1462.90762566     A.U. after   13 cycles
 SCF Done:  E(RB3LYP) =  -1462.90839421     A.U. after   11 cycles
 SCF Done:  E(RB3LYP) =  -1462.90856978     A.U. after   11 cycles
 SCF Done:  E(RB3LYP) =  -1462.90864776     A.U. after   11 cycles
 SCF Done:  E(RB3LYP) =  -1462.90867298     A.U. after   10 cycles
 SCF Done:  E(RB3LYP) =  -1462.90869079     A.U. after   10 cycles
 SCF Done:  E(RB3LYP) =  -1462.90869901     A.U. after    9 cycles
 SCF Done:  E(RB3LYP) =  -1462.90870342     A.U. after    9 cycles
 SCF Done:  E(RB3LYP) =  -1462.90870470     A.U. after    9 cycles
 SCF Done:  E(RB3LYP) =  -1462.90870492     A.U. after    7 cycles
 SCF Done:  E(RB3LYP) =  -1462.90870503     A.U. after    7 cycles
 SCF Done:  E(RB3LYP) =  -1462.90870508     A.U. after    6 cycles
 SCF Done:  E(RB3LYP) =  -1462.90870510     A.U. after    6 cycles
 SCF Done:  E(RB3LYP) =  -1462.90870510     A.U. after    6 cycles
 Optimization completed.
    -- Stationary point found.

                         Standard orientation:
 ---------------------------------------------------------------------
 Center     Atomic      Atomic             Coordinates (Angstroms)
 Number     Number       Type             X           Y           Z
 ---------------------------------------------------------------------
      1          6           0       -7.789717   -3.824015   -0.237986
      2          8           0       -6.561874   -4.225336    0.345109
      3          6           0       -5.477637   -3.406474    0.192932
      4          6           0       -5.483997   -2.193030   -0.504082
      5          6           0       -4.314621   -1.435641   -0.591542
      6          6           0       -3.115821   -1.857805   -0.000775
      7          6           0       -1.845749   -1.094019   -0.130061
      8          6           0       -0.655659   -1.776574   -0.417041
      9          6           0        0.583411   -1.138895   -0.528493
     10          6           0        1.827589   -1.927766   -0.890723
     11          7           0        3.003317   -1.429778   -0.178909
     12          6           0        4.297957   -2.021390   -0.556432
     13          6           0        4.376858   -3.548316   -0.368669
     14          6           0        5.406848   -1.246358    0.157524
     15          6           0        6.138223   -1.818524    1.179775
     16          6           0        7.163543   -1.113360    1.855245
     17          6           0        7.465630    0.176150    1.496239
     18          6           0        6.747778    0.817539    0.451258
     19          6           0        7.055210    2.149919    0.064224
     20          6           0        6.360881    2.773999   -0.945808
     21          6           0        5.319360    2.085207   -1.609859
     22          6           0        4.995116    0.793433   -1.256875
     23          6           0        5.696956    0.110327   -0.224005
     24          6           0        0.626693    0.243017   -0.333629
     25          6           0       -0.534928    0.958649   -0.044281
     26          6           0       -1.770851    0.308231    0.058322
     27          8           0       -2.943121    0.941154    0.369586
     28          6           0       -2.960494    2.340795    0.658278
     29          6           0       -3.014951    3.199164   -0.607492
     30          6           0       -3.069111    4.700430   -0.295877
     31          7           0       -4.192528    5.085558    0.561796
     32          6           0       -5.477249    4.984723   -0.119945
     33          6           0       -4.004901    6.421825    1.112226
     34          6           0       -3.136312   -3.080508    0.697415
     35          6           0       -4.291227   -3.844610    0.796190
     36          1           0       -7.709833   -3.733604   -1.329760
     37          1           0       -8.141818   -2.869306    0.175530
     38          1           0       -8.508697   -4.608643    0.005887
     39          1           0       -6.385947   -1.829354   -0.983635
     40          1           0       -4.338138   -0.498400   -1.135720
     41          1           0       -0.711199   -2.851427   -0.575121
     42          1           0        1.622608   -3.001257   -0.730028
     43          1           0        2.040520   -1.821788   -1.966220
     44          1           0        2.866936   -1.512580    0.827575
     45          1           0        4.407033   -1.834140   -1.634722
     46          1           0        3.639006   -4.046551   -1.005003
     47          1           0        4.168868   -3.842255    0.667181
     48          1           0        5.365198   -3.933323   -0.642606
     49          1           0        5.938369   -2.841555    1.480628
     50          1           0        7.711212   -1.605309    2.654690
     51          1           0        8.256475    0.724562    2.002797
     52          1           0        7.856028    2.669111    0.586048
     53          1           0        6.606760    3.792967   -1.232745
     54          1           0        4.766406    2.582013   -2.402893
     55          1           0        4.173797    0.295451   -1.757034
     56          1           0        1.578826    0.760354   -0.401230
     57          1           0       -0.464245    2.029673    0.105622
     58          1           0       -2.105026    2.613536    1.290423
     59          1           0       -3.863884    2.494447    1.251496
     60          1           0       -2.133007    3.010233   -1.230764
     61          1           0       -3.880738    2.887240   -1.203636
     62          1           0       -3.068506    5.270235   -1.247638
     63          1           0       -2.148138    4.980441    0.232029
     64          1           0       -5.550673    5.650211   -1.003518
     65          1           0       -6.280208    5.253396    0.574584
     66          1           0       -5.657061    3.958484   -0.453139
     67          1           0       -3.970309    7.213790    0.337609
     68          1           0       -3.069212    6.461996    1.680244
     69          1           0       -4.827608    6.656479    1.796412
     70          1           0       -2.230936   -3.427138    1.188169
     71          1           0       -4.301408   -4.781726    1.344394
 ---------------------------------------------------------------------

 The electronic state is 1-A.
 Alpha  occ. eigenvalues --  -19.17112 -19.16611 -14.32867 -14.31507 -10.23940
 Alpha  occ. eigenvalues --  -10.23770 -10.23647 -10.23245 -10.21805 -10.21292
 Alpha  occ. eigenvalues --  -10.20760 -10.20397 -10.20377 -10.19179 -10.19143
 Alpha  occ. eigenvalues --  -10.19111 -10.18579 -10.18552 -10.18532 -10.18494
 Alpha  occ. eigenvalues --  -10.18450 -10.18417 -10.18384 -10.18383 -10.18223
 Alpha  occ. eigenvalues --  -10.18070 -10.17952 -10.17882 -10.17858 -10.17811
 Alpha  occ. eigenvalues --  -10.17783 -10.17752 -10.17582 -10.17494 -10.17463
 Alpha  occ. eigenvalues --   -1.05655  -1.05126  -0.92216  -0.90576  -0.86363
 Alpha  occ. eigenvalues --   -0.85189  -0.83333  -0.81405  -0.78700  -0.77731
 Alpha  occ. eigenvalues --   -0.76475  -0.74800  -0.73929  -0.73398  -0.72937
 Alpha  occ. eigenvalues --   -0.72294  -0.70634  -0.70303  -0.69420  -0.68138
 Alpha  occ. eigenvalues --   -0.65849  -0.63244  -0.62283  -0.61045  -0.60586
 Alpha  occ. eigenvalues --   -0.60264  -0.60060  -0.57988  -0.57031  -0.56404
 Alpha  occ. eigenvalues --   -0.55616  -0.52794  -0.51955  -0.51149  -0.50294
 Alpha  occ. eigenvalues --   -0.49425  -0.48700  -0.48106  -0.47904  -0.47075
 Alpha  occ. eigenvalues --   -0.46809  -0.46250  -0.45904  -0.45728  -0.44928
 Alpha  occ. eigenvalues --   -0.44111  -0.43731  -0.43542  -0.43416  -0.42806
 Alpha  occ. eigenvalues --   -0.42466  -0.41767  -0.41523  -0.41076  -0.40730
 Alpha  occ. eigenvalues --   -0.40456  -0.40141  -0.39779  -0.39664  -0.39277
 Alpha  occ. eigenvalues --   -0.38639  -0.38006  -0.37700  -0.37432  -0.37030
 Alpha  occ. eigenvalues --   -0.36914  -0.36734  -0.36152  -0.35829  -0.35257
 Alpha  occ. eigenvalues --   -0.35137  -0.34828  -0.34371  -0.33768  -0.33450
 Alpha  occ. eigenvalues --   -0.32663  -0.31958  -0.31837  -0.31463  -0.30975
 Alpha  occ. eigenvalues --   -0.30411  -0.30050  -0.27283  -0.24631  -0.23982
 Alpha  occ. eigenvalues --   -0.23709  -0.21938  -0.21620  -0.21226  -0.20774
 Alpha  occ. eigenvalues --   -0.19080
 Alpha virt. eigenvalues --   -0.03283  -0.00865  -0.00196   0.01026   0.01703
 Alpha virt. eigenvalues --    0.03698   0.04333   0.07221   0.08802   0.09744
 Alpha virt. eigenvalues --    0.10075   0.10454   0.10511   0.10854   0.10953

 Mulliken charges:
               1
     1  C   -0.212744
     2  O   -0.508599
     3  C    0.376881
     4  C   -0.204377
     5  C   -0.159891
     6  C    0.100379
     7  C    0.031579
     8  C   -0.257904
     9  C    0.141545
    10  C   -0.188713
    11  N   -0.551882
    12  C   -0.038629
    13  C   -0.465774
    14  C    0.112044
    15  C   -0.210711
    16  C   -0.134708
    17  C   -0.189313
    18  C    0.136298
    19  C   -0.195986
    20  C   -0.132032
    21  C   -0.140201
    22  C   -0.179603
    23  C    0.078053
    24  C   -0.185869
    25  C   -0.195421
    26  C    0.333275
    27  O   -0.532684
    28  C   -0.029481
    29  C   -0.301654
    30  C   -0.122524
    31  N   -0.367167
    32  C   -0.302614
    33  C   -0.294212
    34  C   -0.174857
    35  C   -0.180151
    36  H    0.150052
    37  H    0.150575
    38  H    0.167046
    39  H    0.126048
    40  H    0.134464
    41  H    0.123231
    42  H    0.123182
    43  H    0.147412
    44  H    0.296010
    45  H    0.134906
    46  H    0.151684
    47  H    0.142201
    48  H    0.152311
    49  H    0.125139
    50  H    0.127105
    51  H    0.126847
    52  H    0.126570
    53  H    0.126547
    54  H    0.125821
    55  H    0.145974
    56  H    0.148595
    57  H    0.129125
    58  H    0.137542
    59  H    0.172003
    60  H    0.151361
    61  H    0.149511
    62  H    0.115381
    63  H    0.136232
    64  H    0.118786
    65  H    0.151164
    66  H    0.154527
    67  H    0.118645
    68  H    0.149816
    69  H    0.149767
    70  H    0.128680
    71  H    0.133389
 Sum of Mulliken charges =  -0.00000

 Dipole moment (field-independent basis, Debye):
    X=             -1.1976    Y=              1.8473    Z=             -0.6629  Tot=              2.2992
 Quadrupole moment (field-independent basis, Debye-Ang):
   XX=           -184.9763   YY=           -189.6359   ZZ=           -206.5704
   XY=             -8.0269   XZ=             11.2352   YZ=             -1.0855

 Normal termination of Gaussian 16 at Fri Nov  4 23:01:00 2022.
