 Gaussian 16, Revision B.01,
 Gaussian 16:  ES64L-G16RevB.01 20-Dec-2017

 -------------------------------------------------------------------
 #p b3lyp/6-31g(d) 6D 10F nosymm GFInput td=(50-50,nstate=2) SCF=XQC
 -------------------------------------------------------------------

 ------------------------------
 Gaussian input prepared by ASE
 ------------------------------
 Symbolic Z-matrix:
 Charge =  0 Multiplicity = 1

                          Input orientation:
 ---------------------------------------------------------------------
 Center     Atomic      Atomic             Coordinates (Angstroms)
 Number     Number       Type             X           Y           Z
 ---------------------------------------------------------------------
      1          6           0       -6.127382    6.084729   -0.343294
      2          8           0       -4.795714    6.109423   -0.827763
      3          6           0       -4.006542    5.016305   -0.600692
      4          6           0       -4.413146    3.865098    0.083202
      5          6           0       -3.520155    2.805595    0.252760
      6          6           0       -2.209669    2.858477   -0.241386
      7          6           0       -1.225499    1.764552   -0.022521
      8          6           0        0.085178    2.081208    0.360112
      9          6           0        1.077250    1.116732    0.559939
     10          6           0        2.464399    1.520748    1.022644
     11          7           0        3.498096    0.697143    0.398022
     12          6           0        4.875715    0.897937    0.878092
     13          6           0        5.403109    2.335523    0.710208
     14          6           0        5.766292   -0.171939    0.243831
     15          6           0        6.705917    0.152782   -0.714783
     16          6           0        7.533817   -0.825692   -1.316419
     17          6           0        7.425454   -2.142724   -0.946738
     18          6           0        6.477179   -2.537326    0.034965
     19          6           0        6.359512   -3.896579    0.432624
     20          6           0        5.441301   -4.281812    1.381421
     21          6           0        4.594094   -3.314532    1.970296
     22          6           0        4.681493   -1.988900    1.604954
     23          6           0        5.625527   -1.549584    0.634472
     24          6           0        0.736973   -0.222113    0.356880
     25          6           0       -0.555823   -0.578646   -0.026236
     26          6           0       -1.541903    0.397250   -0.216889
     27          8           0       -2.819497    0.122705   -0.621946
     28          6           0       -3.215713   -1.217006   -0.923326
     29          6           0       -3.609296   -2.006612    0.327093
     30          6           0       -4.068060   -3.433441   -0.000827
     31          7           0       -5.186748   -3.491978   -0.944811
     32          6           0       -6.436163   -3.017997   -0.361930
     33          6           0       -5.349279   -4.833259   -1.491011
     34          6           0       -1.825965    4.026233   -0.928415
     35          6           0       -2.702367    5.087869   -1.108096
     36          1           0       -6.159317    5.989945    0.750563
     37          1           0       -6.706266    5.265492   -0.790715
     38          1           0       -6.570630    7.039135   -0.634303
     39          1           0       -5.414975    3.781670    0.489554
     40          1           0       -3.852415    1.921836    0.785372
     41          1           0        0.328463    3.128920    0.522883
     42          1           0        2.588603    2.605686    0.856194
     43          1           0        2.556290    1.372702    2.110257
     44          1           0        3.467463    0.801979   -0.615161
     45          1           0        4.844904    0.701838    1.959880
     46          1           0        4.793357    3.032854    1.292887
     47          1           0        5.366851    2.662746   -0.335859
     48          1           0        6.436763    2.424785    1.061891
     49          1           0        6.831112    1.186023   -1.021030
     50          1           0        8.258199   -0.522164   -2.067558
     51          1           0        8.061644   -2.901560   -1.396428
     52          1           0        7.014758   -4.630487   -0.031274
     53          1           0        5.362276   -5.324539    1.677329
     54          1           0        3.863756   -3.621285    2.714599
     55          1           0        4.002219   -1.269727    2.045505
     56          1           0        1.492829   -0.989663    0.492205
     57          1           0       -0.784164   -1.626921   -0.179669
     58          1           0       -2.429282   -1.731974   -1.490913
     59          1           0       -4.077821   -1.113291   -1.584871
     60          1           0       -2.759817   -2.069980    1.017280
     61          1           0       -4.391631   -1.451636    0.858342
     62          1           0       -4.302634   -3.966631    0.943212
     63          1           0       -3.229014   -3.972743   -0.459561
     64          1           0       -6.763737   -3.622550    0.507655
     65          1           0       -7.227707   -3.054617   -1.117852
     66          1           0       -6.338703   -1.978878   -0.034439
     67          1           0       -5.601751   -5.591397   -0.722948
     68          1           0       -4.424373   -5.147563   -1.986526
     69          1           0       -6.150706   -4.831490   -2.237826
     70          1           0       -0.824908    4.092198   -1.345824
     71          1           0       -2.402022    5.981112   -1.647286
 ---------------------------------------------------------------------

 SCF Done:  E(RB3LYP) =  -1462.90870507     A.U. after   14 cycles

 Excitation energies and oscillator strengths:

 Excited state symmetry could not be determined.
 Excited State   1:      Triplet-?Sym    2.7228 eV  455.36 nm  f=0.0000  <S**2>=2.000
     118 ->132         0.11868
     121 ->129        -0.16914
     124 ->127         0.22821
     125 ->127         0.62551
 This state for optimization and/or second-order correction.
 Total Energy, E(TD-HF/TD-DFT) =  -1462.80864429
 Copying the excited state density for this state as the 1-particle RhoCI density.

 Excited state symmetry could not be determined.
 Excited State   2:      Triplet-?Sym    3.2108 eV  386.15 nm  f=0.0000  <S**2>=2.000
     119 ->128        -0.13606
     120 ->130         0.16879
     126 ->128         0.59559
     126 ->131         0.14888

 Excited state symmetry could not be determined.
 Excited State   3:      Singlet-?Sym    3.9390 eV  314.76 nm  f=0.0149  <S**2>=0.000
     123 ->127        -0.10234
     126 ->127         0.68836

 Excited state symmetry could not be determined.
 Excited State   4:      Singlet-?Sym    4.2332 eV  292.89 nm  f=0.0015  <S**2>=0.000
     122 ->127         0.31577
     123 ->127         0.46705
     124 ->127        -0.27650
     125 ->127         0.26205
     126 ->127         0.15065

 Alpha  occ. eigenvalues --  -19.17112 -19.16611 -14.32867 -14.31507 -10.23940
 Alpha  occ. eigenvalues --  -10.23770 -10.23647 -10.23245 -10.21805 -10.21292
 Alpha  occ. eigenvalues --  -10.20760 -10.20397 -10.20377 -10.19179 -10.19143
 Alpha  occ. eigenvalues --  -10.19111 -10.18579 -10.18552 -10.18532 -10.18494
 Alpha  occ. eigenvalues --  -10.18450 -10.18417 -10.18384 -10.18383 -10.18223
 Alpha  occ. eigenvalues --  -10.18070 -10.17952 -10.17883 -10.17858 -10.17811
 Alpha  occ. eigenvalues --  -10.17783 -10.17753 -10.17582 -10.17494 -10.17463
 Alpha  occ. eigenvalues --   -1.05655  -1.05126  -0.92216  -0.90576  -0.86363
 Alpha  occ. eigenvalues --   -0.85189  -0.83333  -0.81405  -0.78700  -0.77731
 Alpha  occ. eigenvalues --   -0.76475  -0.74800  -0.73929  -0.73398  -0.72937
 Alpha  occ. eigenvalues --   -0.72294  -0.70634  -0.70303  -0.69420  -0.68138
 Alpha  occ. eigenvalues --   -0.65849  -0.63244  -0.62283  -0.61045  -0.60586
 Alpha  occ. eigenvalues --   -0.60264  -0.60060  -0.57989  -0.57031  -0.56404
 Alpha  occ. eigenvalues --   -0.55616  -0.52794  -0.51955  -0.51149  -0.50294
 Alpha  occ. eigenvalues --   -0.49425  -0.48700  -0.48106  -0.47904  -0.47075
 Alpha  occ. eigenvalues --   -0.46809  -0.46250  -0.45904  -0.45728  -0.44928
 Alpha  occ. eigenvalues --   -0.44111  -0.43731  -0.43542  -0.43416  -0.42806
 Alpha  occ. eigenvalues --   -0.42466  -0.41767  -0.41523  -0.41076  -0.40730
 Alpha  occ. eigenvalues --   -0.40456  -0.40141  -0.39779  -0.39664  -0.39277
 Alpha  occ. eigenvalues --   -0.38639  -0.38006  -0.37700  -0.37432  -0.37030
 Alpha  occ. eigenvalues --   -0.36914  -0.36734  -0.36152  -0.35829  -0.35257
 Alpha  occ. eigenvalues --   -0.35137  -0.34828  -0.34371  -0.33768  -0.33450
 Alpha  occ. eigenvalues --   -0.32663  -0.31958  -0.31837  -0.31463  -0.30975
 Alpha  occ. eigenvalues --   -0.30411  -0.30050  -0.27283  -0.24631  -0.23982
 Alpha  occ. eigenvalues --   -0.23709  -0.21938  -0.21620  -0.21226  -0.20774
 Alpha  occ. eigenvalues --   -0.19080
 Alpha virt. eigenvalues --   -0.03283  -0.00865  -0.00196   0.01026   0.01703
 Alpha virt. eigenvalues --    0.03698   0.04333   0.07221   0.08802   0.09744
 Alpha virt. eigenvalues --    0.10075   0.10454   0.10511   0.10854   0.10953

 Mulliken charges:
               1
     1  C   -0.212738
     2  O   -0.508598
     3  C    0.376873
     4  C   -0.204374
     5  C   -0.159883
     6  C    0.100370
     7  C    0.031565
     8  C   -0.257885
     9  C    0.141534
    10  C   -0.188706
    11  N   -0.551884
    12  C   -0.038641
    13  C   -0.465766
    14  C    0.112060
    15  C   -0.210715
    16  C   -0.134708
    17  C   -0.189329
    18  C    0.136292
    19  C   -0.195990
    20  C   -0.132017
    21  C   -0.140203
    22  C   -0.179623
    23  C    0.078079
    24  C   -0.185873
    25  C   -0.195414
    26  C    0.333261
    27  O   -0.532673
    28  C   -0.029472
    29  C   -0.301666
    30  C   -0.122512
    31  N   -0.367175
    32  C   -0.302613
    33  C   -0.294212
    34  C   -0.174853
    35  C   -0.180153
    36  H    0.150051
    37  H    0.150574
    38  H    0.167045
    39  H    0.126049
    40  H    0.134462
    41  H    0.123231
    42  H    0.123182
    43  H    0.147412
    44  H    0.296010
    45  H    0.134907
    46  H    0.151682
    47  H    0.142200
    48  H    0.152309
    49  H    0.125140
    50  H    0.127104
    51  H    0.126847
    52  H    0.126572
    53  H    0.126545
    54  H    0.125820
    55  H    0.145974
    56  H    0.148600
    57  H    0.129123
    58  H    0.137541
    59  H    0.172002
    60  H    0.151361
    61  H    0.149514
    62  H    0.115379
    63  H    0.136231
    64  H    0.118787
    65  H    0.151164
    66  H    0.154527
    67  H    0.118645
    68  H    0.149817
    69  H    0.149767
    70  H    0.128681
    71  H    0.133389
 Sum of Mulliken charges =  -0.00000

 Dipole moment (field-independent basis, Debye):
    X=             -1.7235    Y=             -1.4175    Z=              0.5537  Tot=              2.2992
 Quadrupole moment (field-independent basis, Debye-Ang):
   XX=           -180.2249   YY=           -194.1319   ZZ=           -208.1805
   XY=              4.4616   XZ=             -8.9243   YZ=              2.5308

 Normal termination of Gaussian 16 at Sat Nov  5 10:02:02 2022.
