 Gaussian 16, Revision B.01,
 Gaussian 16:  ES64L-G16RevB.01 20-Dec-2017

 -----------------------------
 #p b3lyp/6-31g(d) opt SCF=XQC
 -----------------------------

 ------------------------------
 Gaussian input prepared by ASE
 ------------------------------
 Symbolic Z-matrix:
 Charge =  0 Multiplicity = 1

 SCF Done:  E(RB3LYP) =  -1830.82641983     A.U. after   15 cycles
 SCF Done:  E(RB3LYP) =  -1830.83227503     A.U. after   13 cycles
 SCF Done:  E(RB3LYP) =  -1830.83388824     A.U. after   13 cycles
 SCF Done:  E(RB3LYP) =  -1830.83554026     A.U. after   12 cycles
 SCF Done:  E(RB3LYP) =  -1830.83586854     A.U. after   12 cycles
 SCF Done:  E(RB3LYP) =  -1830.83595185     A.U. after   12 cycles
 SCF Done:  E(RB3LYP) =  -1830.83598729     A.U. after   12 cycles
 SCF Done:  E(RB3LYP) =  -1830.83599988     A.U. after   10 cycles
 SCF Done:  E(RB3LYP) =  -1830.83599605     A.U. after    9 cycles
 SCF Done:  E(RB3LYP) =  -1830.83600252     A.U. after    9 cycles
 SCF Done:  E(RB3LYP) =  -1830.83600392     A.U. after    8 cycles
 SCF Done:  E(RB3LYP) =  -1830.83600396     A.U. after    9 cycles
 SCF Done:  E(RB3LYP) =  -1830.83600286     A.U. after    8 cycles
 SCF Done:  E(RB3LYP) =  -1830.83600253     A.U. after    7 cycles
 SCF Done:  E(RB3LYP) =  -1830.83600253     A.U. after    7 cycles
 SCF Done:  E(RB3LYP) =  -1830.83600253     A.U. after    6 cycles
 Optimization completed.
    -- Stationary point found.

                         Standard orientation:
 ---------------------------------------------------------------------
 Center     Atomic      Atomic             Coordinates (Angstroms)
 Number     Number       Type             X           Y           Z
 ---------------------------------------------------------------------
      1          6           0       -9.101253    0.058722   -1.338749
      2          8           0       -7.730643    0.089441   -0.978433
      3          6           0       -7.371174    0.848845    0.096282
      4          6           0       -8.245685    1.605293    0.874247
      5          6           0       -7.766883    2.351590    1.959968
      6          6           0       -6.414179    2.342315    2.268721
      7          6           0       -5.524034    1.585502    1.493773
      8          6           0       -5.989940    0.840960    0.413706
      9          8           0       -5.205477    0.071109   -0.403264
     10          6           0       -3.814296    0.016333   -0.145009
     11          6           0       -3.226515   -0.913215   -1.211284
     12          7           0       -1.790449   -1.075501   -1.067760
     13          6           0       -0.838227   -0.368445   -1.746797
     14          6           0        0.439182   -0.697943   -1.311611
     15          6           0        1.593569   -0.096052   -1.933106
     16          6           0        2.867041    0.122928   -1.509924
     17          7           0        3.866789    0.665609   -2.330446
     18          6           0        5.052177    0.870341   -1.688861
     19         16           0        6.449162    1.423007   -2.397054
     20          7           0        4.823083    0.500609   -0.363186
     21          6           0        5.764469    0.605235    0.709606
     22          6           0        6.060051   -0.528329    1.469607
     23          6           0        6.954262   -0.428031    2.534679
     24          6           0        7.556383    0.795044    2.833914
     25          6           0        7.255553    1.923518    2.068879
     26          6           0        6.353421    1.835504    1.009779
     27          6           0        3.499570    0.025141   -0.174940
     28          8           0        3.030752   -0.328489    0.890480
     29          6           0        0.253327   -1.725028   -0.297304
     30          6           0        1.112668   -2.548083    0.448912
     31          6           0        0.567249   -3.496667    1.305653
     32          6           0       -0.824951   -3.656262    1.433557
     33          6           0       -1.703220   -2.874347    0.692758
     34          6           0       -1.147277   -1.926420   -0.171817
     35          1           0       -9.471323    1.056752   -1.609642
     36          1           0       -9.723540   -0.347598   -0.530046
     37          1           0       -9.166289   -0.598035   -2.208251
     38          1           0       -9.304490    1.619816    0.642285
     39          1           0       -8.464374    2.934626    2.554275
     40          1           0       -6.034238    2.917114    3.108073
     41          1           0       -4.468652    1.583693    1.742514
     42          1           0       -3.612879   -0.376994    0.860958
     43          1           0       -3.357665    1.013755   -0.218535
     44          1           0       -3.435383   -0.507078   -2.204857
     45          1           0       -3.709483   -1.893199   -1.150624
     46          1           0       -1.129610    0.348744   -2.503593
     47          1           0        1.395442    0.274056   -2.941031
     48          1           0        3.798881    0.802189   -3.328463
     49          1           0        5.588634   -1.475067    1.230355
     50          1           0        7.181965   -1.309376    3.127550
     51          1           0        8.256795    0.869111    3.661256
     52          1           0        7.719896    2.878572    2.297623
     53          1           0        6.112142    2.707680    0.413045
     54          1           0        2.184850   -2.431702    0.377079
     55          1           0        1.230324   -4.126659    1.891765
     56          1           0       -1.220404   -4.403933    2.115322
     57          1           0       -2.777924   -3.006789    0.777458
 ---------------------------------------------------------------------

 The electronic state is 1-A.
 Alpha  occ. eigenvalues --  -88.82808 -19.18682 -19.18108 -19.13532 -14.40355
 Alpha  occ. eigenvalues --  -14.39638 -14.39363 -10.30653 -10.30645 -10.25998
 Alpha  occ. eigenvalues --  -10.25133 -10.25130 -10.25006 -10.24803 -10.24493
 Alpha  occ. eigenvalues --  -10.23855 -10.23218 -10.22721 -10.22393 -10.20557
 Alpha  occ. eigenvalues --  -10.19584 -10.19492 -10.19266 -10.19227 -10.19153
 Alpha  occ. eigenvalues --  -10.19143 -10.19040 -10.19008 -10.18993 -10.18949
 Alpha  occ. eigenvalues --  -10.18858 -10.18788 -10.18525 -10.18303  -7.89044
 Alpha  occ. eigenvalues --   -5.85586  -5.85031  -5.84622  -1.08129  -1.06443
 Alpha  occ. eigenvalues --   -1.06100  -1.01740  -1.00649  -0.93110  -0.85777
 Alpha  occ. eigenvalues --   -0.84990  -0.84812  -0.82979  -0.80427  -0.77759
 Alpha  occ. eigenvalues --   -0.75723  -0.75496  -0.74793  -0.74705  -0.74171
 Alpha  occ. eigenvalues --   -0.73391  -0.71394  -0.69692  -0.67625  -0.66410
 Alpha  occ. eigenvalues --   -0.63514  -0.62631  -0.61753  -0.60266  -0.60121
 Alpha  occ. eigenvalues --   -0.59952  -0.58578  -0.58029  -0.56083  -0.55249
 Alpha  occ. eigenvalues --   -0.53129  -0.52630  -0.52042  -0.51246  -0.50759
 Alpha  occ. eigenvalues --   -0.49656  -0.49040  -0.48388  -0.48185  -0.47929
 Alpha  occ. eigenvalues --   -0.47217  -0.46763  -0.46018  -0.45241  -0.44946
 Alpha  occ. eigenvalues --   -0.44397  -0.44123  -0.43559  -0.43478  -0.42840
 Alpha  occ. eigenvalues --   -0.42538  -0.42153  -0.42018  -0.40890  -0.40373
 Alpha  occ. eigenvalues --   -0.39729  -0.38380  -0.38228  -0.38075  -0.37827
 Alpha  occ. eigenvalues --   -0.37386  -0.36722  -0.36105  -0.35938  -0.35122
 Alpha  occ. eigenvalues --   -0.34225  -0.34112  -0.33721  -0.33230  -0.32845
 Alpha  occ. eigenvalues --   -0.32679  -0.32048  -0.29521  -0.27366  -0.26341
 Alpha  occ. eigenvalues --   -0.24897  -0.24266  -0.23906  -0.23133  -0.23003
 Alpha  occ. eigenvalues --   -0.21206  -0.20971  -0.19390
 Alpha virt. eigenvalues --   -0.07350  -0.01576  -0.01170   0.00173   0.00497
 Alpha virt. eigenvalues --    0.01063   0.01907   0.02335   0.05100   0.07435
 Alpha virt. eigenvalues --    0.07479   0.07779   0.09166   0.09341   0.10034

 Mulliken charges:
               1
     1  C   -0.215304
     2  O   -0.502361
     3  C    0.333853
     4  C   -0.203420
     5  C   -0.137376
     6  C   -0.140782
     7  C   -0.202885
     8  C    0.335604
     9  O   -0.519799
    10  C   -0.026391
    11  C   -0.186477
    12  N   -0.507300
    13  C    0.004641
    14  C    0.076309
    15  C   -0.282087
    16  C    0.338668
    17  N   -0.685972
    18  C    0.371388
    19  S   -0.252330
    20  N   -0.609347
    21  C    0.293749
    22  C   -0.118445
    23  C   -0.146977
    24  C   -0.116005
    25  C   -0.147071
    26  C   -0.110872
    27  C    0.556758
    28  O   -0.495796
    29  C    0.067766
    30  C   -0.173659
    31  C   -0.142874
    32  C   -0.147147
    33  C   -0.167955
    34  C    0.291885
    35  H    0.151949
    36  H    0.152301
    37  H    0.170006
    38  H    0.133634
    39  H    0.128019
    40  H    0.129499
    41  H    0.139568
    42  H    0.159257
    43  H    0.150658
    44  H    0.178189
    45  H    0.184326
    46  H    0.160129
    47  H    0.139251
    48  H    0.351328
    49  H    0.144537
    50  H    0.135107
    51  H    0.132481
    52  H    0.136383
    53  H    0.155164
    54  H    0.145661
    55  H    0.128215
    56  H    0.129428
    57  H    0.132923
 Sum of Mulliken charges =  -0.00000

 Dipole moment (field-independent basis, Debye):
    X=             -7.0491    Y=             -0.4973    Z=             -0.6575  Tot=              7.0971
 Quadrupole moment (field-independent basis, Debye-Ang):
   XX=           -196.5569   YY=           -197.3591   ZZ=           -193.3495
   XY=             -6.8072   XZ=             22.2223   YZ=              1.1323

 Normal termination of Gaussian 16 at Fri Nov  4 23:02:39 2022.
