 Gaussian 16, Revision B.01,
 Gaussian 16:  ES64L-G16RevB.01 20-Dec-2017

 -------------------------------------------------------------------
 #p b3lyp/6-31g(d) 6D 10F nosymm GFInput td=(50-50,nstate=2) SCF=XQC
 -------------------------------------------------------------------

 ------------------------------
 Gaussian input prepared by ASE
 ------------------------------
 Symbolic Z-matrix:
 Charge =  0 Multiplicity = 1

                          Input orientation:
 ---------------------------------------------------------------------
 Center     Atomic      Atomic             Coordinates (Angstroms)
 Number     Number       Type             X           Y           Z
 ---------------------------------------------------------------------
      1          6           0        8.415457   -0.351546   -1.836990
      2          8           0        7.060169   -0.315402   -1.423185
      3          6           0        6.761270   -0.786169   -0.178210
      4          6           0        7.684248   -1.306416    0.727144
      5          6           0        7.266170   -1.763892    1.984494
      6          6           0        5.925783   -1.701705    2.337647
      7          6           0        4.987285   -1.180629    1.435777
      8          6           0        5.392735   -0.723661    0.184878
      9          8           0        4.557924   -0.198633   -0.765347
     10          6           0        3.175996   -0.105829   -0.470827
     11          6           0        2.524160    0.514526   -1.710486
     12          7           0        1.090225    0.681661   -1.552004
     13          6           0        0.134339   -0.190712   -1.991317
     14          6           0       -1.135266    0.214523   -1.599378
     15          6           0       -2.293980   -0.545268   -2.000919
     16          6           0       -3.544666   -0.673703   -1.483177
     17          7           0       -4.557761   -1.423504   -2.098555
     18          6           0       -5.712963   -1.481570   -1.376869
     19         16           0       -7.118538   -2.219954   -1.864404
     20          7           0       -5.446594   -0.785913   -0.197163
     21          6           0       -6.345278   -0.634133    0.906179
     22          6           0       -6.644955    0.648704    1.369279
     23          6           0       -7.496915    0.803582    2.462087
     24          6           0       -8.053202   -0.315471    3.083591
     25          6           0       -7.748609   -1.594556    2.614125
     26          6           0       -6.888174   -1.759673    1.529842
     27          6           0       -4.131033   -0.254458   -0.190024
     28          8           0       -3.634145    0.364445    0.731944
     29          6           0       -0.941825    1.467078   -0.883871
     30          6           0       -1.796436    2.435771   -0.332510
     31          6           0       -1.247297    3.579216    0.235185
     32          6           0        0.143578    3.791078    0.260310
     33          6           0        1.016138    2.863900   -0.296927
     34          6           0        0.456183    1.718928   -0.871920
     35          1           0        8.803408   -1.378751   -1.864194
     36          1           0        9.054894    0.256492   -1.182967
     37          1           0        8.430534    0.066224   -2.845372
     38          1           0        8.733968   -1.359675    0.461932
     39          1           0        8.000800   -2.165787    2.676175
     40          1           0        5.592736   -2.053469    3.309555
     41          1           0        3.941949   -1.135386    1.720262
     42          1           0        3.000087    0.524368    0.411869
     43          1           0        2.745230   -1.097744   -0.272545
     44          1           0        2.708319   -0.124811   -2.578296
     45          1           0        2.981260    1.486806   -1.917945
     46          1           0        0.418230   -1.069925   -2.555582
     47          1           0       -2.122083   -1.153551   -2.891195
     48          1           0       -4.522153   -1.805686   -3.032349
     49          1           0       -6.209297    1.513100    0.880596
     50          1           0       -7.727732    1.801521    2.823963
     51          1           0       -8.720896   -0.191548    3.931757
     52          1           0       -8.177346   -2.469515    3.094434
     53          1           0       -6.644193   -2.749467    1.161359
     54          1           0       -2.866818    2.285640   -0.327705
     55          1           0       -1.906206    4.324348    0.671880
     56          1           0        0.542235    4.693347    0.715484
     57          1           0        2.089052    3.032858   -0.293423
 ---------------------------------------------------------------------

 SCF Done:  E(RB3LYP) =  -1830.83599818     A.U. after   16 cycles

 Excitation energies and oscillator strengths:

 Excited state symmetry could not be determined.
 Excited State   1:      Triplet-?Sym    1.8382 eV  674.49 nm  f=0.0000  <S**2>=2.000
     118 ->124        -0.11643
     123 ->124         0.68470
 This state for optimization and/or second-order correction.
 Total Energy, E(TD-HF/TD-DFT) =  -1830.76844540
 Copying the excited state density for this state as the 1-particle RhoCI density.

 Excited state symmetry could not be determined.
 Excited State   2:      Triplet-?Sym    2.7677 eV  447.97 nm  f=0.0000  <S**2>=2.000
     121 ->124         0.68490

 Excited state symmetry could not be determined.
 Excited State   3:      Singlet-?Sym    2.9566 eV  419.35 nm  f=0.0006  <S**2>=0.000
     121 ->124         0.69545

 Excited state symmetry could not be determined.
 Excited State   4:      Singlet-?Sym    3.1211 eV  397.24 nm  f=0.8142  <S**2>=0.000
     123 ->124         0.69661

 Alpha  occ. eigenvalues --  -88.82808 -19.18682 -19.18108 -19.13532 -14.40355
 Alpha  occ. eigenvalues --  -14.39638 -14.39363 -10.30653 -10.30645 -10.25998
 Alpha  occ. eigenvalues --  -10.25133 -10.25130 -10.25006 -10.24803 -10.24493
 Alpha  occ. eigenvalues --  -10.23855 -10.23218 -10.22721 -10.22393 -10.20557
 Alpha  occ. eigenvalues --  -10.19584 -10.19492 -10.19266 -10.19227 -10.19153
 Alpha  occ. eigenvalues --  -10.19143 -10.19040 -10.19008 -10.18993 -10.18949
 Alpha  occ. eigenvalues --  -10.18858 -10.18788 -10.18525 -10.18303  -7.89044
 Alpha  occ. eigenvalues --   -5.85586  -5.85031  -5.84622  -1.08129  -1.06443
 Alpha  occ. eigenvalues --   -1.06100  -1.01740  -1.00649  -0.93110  -0.85777
 Alpha  occ. eigenvalues --   -0.84990  -0.84812  -0.82979  -0.80427  -0.77759
 Alpha  occ. eigenvalues --   -0.75723  -0.75496  -0.74793  -0.74705  -0.74171
 Alpha  occ. eigenvalues --   -0.73391  -0.71394  -0.69692  -0.67625  -0.66410
 Alpha  occ. eigenvalues --   -0.63514  -0.62631  -0.61753  -0.60266  -0.60121
 Alpha  occ. eigenvalues --   -0.59952  -0.58578  -0.58030  -0.56083  -0.55249
 Alpha  occ. eigenvalues --   -0.53129  -0.52630  -0.52042  -0.51246  -0.50759
 Alpha  occ. eigenvalues --   -0.49656  -0.49040  -0.48388  -0.48185  -0.47929
 Alpha  occ. eigenvalues --   -0.47217  -0.46763  -0.46018  -0.45241  -0.44946
 Alpha  occ. eigenvalues --   -0.44397  -0.44123  -0.43559  -0.43478  -0.42840
 Alpha  occ. eigenvalues --   -0.42538  -0.42153  -0.42018  -0.40890  -0.40373
 Alpha  occ. eigenvalues --   -0.39730  -0.38380  -0.38228  -0.38075  -0.37827
 Alpha  occ. eigenvalues --   -0.37386  -0.36722  -0.36105  -0.35938  -0.35122
 Alpha  occ. eigenvalues --   -0.34225  -0.34112  -0.33721  -0.33230  -0.32845
 Alpha  occ. eigenvalues --   -0.32678  -0.32048  -0.29521  -0.27366  -0.26341
 Alpha  occ. eigenvalues --   -0.24897  -0.24266  -0.23906  -0.23133  -0.23003
 Alpha  occ. eigenvalues --   -0.21206  -0.20971  -0.19390
 Alpha virt. eigenvalues --   -0.07350  -0.01576  -0.01170   0.00173   0.00497
 Alpha virt. eigenvalues --    0.01063   0.01907   0.02335   0.05100   0.07435
 Alpha virt. eigenvalues --    0.07479   0.07779   0.09166   0.09341   0.10034

 Mulliken charges:
               1
     1  C   -0.215307
     2  O   -0.502365
     3  C    0.333861
     4  C   -0.203427
     5  C   -0.137374
     6  C   -0.140780
     7  C   -0.202892
     8  C    0.335618
     9  O   -0.519804
    10  C   -0.026399
    11  C   -0.186469
    12  N   -0.507314
    13  C    0.004645
    14  C    0.076304
    15  C   -0.282082
    16  C    0.338650
    17  N   -0.685971
    18  C    0.371395
    19  S   -0.252333
    20  N   -0.609354
    21  C    0.293750
    22  C   -0.118441
    23  C   -0.146978
    24  C   -0.116007
    25  C   -0.147070
    26  C   -0.110873
    27  C    0.556779
    28  O   -0.495800
    29  C    0.067760
    30  C   -0.173659
    31  C   -0.142872
    32  C   -0.147141
    33  C   -0.167964
    34  C    0.291902
    35  H    0.151950
    36  H    0.152301
    37  H    0.170007
    38  H    0.133634
    39  H    0.128019
    40  H    0.129498
    41  H    0.139569
    42  H    0.159258
    43  H    0.150659
    44  H    0.178189
    45  H    0.184326
    46  H    0.160131
    47  H    0.139250
    48  H    0.351328
    49  H    0.144537
    50  H    0.135107
    51  H    0.132481
    52  H    0.136383
    53  H    0.155164
    54  H    0.145657
    55  H    0.128214
    56  H    0.129428
    57  H    0.132923
 Sum of Mulliken charges =  -0.00000

 Dipole moment (field-independent basis, Debye):
    X=              7.0040    Y=              0.4435    Z=             -1.0571  Tot=              7.0972
 Quadrupole moment (field-independent basis, Debye-Ang):
   XX=           -206.5922   YY=           -198.2069   ZZ=           -191.0260
   XY=            -13.2984   XZ=            -20.1454   YZ=              0.1935

 Normal termination of Gaussian 16 at Sat Nov  5 09:56:41 2022.
