 Gaussian 16, Revision B.01,
 Gaussian 16:  ES64L-G16RevB.01 20-Dec-2017

 -----------------------------
 #p b3lyp/6-31g(d) opt SCF=XQC
 -----------------------------

 ------------------------------
 Gaussian input prepared by ASE
 ------------------------------
 Symbolic Z-matrix:
 Charge =  0 Multiplicity = 1

 SCF Done:  E(RB3LYP) =  -766.940377066     A.U. after   15 cycles
 SCF Done:  E(RB3LYP) =  -766.944611778     A.U. after   12 cycles
 SCF Done:  E(RB3LYP) =  -766.944783773     A.U. after   11 cycles
 SCF Done:  E(RB3LYP) =  -766.944833282     A.U. after   11 cycles
 SCF Done:  E(RB3LYP) =  -766.944848251     A.U. after   10 cycles
 SCF Done:  E(RB3LYP) =  -766.944857174     A.U. after   10 cycles
 SCF Done:  E(RB3LYP) =  -766.944861928     A.U. after   10 cycles
 SCF Done:  E(RB3LYP) =  -766.944863329     A.U. after    9 cycles
 SCF Done:  E(RB3LYP) =  -766.944863916     A.U. after    8 cycles
 SCF Done:  E(RB3LYP) =  -766.944864626     A.U. after    8 cycles
 SCF Done:  E(RB3LYP) =  -766.944865328     A.U. after    7 cycles
 SCF Done:  E(RB3LYP) =  -766.944865787     A.U. after    8 cycles
 SCF Done:  E(RB3LYP) =  -766.944866269     A.U. after    7 cycles
 SCF Done:  E(RB3LYP) =  -766.944867053     A.U. after    9 cycles
 SCF Done:  E(RB3LYP) =  -766.944868254     A.U. after    9 cycles
 SCF Done:  E(RB3LYP) =  -766.944869522     A.U. after    9 cycles
 SCF Done:  E(RB3LYP) =  -766.944870488     A.U. after    9 cycles
 SCF Done:  E(RB3LYP) =  -766.944871663     A.U. after    9 cycles
 SCF Done:  E(RB3LYP) =  -766.944872146     A.U. after    8 cycles
 SCF Done:  E(RB3LYP) =  -766.944872196     A.U. after    7 cycles
 Optimization completed.
    -- Stationary point found.

                         Standard orientation:
 ---------------------------------------------------------------------
 Center     Atomic      Atomic             Coordinates (Angstroms)
 Number     Number       Type             X           Y           Z
 ---------------------------------------------------------------------
      1          6           0        5.210879   -1.722330    0.959700
      2          6           0        4.253894   -0.645708    0.504206
      3          6           0        4.697349    0.658379    0.248045
      4          6           0        3.814784    1.631482   -0.209900
      5          6           0        2.455322    1.365432   -0.426858
      6          6           0        1.559127    2.451310   -0.977140
      7          6           0        2.013793    0.061986   -0.137692
      8          7           0        0.648153   -0.317889   -0.305451
      9          6           0       -0.472148    0.334888    0.117857
     10          6           0       -1.565354   -0.457682   -0.197818
     11          6           0       -2.987830   -0.187986    0.051977
     12          6           0       -3.396101    0.681056    1.079131
     13          6           0       -4.746351    0.938063    1.307003
     14          6           0       -5.723338    0.323712    0.520706
     15          6           0       -5.333568   -0.547187   -0.498380
     16          6           0       -3.982558   -0.796933   -0.732678
     17          6           0       -0.976454   -1.596344   -0.813023
     18          7           0        0.346909   -1.519561   -0.870051
     19          6           0        2.900654   -0.923153    0.310689
     20          1           0        5.756250   -2.153320    0.109663
     21          1           0        5.958153   -1.325453    1.655866
     22          1           0        4.683965   -2.541893    1.458446
     23          1           0        5.744416    0.911474    0.397985
     24          1           0        4.187549    2.630462   -0.424078
     25          1           0        2.156182    3.192284   -1.517769
     26          1           0        0.808223    2.051837   -1.665619
     27          1           0        1.020761    2.990501   -0.186365
     28          1           0       -0.412139    1.295273    0.605675
     29          1           0       -2.647718    1.143878    1.717226
     30          1           0       -5.036573    1.612816    2.108308
     31          1           0       -6.776540    0.520537    0.701390
     32          1           0       -6.083760   -1.029055   -1.120096
     33          1           0       -3.692416   -1.457846   -1.544868
     34          1           0       -1.472500   -2.476487   -1.201668
     35          1           0        2.508118   -1.916772    0.499468
 ---------------------------------------------------------------------

 The electronic state is 1-A.
 Alpha  occ. eigenvalues --  -14.41460 -14.34525 -10.23338 -10.22093 -10.20514
 Alpha  occ. eigenvalues --  -10.20269 -10.19992 -10.19952 -10.19181 -10.19014
 Alpha  occ. eigenvalues --  -10.18897 -10.18859 -10.18858 -10.18802 -10.18759
 Alpha  occ. eigenvalues --  -10.18685 -10.18609 -10.18595 -10.18517  -1.04644
 Alpha  occ. eigenvalues --   -0.87663  -0.85326  -0.82711  -0.79474  -0.78577
 Alpha  occ. eigenvalues --   -0.75011  -0.74109  -0.72574  -0.71661  -0.66259
 Alpha  occ. eigenvalues --   -0.63278  -0.62179  -0.60399  -0.58818  -0.57151
 Alpha  occ. eigenvalues --   -0.55510  -0.53084  -0.50201  -0.48526  -0.48219
 Alpha  occ. eigenvalues --   -0.45972  -0.45526  -0.44337  -0.43892  -0.42449
 Alpha  occ. eigenvalues --   -0.41989  -0.41704  -0.41658  -0.41486  -0.40596
 Alpha  occ. eigenvalues --   -0.40126  -0.39325  -0.37779  -0.36490  -0.35389
 Alpha  occ. eigenvalues --   -0.34784  -0.34691  -0.34456  -0.33806  -0.29042
 Alpha  occ. eigenvalues --   -0.28404  -0.26513  -0.24767  -0.24224  -0.23444
 Alpha  occ. eigenvalues --   -0.20958
 Alpha virt. eigenvalues --   -0.02207  -0.00549  -0.00221   0.00260   0.03200
 Alpha virt. eigenvalues --    0.08816   0.09088   0.09990   0.10096   0.11776
 Alpha virt. eigenvalues --    0.12538   0.13226   0.14266   0.14362   0.15566

 Mulliken charges:
               1
     1  C   -0.530249
     2  C    0.165197
     3  C   -0.163431
     4  C   -0.200507
     5  C    0.171195
     6  C   -0.542548
     7  C    0.238100
     8  N   -0.368816
     9  C    0.039798
    10  C   -0.057144
    11  C    0.126214
    12  C   -0.180537
    13  C   -0.133351
    14  C   -0.128736
    15  C   -0.134017
    16  C   -0.180840
    17  C    0.019124
    18  N   -0.293830
    19  C   -0.190723
    20  H    0.169197
    21  H    0.157773
    22  H    0.160801
    23  H    0.124027
    24  H    0.126229
    25  H    0.161285
    26  H    0.179803
    27  H    0.161197
    28  H    0.166295
    29  H    0.123126
    30  H    0.128369
    31  H    0.127844
    32  H    0.129448
    33  H    0.129889
    34  H    0.146251
    35  H    0.153567
 Sum of Mulliken charges =  -0.00000

 Dipole moment (field-independent basis, Debye):
    X=              0.6966    Y=              1.6412    Z=              0.8751  Tot=              1.9861
 Quadrupole moment (field-independent basis, Debye-Ang):
   XX=            -95.5807   YY=           -105.8624   ZZ=           -111.5485
   XY=              1.8464   XZ=              2.6772   YZ=              1.0090

 1\1\GINC-NODE12\FOpt\RB3LYP\6-31G(d)\C17H16N2\WYKGROUP\04-Nov-2022\0\\
 #p b3lyp/6-31g(d) opt SCF=XQC\\Gaussian input prepared by ASE\\0,1\C,-
 4.960526057,-0.6578756822,2.1124867541\C,-4.0476607201,-0.4941106259,0
 .919897979\C,-4.5175717088,-0.6879350097,-0.3856781257\C,-3.6784345145
 ,-0.494851169,-1.478441209\C,-2.337603895,-0.1114185677,-1.3330288031\
 C,-1.492583403,0.1350599276,-2.5619693688\C,-1.86712097,0.050788484,-0
 .0177833235\N,-0.5156788684,0.4234243293,0.2508595155\C,0.6292293622,-
 0.1025105893,-0.2715964622\C,1.7004775762,0.5196402475,0.3515186391\C,

 Normal termination of Gaussian 16 at Fri Nov  4 22:47:27 2022.
