 Gaussian 16, Revision B.01,
 Gaussian 16:  ES64L-G16RevB.01 20-Dec-2017

 -------------------------------------------------------------------
 #p b3lyp/6-31g(d) 6D 10F nosymm GFInput td=(50-50,nstate=2) SCF=XQC
 -------------------------------------------------------------------

 ------------------------------
 Gaussian input prepared by ASE
 ------------------------------
 Symbolic Z-matrix:
 Charge =  0 Multiplicity = 1

                          Input orientation:
 ---------------------------------------------------------------------
 Center     Atomic      Atomic             Coordinates (Angstroms)
 Number     Number       Type             X           Y           Z
 ---------------------------------------------------------------------
      1          6           0       -4.960526   -0.657876    2.112487
      2          6           0       -4.047661   -0.494111    0.919898
      3          6           0       -4.517572   -0.687935   -0.385678
      4          6           0       -3.678435   -0.494851   -1.478441
      5          6           0       -2.337604   -0.111419   -1.333029
      6          6           0       -1.492583    0.135060   -2.561969
      7          6           0       -1.867121    0.050788   -0.017783
      8          7           0       -0.515679    0.423424    0.250860
      9          6           0        0.629229   -0.102511   -0.271596
     10          6           0        1.700478    0.519640    0.351519
     11          6           0        3.136017    0.298443    0.130454
     12          6           0        3.615246   -0.916878   -0.389451
     13          6           0        4.977191   -1.118399   -0.603107
     14          6           0        5.895810   -0.113740   -0.291674
     15          6           0        5.435652    1.095805    0.231947
     16          6           0        4.072416    1.301105    0.436736
     17          6           0        1.074034    1.415738    1.260588
     18          7           0       -0.250317    1.353389    1.209132
     19          6           0       -2.711188   -0.129787    1.083584
     20          1           0       -5.565867    0.243734    2.274987
     21          1           0       -5.655520   -1.493405    1.973022
     22          1           0       -4.392150   -0.838848    3.030238
     23          1           0       -5.551895   -0.981976   -0.548781
     24          1           0       -4.072728   -0.628627   -2.483141
     25          1           0       -2.133563    0.375270   -3.415926
     26          1           0       -0.793372    0.964365   -2.417764
     27          1           0       -0.899404   -0.744524   -2.845447
     28          1           0        0.600143   -0.867785   -1.031476
     29          1           0        2.914329   -1.717955   -0.609539
     30          1           0        5.322871   -2.067477   -1.004813
     31          1           0        6.958380   -0.272583   -0.453954
     32          1           0        6.139733    1.887407    0.475155
     33          1           0        3.725904    2.256201    0.821914
     34          1           0        1.544887    2.092540    1.962011
     35          1           0       -2.299137    0.027777    2.074738
 ---------------------------------------------------------------------

 SCF Done:  E(RB3LYP) =  -766.944873367     A.U. after   15 cycles

 Excitation energies and oscillator strengths:

 Excited state symmetry could not be determined.
 Excited State   1:      Triplet-?Sym    3.3385 eV  371.37 nm  f=0.0000  <S**2>=2.000
      62 -> 68        -0.13141
      63 -> 70         0.24518
      65 -> 67         0.10740
      65 -> 68        -0.13042
      66 -> 67         0.51889
      66 -> 68        -0.30324
 This state for optimization and/or second-order correction.
 Total Energy, E(TD-HF/TD-DFT) =  -766.822184650
 Copying the excited state density for this state as the 1-particle RhoCI density.

 Excited state symmetry could not be determined.
 Excited State   2:      Triplet-?Sym    3.5420 eV  350.04 nm  f=0.0000  <S**2>=2.000
      62 -> 67         0.13112
      64 -> 67         0.11530
      64 -> 69        -0.33995
      65 -> 67         0.36645
      65 -> 68         0.15928
      65 -> 69         0.17279
      66 -> 67        -0.18018
      66 -> 68        -0.27984

 Excited state symmetry could not be determined.
 Excited State   3:      Singlet-?Sym    4.6085 eV  269.03 nm  f=0.4783  <S**2>=0.000
      66 -> 67         0.68980

 Excited state symmetry could not be determined.
 Excited State   4:      Singlet-?Sym    4.9226 eV  251.87 nm  f=0.0048  <S**2>=0.000
      64 -> 67        -0.30071
      64 -> 68        -0.11358
      65 -> 67         0.17915
      65 -> 69        -0.16846
      66 -> 69         0.52669
      66 -> 70         0.14232

 Alpha  occ. eigenvalues --  -14.41460 -14.34525 -10.23338 -10.22093 -10.20514
 Alpha  occ. eigenvalues --  -10.20269 -10.19992 -10.19952 -10.19181 -10.19014
 Alpha  occ. eigenvalues --  -10.18897 -10.18859 -10.18858 -10.18802 -10.18759
 Alpha  occ. eigenvalues --  -10.18685 -10.18609 -10.18595 -10.18517  -1.04644
 Alpha  occ. eigenvalues --   -0.87663  -0.85326  -0.82711  -0.79474  -0.78577
 Alpha  occ. eigenvalues --   -0.75011  -0.74109  -0.72574  -0.71661  -0.66259
 Alpha  occ. eigenvalues --   -0.63278  -0.62179  -0.60399  -0.58818  -0.57151
 Alpha  occ. eigenvalues --   -0.55510  -0.53084  -0.50201  -0.48526  -0.48219
 Alpha  occ. eigenvalues --   -0.45972  -0.45526  -0.44337  -0.43892  -0.42449
 Alpha  occ. eigenvalues --   -0.41989  -0.41704  -0.41658  -0.41487  -0.40596
 Alpha  occ. eigenvalues --   -0.40126  -0.39326  -0.37779  -0.36490  -0.35389
 Alpha  occ. eigenvalues --   -0.34784  -0.34691  -0.34456  -0.33806  -0.29042
 Alpha  occ. eigenvalues --   -0.28404  -0.26513  -0.24767  -0.24224  -0.23444
 Alpha  occ. eigenvalues --   -0.20958
 Alpha virt. eigenvalues --   -0.02207  -0.00549  -0.00221   0.00260   0.03200
 Alpha virt. eigenvalues --    0.08816   0.09088   0.09990   0.10096   0.11776
 Alpha virt. eigenvalues --    0.12538   0.13226   0.14266   0.14362   0.15566

 Mulliken charges:
               1
     1  C   -0.530248
     2  C    0.165201
     3  C   -0.163433
     4  C   -0.200512
     5  C    0.171206
     6  C   -0.542545
     7  C    0.238094
     8  N   -0.368817
     9  C    0.039789
    10  C   -0.057136
    11  C    0.126221
    12  C   -0.180536
    13  C   -0.133350
    14  C   -0.128737
    15  C   -0.134012
    16  C   -0.180847
    17  C    0.019110
    18  N   -0.293824
    19  C   -0.190723
    20  H    0.169197
    21  H    0.157773
    22  H    0.160801
    23  H    0.124027
    24  H    0.126229
    25  H    0.161284
    26  H    0.179803
    27  H    0.161197
    28  H    0.166298
    29  H    0.123125
    30  H    0.128369
    31  H    0.127844
    32  H    0.129448
    33  H    0.129889
    34  H    0.146251
    35  H    0.153566
 Sum of Mulliken charges =  -0.00000

 Dipole moment (field-independent basis, Debye):
    X=             -0.6388    Y=             -1.3887    Z=             -1.2681  Tot=              1.9861
 Quadrupole moment (field-independent basis, Debye-Ang):
   XX=            -96.2476   YY=           -110.1135   ZZ=           -107.1088
   XY=              3.9344   XZ=              0.2096   YZ=              2.2967

 Normal termination of Gaussian 16 at Sat Nov  5 09:49:05 2022.
