 Gaussian 16, Revision B.01,
 Gaussian 16:  ES64L-G16RevB.01 20-Dec-2017

 -------------------------------------------------------------------
 #p b3lyp/6-31g(d) 6D 10F nosymm GFInput td=(50-50,nstate=2) SCF=XQC
 -------------------------------------------------------------------

 ------------------------------
 Gaussian input prepared by ASE
 ------------------------------
 Symbolic Z-matrix:
 Charge =  0 Multiplicity = 1

                          Input orientation:
 ---------------------------------------------------------------------
 Center     Atomic      Atomic             Coordinates (Angstroms)
 Number     Number       Type             X           Y           Z
 ---------------------------------------------------------------------
      1          6           0        7.406686    0.472046    0.087139
      2          6           0        5.902219    0.493978    0.041373
      3          6           0        5.172923    1.683475   -0.119887
      4          6           0        3.796855    1.605535   -0.150446
      5          6           0        3.203703    0.333236   -0.031727
      6          6           0        1.734538    0.121677   -0.060763
      7          6           0        0.852100    1.104000   -0.537512
      8          6           0       -0.519790    0.880085   -0.547299
      9          6           0       -1.063072   -0.332287   -0.093594
     10          6           0       -0.182353   -1.325600    0.400562
     11          6           0        1.191558   -1.087679    0.400831
     12          6           0       -0.737067   -2.602473    0.998188
     13          7           0       -1.241898   -3.541825   -0.019016
     14          6           0       -2.052473   -2.887849   -1.065092
     15          6           0       -2.978922   -1.789854   -0.587967
     16          6           0       -2.528417   -0.586637   -0.164043
     17          6           0       -3.471088    0.494615    0.234794
     18          6           0       -3.184648    1.340632    1.321509
     19          6           0       -4.090198    2.323338    1.719640
     20          6           0       -5.298395    2.497016    1.042629
     21          6           0       -5.565806    1.662680   -0.036332
     22          9           0       -6.721894    1.825409   -0.716545
     23          6           0       -4.682276    0.676936   -0.453368
     24          7           0        3.959006   -0.766665    0.130570
     25          7           0        5.285021   -0.689127    0.171589
     26          1           0        7.750460   -0.551108    0.253380
     27          1           0        7.790455    1.109820    0.892807
     28          1           0        7.837997    0.839252   -0.852429
     29          1           0        5.685447    2.638231   -0.205458
     30          1           0        3.192356    2.501440   -0.244763
     31          1           0        1.229581    2.043529   -0.929867
     32          1           0       -1.184571    1.649001   -0.929862
     33          1           0        1.870476   -1.847208    0.772910
     34          1           0       -1.522937   -2.314968    1.718628
     35          1           0        0.050672   -3.112750    1.563455
     36          1           0       -1.808022   -4.242192    0.458235
     37          1           0       -1.354273   -2.467846   -1.800155
     38          1           0       -2.619157   -3.670599   -1.578533
     39          1           0       -4.049131   -1.987919   -0.574389
     40          1           0       -2.252303    1.215270    1.862569
     41          1           0       -3.855925    2.960220    2.568151
     42          1           0       -6.016775    3.258310    1.327819
     43          1           0       -4.930666    0.074857   -1.320618
 ---------------------------------------------------------------------

 SCF Done:  E(RB3LYP) =  -1075.11891596     A.U. after   14 cycles

 Excitation energies and oscillator strengths:

 Excited state symmetry could not be determined.
 Excited State   1:      Triplet-?Sym    2.6920 eV  460.57 nm  f=0.0000  <S**2>=2.000
      83 -> 90         0.10303
      84 -> 88         0.11591
      84 -> 90        -0.11476
      85 -> 89        -0.19424
      86 -> 88        -0.31868
      86 -> 89         0.10674
      87 -> 88         0.46317
      87 -> 89         0.11822
      87 -> 90         0.13151
 This state for optimization and/or second-order correction.
 Total Energy, E(TD-HF/TD-DFT) =  -1075.01998811
 Copying the excited state density for this state as the 1-particle RhoCI density.

 Excited state symmetry could not be determined.
 Excited State   2:      Triplet-?Sym    2.7072 eV  457.99 nm  f=0.0000  <S**2>=2.000
      85 -> 88         0.32747
      85 -> 89        -0.35675
      86 -> 88        -0.17196
      86 -> 89         0.39506
      87 -> 88        -0.20765

 Excited state symmetry could not be determined.
 Excited State   3:      Singlet-?Sym    3.4677 eV  357.54 nm  f=0.0029  <S**2>=0.000
      85 -> 88        -0.39079
      85 -> 89         0.27188
      86 -> 88         0.42921
      86 -> 89        -0.26753

 Excited state symmetry could not be determined.
 Excited State   4:      Singlet-?Sym    3.6295 eV  341.60 nm  f=0.0879  <S**2>=0.000
      85 -> 88         0.17477
      86 -> 88         0.14117
      86 -> 89         0.11416
      87 -> 88         0.64531

 Alpha  occ. eigenvalues --  -24.70307 -14.35935 -14.35881 -14.31766 -10.27264
 Alpha  occ. eigenvalues --  -10.23815 -10.23651 -10.21845 -10.21717 -10.21004
 Alpha  occ. eigenvalues --  -10.20900 -10.20866 -10.20406 -10.20394 -10.20301
 Alpha  occ. eigenvalues --  -10.20162 -10.19884 -10.19782 -10.19711 -10.19620
 Alpha  occ. eigenvalues --  -10.19420 -10.19356 -10.19086 -10.18978 -10.18747
 Alpha  occ. eigenvalues --   -1.21438  -1.01003  -0.90652  -0.87119  -0.86391
 Alpha  occ. eigenvalues --   -0.83788  -0.82499  -0.80587  -0.76596  -0.75587
 Alpha  occ. eigenvalues --   -0.74719  -0.74506  -0.71640  -0.68626  -0.66028
 Alpha  occ. eigenvalues --   -0.65878  -0.62974  -0.61906  -0.60923  -0.60027
 Alpha  occ. eigenvalues --   -0.57263  -0.55395  -0.53407  -0.51939  -0.51572
 Alpha  occ. eigenvalues --   -0.49968  -0.49683  -0.48285  -0.47586  -0.46882
 Alpha  occ. eigenvalues --   -0.46339  -0.45670  -0.44789  -0.44385  -0.43982
 Alpha  occ. eigenvalues --   -0.43189  -0.42913  -0.42235  -0.41393  -0.40637
 Alpha  occ. eigenvalues --   -0.40430  -0.39964  -0.39092  -0.38560  -0.37709
 Alpha  occ. eigenvalues --   -0.37411  -0.36716  -0.36318  -0.35845  -0.34704
 Alpha  occ. eigenvalues --   -0.33935  -0.33411  -0.30740  -0.30638  -0.29912
 Alpha  occ. eigenvalues --   -0.28339  -0.25342  -0.25072  -0.24340  -0.22617
 Alpha  occ. eigenvalues --   -0.22426  -0.21069
 Alpha virt. eigenvalues --   -0.05636  -0.04451  -0.03105  -0.00733   0.00286
 Alpha virt. eigenvalues --    0.00955   0.05446   0.08742   0.09072   0.09622
 Alpha virt. eigenvalues --    0.10717   0.11341   0.12637   0.12882   0.13928

 Mulliken charges:
               1
     1  C   -0.524217
     2  C    0.326695
     3  C   -0.152289
     4  C   -0.135329
     5  C    0.258483
     6  C    0.114969
     7  C   -0.191905
     8  C   -0.183408
     9  C    0.045213
    10  C    0.121010
    11  C   -0.236619
    12  C   -0.213643
    13  N   -0.525768
    14  C   -0.191309
    15  C   -0.182069
    16  C    0.045443
    17  C    0.098119
    18  C   -0.175609
    19  C   -0.134370
    20  C   -0.195873
    21  C    0.382597
    22  F   -0.300103
    23  C   -0.255543
    24  N   -0.338429
    25  N   -0.306239
    26  H    0.187079
    27  H    0.164074
    28  H    0.165939
    29  H    0.145686
    30  H    0.152179
    31  H    0.128097
    32  H    0.141676
    33  H    0.168828
    34  H    0.131843
    35  H    0.151801
    36  H    0.292659
    37  H    0.167983
    38  H    0.142850
    39  H    0.135117
    40  H    0.141965
    41  H    0.139492
    42  H    0.146285
    43  H    0.146638
 Sum of Mulliken charges =  -0.00000

 Dipole moment (field-independent basis, Debye):
    X=              0.3041    Y=              3.3726    Z=              0.8208  Tot=              3.4843
 Quadrupole moment (field-independent basis, Debye-Ang):
   XX=           -138.9161   YY=           -135.6387   ZZ=           -141.0252
   XY=             22.9365   XZ=             -4.3997   YZ=              0.2732

 Normal termination of Gaussian 16 at Sat Nov  5 09:38:53 2022.
