 Gaussian 16, Revision B.01,
 Gaussian 16:  ES64L-G16RevB.01 20-Dec-2017

 -----------------------------
 #p b3lyp/6-31g(d) opt SCF=XQC
 -----------------------------

 ------------------------------
 Gaussian input prepared by ASE
 ------------------------------
 Symbolic Z-matrix:
 Charge =  0 Multiplicity = 1

 SCF Done:  E(RB3LYP) =  -1075.11270324     A.U. after   14 cycles
 SCF Done:  E(RB3LYP) =  -1075.11848353     A.U. after   12 cycles
 SCF Done:  E(RB3LYP) =  -1075.11883685     A.U. after   12 cycles
 SCF Done:  E(RB3LYP) =  -1075.11889638     A.U. after   11 cycles
 SCF Done:  E(RB3LYP) =  -1075.11890966     A.U. after   11 cycles
 SCF Done:  E(RB3LYP) =  -1075.11891720     A.U. after   11 cycles
 SCF Done:  E(RB3LYP) =  -1075.11892033     A.U. after   10 cycles
 SCF Done:  E(RB3LYP) =  -1075.11892154     A.U. after   10 cycles
 SCF Done:  E(RB3LYP) =  -1075.11892189     A.U. after    8 cycles
 SCF Done:  E(RB3LYP) =  -1075.11892200     A.U. after    7 cycles
 SCF Done:  E(RB3LYP) =  -1075.11892207     A.U. after    7 cycles
 SCF Done:  E(RB3LYP) =  -1075.11892214     A.U. after    7 cycles
 SCF Done:  E(RB3LYP) =  -1075.11892219     A.U. after    7 cycles
 SCF Done:  E(RB3LYP) =  -1075.11892224     A.U. after    7 cycles
 SCF Done:  E(RB3LYP) =  -1075.11892228     A.U. after    7 cycles
 SCF Done:  E(RB3LYP) =  -1075.11892231     A.U. after    6 cycles
 Optimization completed.
    -- Stationary point found.

                         Standard orientation:
 ---------------------------------------------------------------------
 Center     Atomic      Atomic             Coordinates (Angstroms)
 Number     Number       Type             X           Y           Z
 ---------------------------------------------------------------------
      1          6           0       -7.610629   -0.822013    0.007836
      2          6           0       -6.107589   -0.759223   -0.046226
      3          6           0       -5.317973   -1.888343   -0.318946
      4          6           0       -3.948284   -1.734493   -0.348161
      5          6           0       -3.422120   -0.448461   -0.115909
      6          6           0       -1.966513   -0.156905   -0.131763
      7          6           0       -1.037819   -1.043030   -0.700318
      8          6           0        0.320176   -0.746144   -0.695453
      9          6           0        0.802783    0.447056   -0.134904
     10          6           0       -0.124614    1.342613    0.451984
     11          6           0       -1.483975    1.032559    0.436366
     12          6           0        0.367322    2.587426    1.161708
     13          7           0        0.812456    3.641340    0.232697
     14          6           0        1.646815    3.129844   -0.872387
     15          6           0        2.634325    2.043982   -0.501878
     16          6           0        2.251934    0.784739   -0.188059
     17          6           0        3.254039   -0.276461    0.105955
     18          6           0        3.022689   -1.232234    1.111796
     19          6           0        3.982514   -2.197361    1.414297
     20          6           0        5.191933   -2.243685    0.719023
     21          6           0        5.404970   -1.301252   -0.280084
     22          9           0        6.561748   -1.339183   -0.977320
     23          6           0        4.466800   -0.330202   -0.601228
     24          7           0       -4.232961    0.590081    0.149746
     25          7           0       -5.552594    0.438352    0.189197
     26          1           0       -8.006441    0.161851    0.268613
     27          1           0       -7.952751   -1.550261    0.753317
     28          1           0       -8.030543   -1.124454   -0.959562
     29          1           0       -5.780100   -2.857329   -0.489439
     30          1           0       -3.298184   -2.584449   -0.526780
     31          1           0       -1.368718   -1.961654   -1.175488
     32          1           0        1.021114   -1.440291   -1.149725
     33          1           0       -2.198632    1.717574    0.879400
     34          1           0        1.173866    2.277783    1.849380
     35          1           0       -0.441055    3.001136    1.774743
     36          1           0        1.345142    4.324478    0.769676
     37          1           0        0.965062    2.741968   -1.639830
     38          1           0        2.166611    3.985359   -1.314375
     39          1           0        3.692654    2.296905   -0.474817
     40          1           0        2.090030   -1.206800    1.666078
     41          1           0        3.790018   -2.920642    2.201878
     42          1           0        5.952122   -2.988338    0.930155
     43          1           0        4.675059    0.360936   -1.410719
 ---------------------------------------------------------------------

 The electronic state is 1-A.
 Alpha  occ. eigenvalues --  -24.70307 -14.35935 -14.35881 -14.31767 -10.27264
 Alpha  occ. eigenvalues --  -10.23815 -10.23651 -10.21845 -10.21717 -10.21004
 Alpha  occ. eigenvalues --  -10.20900 -10.20866 -10.20406 -10.20395 -10.20301
 Alpha  occ. eigenvalues --  -10.20162 -10.19884 -10.19782 -10.19711 -10.19620
 Alpha  occ. eigenvalues --  -10.19420 -10.19356 -10.19085 -10.18978 -10.18748
 Alpha  occ. eigenvalues --   -1.21438  -1.01003  -0.90652  -0.87119  -0.86391
 Alpha  occ. eigenvalues --   -0.83788  -0.82499  -0.80587  -0.76596  -0.75587
 Alpha  occ. eigenvalues --   -0.74719  -0.74506  -0.71640  -0.68626  -0.66028
 Alpha  occ. eigenvalues --   -0.65878  -0.62974  -0.61906  -0.60923  -0.60027
 Alpha  occ. eigenvalues --   -0.57263  -0.55395  -0.53407  -0.51939  -0.51572
 Alpha  occ. eigenvalues --   -0.49968  -0.49683  -0.48285  -0.47586  -0.46882
 Alpha  occ. eigenvalues --   -0.46339  -0.45670  -0.44789  -0.44385  -0.43982
 Alpha  occ. eigenvalues --   -0.43189  -0.42913  -0.42235  -0.41393  -0.40637
 Alpha  occ. eigenvalues --   -0.40430  -0.39964  -0.39092  -0.38560  -0.37709
 Alpha  occ. eigenvalues --   -0.37411  -0.36716  -0.36318  -0.35845  -0.34704
 Alpha  occ. eigenvalues --   -0.33935  -0.33411  -0.30740  -0.30638  -0.29912
 Alpha  occ. eigenvalues --   -0.28339  -0.25343  -0.25072  -0.24340  -0.22617
 Alpha  occ. eigenvalues --   -0.22426  -0.21069
 Alpha virt. eigenvalues --   -0.05636  -0.04451  -0.03105  -0.00733   0.00286
 Alpha virt. eigenvalues --    0.00955   0.05446   0.08742   0.09073   0.09622
 Alpha virt. eigenvalues --    0.10717   0.11341   0.12637   0.12882   0.13928

 Mulliken charges:
               1
     1  C   -0.524215
     2  C    0.326688
     3  C   -0.152287
     4  C   -0.135332
     5  C    0.258490
     6  C    0.114950
     7  C   -0.191894
     8  C   -0.183410
     9  C    0.045203
    10  C    0.121001
    11  C   -0.236614
    12  C   -0.213637
    13  N   -0.525771
    14  C   -0.191321
    15  C   -0.182050
    16  C    0.045445
    17  C    0.098136
    18  C   -0.175614
    19  C   -0.134372
    20  C   -0.195871
    21  C    0.382603
    22  F   -0.300103
    23  C   -0.255557
    24  N   -0.338426
    25  N   -0.306236
    26  H    0.187079
    27  H    0.164074
    28  H    0.165939
    29  H    0.145687
    30  H    0.152181
    31  H    0.128098
    32  H    0.141677
    33  H    0.168829
    34  H    0.131841
    35  H    0.151801
    36  H    0.292661
    37  H    0.167984
    38  H    0.142851
    39  H    0.135115
    40  H    0.141965
    41  H    0.139492
    42  H    0.146284
    43  H    0.146639
 Sum of Mulliken charges =  -0.00000

 Dipole moment (field-independent basis, Debye):
    X=             -0.1180    Y=             -3.4448    Z=              0.5095  Tot=              3.4843
 Quadrupole moment (field-independent basis, Debye-Ang):
   XX=           -141.1899   YY=           -133.6008   ZZ=           -141.1546
   XY=             22.9593   XZ=              6.3431   YZ=              0.7311

 Normal termination of Gaussian 16 at Fri Nov  4 22:10:33 2022.
