 Gaussian 16, Revision B.01,
 Gaussian 16:  ES64L-G16RevB.01 20-Dec-2017

 -----------------------------
 #p b3lyp/6-31g(d) opt SCF=XQC
 -----------------------------

 ------------------------------
 Gaussian input prepared by ASE
 ------------------------------
 Symbolic Z-matrix:
 Charge =  0 Multiplicity = 1

 SCF Done:  E(RB3LYP) =  -1114.98041254     A.U. after   15 cycles
 SCF Done:  E(RB3LYP) =  -1114.98649514     A.U. after   12 cycles
 SCF Done:  E(RB3LYP) =  -1114.98696756     A.U. after   12 cycles
 SCF Done:  E(RB3LYP) =  -1114.98701467     A.U. after   12 cycles
 SCF Done:  E(RB3LYP) =  -1114.98722805     A.U. after   11 cycles
 SCF Done:  E(RB3LYP) =  -1114.98729978     A.U. after   11 cycles
 SCF Done:  E(RB3LYP) =  -1114.98733996     A.U. after   12 cycles
 SCF Done:  E(RB3LYP) =  -1114.98736069     A.U. after   11 cycles
 SCF Done:  E(RB3LYP) =  -1114.98740645     A.U. after   12 cycles
 SCF Done:  E(RB3LYP) =  -1114.98741649     A.U. after   11 cycles
 SCF Done:  E(RB3LYP) =  -1114.98771994     A.U. after    9 cycles
 SCF Done:  E(RB3LYP) =  -1114.98773404     A.U. after   11 cycles
 SCF Done:  E(RB3LYP) =  -1114.98773571     A.U. after   10 cycles
 SCF Done:  E(RB3LYP) =  -1114.98773595     A.U. after    9 cycles
 SCF Done:  E(RB3LYP) =  -1114.98773666     A.U. after   11 cycles
 SCF Done:  E(RB3LYP) =  -1114.98773697     A.U. after    7 cycles
 SCF Done:  E(RB3LYP) =  -1114.98773709     A.U. after    9 cycles
 SCF Done:  E(RB3LYP) =  -1114.98773713     A.U. after    9 cycles
 SCF Done:  E(RB3LYP) =  -1114.98773714     A.U. after    8 cycles
 SCF Done:  E(RB3LYP) =  -1114.98773714     A.U. after    7 cycles
 Optimization completed on the basis of negligible forces.
    -- Stationary point found.

                         Standard orientation:
 ---------------------------------------------------------------------
 Center     Atomic      Atomic             Coordinates (Angstroms)
 Number     Number       Type             X           Y           Z
 ---------------------------------------------------------------------
      1          6           0        8.370423    0.145070    0.764688
      2          6           0        7.143676   -0.592136    0.285925
      3          6           0        5.875313   -0.006217    0.333436
      4          6           0        4.748806   -0.713932   -0.113932
      5          6           0        3.392548   -0.118657   -0.076670
      6          6           0        2.260155   -0.906841    0.188353
      7          6           0        0.989436   -0.348347    0.226067
      8          6           0        0.802302    1.024201   -0.005255
      9          7           0       -0.514965    1.516788    0.049519
     10          6           0       -0.964847    2.801585   -0.136290
     11          8           0       -0.248355    3.758249   -0.392854
     12          6           0       -2.485277    2.997213    0.039147
     13          6           0       -3.359114    1.764207    0.057794
     14          6           0       -3.824872    1.188884   -1.134574
     15          6           0       -4.613629    0.042786   -1.118393
     16          6           0       -4.976529   -0.589902    0.084393
     17          6           0       -5.855261   -1.853295    0.055851
     18          6           0       -7.208748   -1.522516   -0.617350
     19          6           0       -5.138372   -2.960721   -0.752901
     20          6           0       -6.141919   -2.399000    1.467553
     21          6           0       -4.506371   -0.012551    1.270865
     22          6           0       -3.715308    1.139856    1.258451
     23          6           0        1.921421    1.827591   -0.275191
     24          6           0        3.188215    1.251648   -0.304928
     25          6           0        4.972913   -2.012035   -0.595599
     26          6           0        6.271711   -2.515547   -0.602219
     27          7           0        7.343718   -1.839352   -0.177583
     28          1           0        8.127998    1.149892    1.123467
     29          1           0        9.103389    0.230337   -0.045571
     30          1           0        8.855998   -0.408332    1.576488
     31          1           0        5.762343    0.993031    0.743458
     32          1           0        2.377533   -1.966597    0.395458
     33          1           0        0.130849   -0.979667    0.446144
     34          1           0       -1.231332    0.826977    0.240496
     35          1           0       -2.781516    3.675716   -0.767521
     36          1           0       -2.605411    3.564884    0.970594
     37          1           0       -3.569337    1.649282   -2.086578
     38          1           0       -4.955756   -0.363197   -2.066309
     39          1           0       -7.078160   -1.168514   -1.645309
     40          1           0       -7.743666   -0.744392   -0.061143
     41          1           0       -7.845059   -2.415146   -0.650873
     42          1           0       -5.756674   -3.865732   -0.789862
     43          1           0       -4.178960   -3.224323   -0.293060
     44          1           0       -4.940886   -2.650959   -1.784460
     45          1           0       -6.766646   -3.296192    1.395706
     46          1           0       -6.680484   -1.671477    2.085393
     47          1           0       -5.221488   -2.679922    1.992160
     48          1           0       -4.758353   -0.451943    2.229640
     49          1           0       -3.380107    1.563787    2.203060
     50          1           0        1.784508    2.882854   -0.464241
     51          1           0        4.038785    1.885354   -0.539519
     52          1           0        4.155986   -2.611467   -0.985531
     53          1           0        6.461993   -3.520359   -0.978146
 ---------------------------------------------------------------------

 The electronic state is 1-A.
 Alpha  occ. eigenvalues --  -19.12066 -14.37971 -14.31574 -10.29821 -10.24113
 Alpha  occ. eigenvalues --  -10.22178 -10.21411 -10.21407 -10.20962 -10.20953
 Alpha  occ. eigenvalues --  -10.20609 -10.20579 -10.20184 -10.20116 -10.19950
 Alpha  occ. eigenvalues --  -10.19887 -10.19865 -10.19777 -10.19699 -10.19346
 Alpha  occ. eigenvalues --  -10.18831 -10.18745 -10.18624 -10.18367 -10.18337
 Alpha  occ. eigenvalues --  -10.18282 -10.17576  -1.04075  -0.94573  -0.93109
 Alpha  occ. eigenvalues --   -0.87331  -0.85877  -0.82898  -0.80736  -0.77918
 Alpha  occ. eigenvalues --   -0.77275  -0.75578  -0.75129  -0.74072  -0.70693
 Alpha  occ. eigenvalues --   -0.69412  -0.69287  -0.69239  -0.64696  -0.63225
 Alpha  occ. eigenvalues --   -0.61507  -0.61190  -0.60648  -0.58620  -0.56590
 Alpha  occ. eigenvalues --   -0.55803  -0.54335  -0.51480  -0.51005  -0.48551
 Alpha  occ. eigenvalues --   -0.48354  -0.47453  -0.46802  -0.45998  -0.44857
 Alpha  occ. eigenvalues --   -0.44717  -0.44583  -0.44280  -0.43993  -0.43206
 Alpha  occ. eigenvalues --   -0.42947  -0.42561  -0.42185  -0.41943  -0.41064
 Alpha  occ. eigenvalues --   -0.40457  -0.40228  -0.39830  -0.38619  -0.38423
 Alpha  occ. eigenvalues --   -0.38048  -0.37452  -0.37260  -0.36500  -0.36222
 Alpha  occ. eigenvalues --   -0.36164  -0.35873  -0.35198  -0.34041  -0.33890
 Alpha  occ. eigenvalues --   -0.33150  -0.32530  -0.31334  -0.27502  -0.26718
 Alpha  occ. eigenvalues --   -0.26199  -0.25608  -0.24644  -0.24457  -0.23924
 Alpha  occ. eigenvalues --   -0.21530
 Alpha virt. eigenvalues --   -0.04030  -0.01691  -0.01432  -0.00686   0.00136
 Alpha virt. eigenvalues --    0.00808   0.05083   0.07193   0.08743   0.09260
 Alpha virt. eigenvalues --    0.10624   0.10992   0.11817   0.12108   0.12430

 Mulliken charges:
               1
     1  C   -0.504713
     2  C    0.303028
     3  C   -0.222170
     4  C    0.117266
     5  C    0.099435
     6  C   -0.179487
     7  C   -0.204186
     8  C    0.363335
     9  N   -0.726048
    10  C    0.609086
    11  O   -0.497902
    12  C   -0.454187
    13  C    0.122079
    14  C   -0.172472
    15  C   -0.186138
    16  C    0.179065
    17  C    0.015459
    18  C   -0.439537
    19  C   -0.439622
    20  C   -0.458061
    21  C   -0.192948
    22  C   -0.191277
    23  C   -0.166689
    24  C   -0.191893
    25  C   -0.192450
    26  C    0.033932
    27  N   -0.464016
    28  H    0.147056
    29  H    0.170891
    30  H    0.170673
    31  H    0.132180
    32  H    0.136250
    33  H    0.129475
    34  H    0.347198
    35  H    0.186287
    36  H    0.185102
    37  H    0.135845
    38  H    0.132214
    39  H    0.144227
    40  H    0.149480
    41  H    0.142157
    42  H    0.142955
    43  H    0.145372
    44  H    0.144384
    45  H    0.145172
    46  H    0.147499
    47  H    0.145141
    48  H    0.133080
    49  H    0.132831
    50  H    0.189408
    51  H    0.139341
    52  H    0.131959
    53  H    0.134929
 Sum of Mulliken charges =  -0.00000

 Dipole moment (field-independent basis, Debye):
    X=             -5.1610    Y=             -1.8929    Z=              0.8183  Tot=              5.5578
 Quadrupole moment (field-independent basis, Debye-Ang):
   XX=           -165.4491   YY=           -165.6355   ZZ=           -156.7261
   XY=             12.6064   XZ=              2.0088   YZ=              2.8436

 Normal termination of Gaussian 16 at Fri Nov  4 23:11:47 2022.
