 Gaussian 16, Revision B.01,
 Gaussian 16:  ES64L-G16RevB.01 20-Dec-2017

 -------------------------------------------------------------------
 #p b3lyp/6-31g(d) 6D 10F nosymm GFInput td=(50-50,nstate=2) SCF=XQC
 -------------------------------------------------------------------

 ------------------------------
 Gaussian input prepared by ASE
 ------------------------------
 Symbolic Z-matrix:
 Charge =  0 Multiplicity = 1

                          Input orientation:
 ---------------------------------------------------------------------
 Center     Atomic      Atomic             Coordinates (Angstroms)
 Number     Number       Type             X           Y           Z
 ---------------------------------------------------------------------
      1          6           0        8.716930    0.838897   -1.631218
      2          6           0        7.500907    1.214968   -0.820382
      3          6           0        6.278327    0.558969   -0.991457
      4          6           0        5.160375    0.929855   -0.228145
      5          6           0        3.852373    0.252257   -0.386786
      6          6           0        2.646297    0.959750   -0.250325
      7          6           0        1.420541    0.325217   -0.401834
      8          6           0        1.354673   -1.047276   -0.692249
      9          7           0        0.076362   -1.619505   -0.831201
     10          6           0       -0.261059   -2.921592   -1.111090
     11          8           0        0.543261   -3.824980   -1.288154
     12          6           0       -1.774373   -3.196251   -1.234373
     13          6           0       -2.728209   -2.141884   -0.721783
     14          6           0       -3.101458   -2.099221    0.630449
     15          6           0       -3.964644   -1.117143    1.106234
     16          6           0       -4.497811   -0.126841    0.261415
     17          6           0       -5.453519    0.937664    0.829391
     18          6           0       -6.700525    0.242431    1.426192
     19          6           0       -4.731916    1.736781    1.940743
     20          6           0       -5.927565    1.932694   -0.246744
     21          6           0       -4.119425   -0.173094   -1.086466
     22          6           0       -3.253920   -1.159367   -1.568279
     23          6           0        2.549163   -1.772010   -0.828930
     24          6           0        3.768962   -1.118829   -0.677911
     25          6           0        5.344847    1.974330    0.689645
     26          6           0        6.598901    2.572492    0.789631
     27          7           0        7.663071    2.216636    0.063228
     28          1           0        8.507267    0.018011   -2.323567
     29          1           0        9.537030    0.537650   -0.969617
     30          1           0        9.072851    1.700266   -2.207776
     31          1           0        6.191151   -0.224342   -1.738585
     32          1           0        2.667198    2.027150   -0.050396
     33          1           0        0.501698    0.899840   -0.303314
     34          1           0       -0.702337   -0.986755   -0.694271
     35          1           0       -1.934425   -4.151494   -0.723753
     36          1           0       -1.954627   -3.389308   -2.299508
     37          1           0       -2.713684   -2.849068    1.316700
     38          1           0       -4.229908   -1.127750    2.159771
     39          1           0       -6.435841   -0.450230    2.231942
     40          1           0       -7.237201   -0.326769    0.658749
     41          1           0       -7.389655    0.987997    1.840962
     42          1           0       -5.403672    2.494392    2.362024
     43          1           0       -3.848126    2.250092    1.544714
     44          1           0       -4.403552    1.090632    2.761557
     45          1           0       -6.601395    2.669538    0.204269
     46          1           0       -6.477990    1.432589   -1.051725
     47          1           0       -5.090607    2.481831   -0.693144
     48          1           0       -4.502952    0.560222   -1.787155
     49          1           0       -2.993930   -1.167280   -2.625022
     50          1           0        2.506633   -2.830638   -1.042386
     51          1           0        4.681582   -1.701848   -0.763340
     52          1           0        4.535225    2.298731    1.336183
     53          1           0        6.758698    3.381596    1.501664
 ---------------------------------------------------------------------

 SCF Done:  E(RB3LYP) =  -1114.98774185     A.U. after   15 cycles

 Excitation energies and oscillator strengths:

 Excited state symmetry could not be determined.
 Excited State   1:      Triplet-?Sym    3.1100 eV  398.67 nm  f=0.0000  <S**2>=2.000
      89 ->102        -0.10238
      92 ->100        -0.17014
      93 ->101         0.10178
      96 -> 97         0.63375
 This state for optimization and/or second-order correction.
 Total Energy, E(TD-HF/TD-DFT) =  -1114.87345296
 Copying the excited state density for this state as the 1-particle RhoCI density.

 Excited state symmetry could not be determined.
 Excited State   2:      Triplet-?Sym    3.6870 eV  336.27 nm  f=0.0000  <S**2>=2.000
      90 -> 98         0.23950
      90 -> 99        -0.14630
      91 -> 98        -0.22071
      91 -> 99        -0.35891
      95 -> 98        -0.42815
      95 -> 99         0.19951

 Excited state symmetry could not be determined.
 Excited State   3:      Singlet-?Sym    4.3768 eV  283.28 nm  f=0.7998  <S**2>=0.000
      96 -> 97         0.69692

 Excited state symmetry could not be determined.
 Excited State   4:      Singlet-?Sym    4.5571 eV  272.07 nm  f=0.0028  <S**2>=0.000
      93 -> 97        -0.15013
      94 -> 97         0.64866
      94 ->102         0.15336
      95 -> 97         0.10948

 Alpha  occ. eigenvalues --  -19.12066 -14.37971 -14.31575 -10.29821 -10.24113
 Alpha  occ. eigenvalues --  -10.22178 -10.21411 -10.21407 -10.20962 -10.20953
 Alpha  occ. eigenvalues --  -10.20609 -10.20579 -10.20184 -10.20116 -10.19950
 Alpha  occ. eigenvalues --  -10.19887 -10.19865 -10.19777 -10.19699 -10.19346
 Alpha  occ. eigenvalues --  -10.18831 -10.18745 -10.18624 -10.18367 -10.18337
 Alpha  occ. eigenvalues --  -10.18282 -10.17576  -1.04075  -0.94573  -0.93109
 Alpha  occ. eigenvalues --   -0.87331  -0.85877  -0.82898  -0.80736  -0.77918
 Alpha  occ. eigenvalues --   -0.77275  -0.75578  -0.75129  -0.74072  -0.70693
 Alpha  occ. eigenvalues --   -0.69412  -0.69287  -0.69239  -0.64696  -0.63225
 Alpha  occ. eigenvalues --   -0.61507  -0.61190  -0.60648  -0.58621  -0.56590
 Alpha  occ. eigenvalues --   -0.55803  -0.54335  -0.51480  -0.51005  -0.48551
 Alpha  occ. eigenvalues --   -0.48354  -0.47453  -0.46802  -0.45998  -0.44857
 Alpha  occ. eigenvalues --   -0.44717  -0.44583  -0.44280  -0.43993  -0.43206
 Alpha  occ. eigenvalues --   -0.42947  -0.42561  -0.42185  -0.41943  -0.41064
 Alpha  occ. eigenvalues --   -0.40457  -0.40228  -0.39830  -0.38619  -0.38423
 Alpha  occ. eigenvalues --   -0.38048  -0.37451  -0.37260  -0.36500  -0.36222
 Alpha  occ. eigenvalues --   -0.36164  -0.35873  -0.35198  -0.34041  -0.33890
 Alpha  occ. eigenvalues --   -0.33150  -0.32530  -0.31334  -0.27502  -0.26718
 Alpha  occ. eigenvalues --   -0.26199  -0.25608  -0.24644  -0.24457  -0.23924
 Alpha  occ. eigenvalues --   -0.21530
 Alpha virt. eigenvalues --   -0.04030  -0.01691  -0.01432  -0.00686   0.00136
 Alpha virt. eigenvalues --    0.00808   0.05083   0.07193   0.08743   0.09260
 Alpha virt. eigenvalues --    0.10624   0.10992   0.11817   0.12108   0.12430

 Mulliken charges:
               1
     1  C   -0.504710
     2  C    0.303007
     3  C   -0.222143
     4  C    0.117247
     5  C    0.099455
     6  C   -0.179500
     7  C   -0.204192
     8  C    0.363337
     9  N   -0.726045
    10  C    0.609096
    11  O   -0.497908
    12  C   -0.454189
    13  C    0.122076
    14  C   -0.172480
    15  C   -0.186129
    16  C    0.179054
    17  C    0.015474
    18  C   -0.439540
    19  C   -0.439633
    20  C   -0.458059
    21  C   -0.192949
    22  C   -0.191266
    23  C   -0.166694
    24  C   -0.191895
    25  C   -0.192435
    26  C    0.033913
    27  N   -0.464003
    28  H    0.147055
    29  H    0.170891
    30  H    0.170672
    31  H    0.132178
    32  H    0.136251
    33  H    0.129475
    34  H    0.347197
    35  H    0.186287
    36  H    0.185104
    37  H    0.135845
    38  H    0.132214
    39  H    0.144227
    40  H    0.149479
    41  H    0.142158
    42  H    0.142958
    43  H    0.145373
    44  H    0.144386
    45  H    0.145170
    46  H    0.147499
    47  H    0.145140
    48  H    0.133080
    49  H    0.132828
    50  H    0.189410
    51  H    0.139341
    52  H    0.131960
    53  H    0.134930
 Sum of Mulliken charges =  -0.00000

 Dipole moment (field-independent basis, Debye):
    X=             -5.3374    Y=              1.5113    Z=              0.3405  Tot=              5.5577
 Quadrupole moment (field-independent basis, Debye-Ang):
   XX=           -169.2986   YY=           -169.1885   ZZ=           -155.2544
   XY=             -9.0076   XZ=             -4.2901   YZ=             -1.3342

 Normal termination of Gaussian 16 at Sat Nov  5 09:47:00 2022.
