 Gaussian 16, Revision B.01,
 Gaussian 16:  ES64L-G16RevB.01 20-Dec-2017

 -----------------------------
 #p b3lyp/6-31g(d) opt SCF=XQC
 -----------------------------

 ------------------------------
 Gaussian input prepared by ASE
 ------------------------------
 Symbolic Z-matrix:
 Charge =  0 Multiplicity = 1

 SCF Done:  E(RB3LYP) =  -1487.57598603     A.U. after   15 cycles
 SCF Done:  E(RB3LYP) =  -1487.58326067     A.U. after   12 cycles
 SCF Done:  E(RB3LYP) =  -1487.58398557     A.U. after   12 cycles
 SCF Done:  E(RB3LYP) =  -1487.58415401     A.U. after   12 cycles
 SCF Done:  E(RB3LYP) =  -1487.58420594     A.U. after   11 cycles
 SCF Done:  E(RB3LYP) =  -1487.58423347     A.U. after   11 cycles
 SCF Done:  E(RB3LYP) =  -1487.58424487     A.U. after   10 cycles
 SCF Done:  E(RB3LYP) =  -1487.58424742     A.U. after    9 cycles
 SCF Done:  E(RB3LYP) =  -1487.58424864     A.U. after    9 cycles
 SCF Done:  E(RB3LYP) =  -1487.58425022     A.U. after    9 cycles
 SCF Done:  E(RB3LYP) =  -1487.58425076     A.U. after    9 cycles
 SCF Done:  E(RB3LYP) =  -1487.58425087     A.U. after    7 cycles
 SCF Done:  E(RB3LYP) =  -1487.58425089     A.U. after    6 cycles
 Optimization completed.
    -- Stationary point found.

                         Standard orientation:
 ---------------------------------------------------------------------
 Center     Atomic      Atomic             Coordinates (Angstroms)
 Number     Number       Type             X           Y           Z
 ---------------------------------------------------------------------
      1          6           0        7.785981   -1.514283   -0.255993
      2          7           0        6.572440   -1.138271    0.451291
      3          6           0        6.298940    0.306022    0.472667
      4          6           0        5.185578    0.746423   -0.488624
      5          7           0        3.950677    0.024811   -0.176646
      6          6           0        2.702653    0.603442   -0.308071
      7          6           0        2.528120    1.762885   -1.136051
      8          6           0        1.302099    2.357635   -1.296061
      9          6           0        0.146419    1.841296   -0.655813
     10          7           0       -1.047240    2.473900   -0.840530
     11          6           0       -2.110108    1.983880   -0.238024
     12          6           0       -2.060580    0.824856    0.581294
     13         16           0       -3.554420    0.219560    1.378592
     14          8           0       -4.357997    1.393420    1.755881
     15          8           0       -3.140530   -0.786380    2.371580
     16          6           0       -4.449617   -0.645985    0.074429
     17          6           0       -5.426657    0.038184   -0.650541
     18          6           0       -6.117757   -0.637139   -1.657166
     19          6           0       -5.830918   -1.977222   -1.926247
     20          6           0       -4.857834   -2.652993   -1.185199
     21          6           0       -4.160787   -1.988986   -0.176388
     22          6           0       -0.867833    0.173310    0.789296
     23          6           0        0.301147    0.675097    0.160840
     24          6           0        1.573432    0.081670    0.326273
     25          6           0        4.104338   -1.290570    0.440188
     26          6           0        5.423199   -1.924533    0.004529
     27          1           0        7.963620   -2.587945   -0.124034
     28          1           0        7.750993   -1.313928   -1.345631
     29          1           0        8.644739   -0.981395    0.164869
     30          1           0        6.010323    0.609554    1.488785
     31          1           0        7.216597    0.851109    0.227707
     32          1           0        5.023502    1.820964   -0.356737
     33          1           0        5.494673    0.587195   -1.534206
     34          1           0        3.379899    2.167075   -1.671658
     35          1           0        1.183059    3.232474   -1.927601
     36          1           0       -3.050196    2.513008   -0.374918
     37          1           0       -5.650422    1.072123   -0.410045
     38          1           0       -6.883979   -0.118092   -2.225926
     39          1           0       -6.372309   -2.499188   -2.710503
     40          1           0       -4.646696   -3.699156   -1.387859
     41          1           0       -3.417946   -2.503197    0.424406
     42          1           0       -0.824622   -0.699372    1.434527
     43          1           0        1.653148   -0.775792    0.985238
     44          1           0        4.057566   -1.237954    1.540357
     45          1           0        3.282484   -1.934798    0.108744
     46          1           0        5.492470   -2.936601    0.424177
     47          1           0        5.402008   -2.036363   -1.097670
 ---------------------------------------------------------------------

 The electronic state is 1-A.
 Alpha  occ. eigenvalues --  -89.08974 -19.13432 -19.13320 -14.36370 -14.33460
 Alpha  occ. eigenvalues --  -14.33333 -10.24314 -10.23414 -10.23293 -10.22967
 Alpha  occ. eigenvalues --  -10.22500 -10.22479 -10.22453 -10.22419 -10.22226
 Alpha  occ. eigenvalues --  -10.21677 -10.21354 -10.21185 -10.21102 -10.21061
 Alpha  occ. eigenvalues --  -10.20943 -10.20766 -10.20719 -10.20202 -10.19686
 Alpha  occ. eigenvalues --  -10.19145  -8.11801  -6.08234  -6.08184  -6.08126
 Alpha  occ. eigenvalues --   -1.09100  -0.98931  -0.97042  -0.94633  -0.92338
 Alpha  occ. eigenvalues --   -0.87320  -0.84669  -0.82138  -0.78485  -0.77880
 Alpha  occ. eigenvalues --   -0.76844  -0.76302  -0.75395  -0.72082  -0.68742
 Alpha  occ. eigenvalues --   -0.67103  -0.66664  -0.63847  -0.62646  -0.62224
 Alpha  occ. eigenvalues --   -0.60653  -0.59001  -0.56435  -0.54601  -0.54054
 Alpha  occ. eigenvalues --   -0.53024  -0.52031  -0.51537  -0.49789  -0.48386
 Alpha  occ. eigenvalues --   -0.47651  -0.47018  -0.46554  -0.45626  -0.45151
 Alpha  occ. eigenvalues --   -0.44417  -0.44031  -0.43903  -0.43754  -0.43590
 Alpha  occ. eigenvalues --   -0.42959  -0.42043  -0.41423  -0.41119  -0.39742
 Alpha  occ. eigenvalues --   -0.39361  -0.38778  -0.38403  -0.38190  -0.37953
 Alpha  occ. eigenvalues --   -0.36920  -0.36225  -0.35767  -0.35029  -0.34863
 Alpha  occ. eigenvalues --   -0.32310  -0.31351  -0.30940  -0.29433  -0.28966
 Alpha  occ. eigenvalues --   -0.28573  -0.27038  -0.26706  -0.25455  -0.24479
 Alpha  occ. eigenvalues --   -0.21789  -0.19859
 Alpha virt. eigenvalues --   -0.06224  -0.03395  -0.01980  -0.01285   0.01864
 Alpha virt. eigenvalues --    0.06080   0.06307   0.07072   0.09183   0.09710
 Alpha virt. eigenvalues --    0.10117   0.10470   0.11101   0.11784   0.12054

 Mulliken charges:
               1
     1  C   -0.303475
     2  N   -0.378311
     3  C   -0.149206
     4  C   -0.141622
     5  N   -0.510009
     6  C    0.371508
     7  C   -0.182048
     8  C   -0.149756
     9  C    0.239830
    10  N   -0.499766
    11  C    0.035350
    12  C   -0.174891
    13  S    1.142000
    14  O   -0.554159
    15  O   -0.557042
    16  C   -0.144514
    17  C   -0.140814
    18  C   -0.126944
    19  C   -0.118982
    20  C   -0.127335
    21  C   -0.137603
    22  C   -0.180352
    23  C    0.175770
    24  C   -0.291810
    25  C   -0.142672
    26  C   -0.133098
    27  H    0.154191
    28  H    0.121020
    29  H    0.154663
    30  H    0.156429
    31  H    0.146360
    32  H    0.158133
    33  H    0.146248
    34  H    0.139412
    35  H    0.148240
    36  H    0.166105
    37  H    0.179921
    38  H    0.145703
    39  H    0.143088
    40  H    0.143760
    41  H    0.172507
    42  H    0.180794
    43  H    0.135757
    44  H    0.154614
    45  H    0.158363
    46  H    0.150146
    47  H    0.124497
 Sum of Mulliken charges =  -0.00000

 Dipole moment (field-independent basis, Debye):
    X=              5.2657    Y=             -2.9341    Z=             -4.6187  Tot=              7.5940
 Quadrupole moment (field-independent basis, Debye-Ang):
   XX=           -131.8541   YY=           -154.6160   ZZ=           -168.3104
   XY=             10.0660   XZ=             17.0331   YZ=              1.2134

 Normal termination of Gaussian 16 at Fri Nov  4 09:11:54 2022.
