 Gaussian 16, Revision B.01,
 Gaussian 16:  ES64L-G16RevB.01 20-Dec-2017

 -------------------------------------------------------------------
 #p b3lyp/6-31g(d) 6D 10F nosymm GFInput td=(50-50,nstate=2) SCF=XQC
 -------------------------------------------------------------------

 ------------------------------
 Gaussian input prepared by ASE
 ------------------------------
 Symbolic Z-matrix:
 Charge =  0 Multiplicity = 1

                          Input orientation:
 ---------------------------------------------------------------------
 Center     Atomic      Atomic             Coordinates (Angstroms)
 Number     Number       Type             X           Y           Z
 ---------------------------------------------------------------------
      1          6           0        6.846947    0.743360   -1.352070
      2          7           0        5.727397   -0.085295   -0.934632
      3          6           0        5.458302   -0.067867    0.510542
      4          6           0        4.237205    0.773111    0.909649
      5          7           0        3.048956    0.279473    0.211495
      6          6           0        1.794124    0.288284    0.790261
      7          6           0        1.520998    1.145649    1.908584
      8          6           0        0.284565    1.186247    2.501915
      9          6           0       -0.785522    0.386826    2.024462
     10          7           0       -1.992810    0.457690    2.654196
     11          6           0       -2.975310   -0.291840    2.200630
     12          6           0       -2.827322   -1.155635    1.083030
     13         16           0       -4.214179   -2.155862    0.526433
     14          8           0       -4.966589   -2.568489    1.722112
     15          8           0       -3.683580   -3.140431   -0.431864
     16          6           0       -5.259855   -1.013353   -0.396944
     17          6           0       -6.317184   -0.378213    0.256454
     18          6           0       -7.124431    0.503262   -0.463496
     19          6           0       -6.871943    0.738199   -1.816846
     20          6           0       -5.816606    0.087057   -2.461043
     21          6           0       -5.003192   -0.796430   -1.752322
     22          6           0       -1.618132   -1.250634    0.435529
     23          6           0       -0.533421   -0.462025    0.898949
     24          6           0        0.749593   -0.502369    0.306936
     25          6           0        3.275945   -0.378775   -1.072838
     26          6           0        4.532796    0.180461   -1.735170
     27          1           0        7.039307    0.580721   -2.418965
     28          1           0        6.680939    1.829448   -1.205342
     29          1           0        7.750088    0.455785   -0.804167
     30          1           0        5.294150   -1.095040    0.865362
     31          1           0        6.339710    0.312411    1.037540
     32          1           0        4.092077    0.676062    1.990306
     33          1           0        4.418122    1.839108    0.697386
     34          1           0        2.302014    1.799201    2.280952
     35          1           0        0.090222    1.841423    3.345319
     36          1           0       -3.925101   -0.243009    2.727881
     37          1           0       -6.510466   -0.592381    1.302263
     38          1           0       -7.953641    1.000706    0.031431
     39          1           0       -7.503802    1.424803   -2.373570
     40          1           0       -5.631301    0.261587   -3.517126
     41          1           0       -4.193334   -1.328210   -2.240706
     42          1           0       -1.497418   -1.928400   -0.404605
     43          1           0        0.908200   -1.188607   -0.517534
     44          1           0        3.362029   -1.472614   -0.965909
     45          1           0        2.420222   -0.180933   -1.727762
     46          1           0        4.652224   -0.277409   -2.725764
     47          1           0        4.379006    1.265204   -1.900942
 ---------------------------------------------------------------------

 SCF Done:  E(RB3LYP) =  -1487.58425091     A.U. after   15 cycles

 Excitation energies and oscillator strengths:

 Excited state symmetry could not be determined.
 Excited State   1:      Triplet-?Sym    2.4181 eV  512.74 nm  f=0.0000  <S**2>=2.000
      95 -> 98         0.16203
      97 -> 98         0.63950
      97 -> 99         0.19402
 This state for optimization and/or second-order correction.
 Total Energy, E(TD-HF/TD-DFT) =  -1487.49538826
 Copying the excited state density for this state as the 1-particle RhoCI density.

 Excited state symmetry could not be determined.
 Excited State   2:      Triplet-?Sym    3.1241 eV  396.87 nm  f=0.0000  <S**2>=2.000
      95 -> 98         0.47887
      97 -> 98        -0.25390
      97 -> 99         0.25350
      97 ->100         0.17676
      97 ->101         0.22558

 Excited state symmetry could not be determined.
 Excited State   3:      Singlet-?Sym    3.2092 eV  386.33 nm  f=0.0560  <S**2>=0.000
      97 -> 98         0.69739

 Excited state symmetry could not be determined.
 Excited State   4:      Singlet-?Sym    3.8237 eV  324.25 nm  f=0.0012  <S**2>=0.000
      96 -> 98         0.70419

 Alpha  occ. eigenvalues --  -89.08974 -19.13432 -19.13320 -14.36370 -14.33460
 Alpha  occ. eigenvalues --  -14.33333 -10.24314 -10.23414 -10.23293 -10.22967
 Alpha  occ. eigenvalues --  -10.22499 -10.22479 -10.22453 -10.22419 -10.22226
 Alpha  occ. eigenvalues --  -10.21677 -10.21354 -10.21185 -10.21102 -10.21061
 Alpha  occ. eigenvalues --  -10.20943 -10.20766 -10.20719 -10.20202 -10.19686
 Alpha  occ. eigenvalues --  -10.19145  -8.11801  -6.08234  -6.08184  -6.08126
 Alpha  occ. eigenvalues --   -1.09100  -0.98931  -0.97042  -0.94633  -0.92338
 Alpha  occ. eigenvalues --   -0.87320  -0.84669  -0.82138  -0.78485  -0.77880
 Alpha  occ. eigenvalues --   -0.76844  -0.76301  -0.75395  -0.72082  -0.68742
 Alpha  occ. eigenvalues --   -0.67103  -0.66664  -0.63847  -0.62646  -0.62224
 Alpha  occ. eigenvalues --   -0.60653  -0.59001  -0.56435  -0.54601  -0.54054
 Alpha  occ. eigenvalues --   -0.53024  -0.52031  -0.51537  -0.49789  -0.48386
 Alpha  occ. eigenvalues --   -0.47651  -0.47018  -0.46554  -0.45627  -0.45151
 Alpha  occ. eigenvalues --   -0.44417  -0.44031  -0.43903  -0.43754  -0.43590
 Alpha  occ. eigenvalues --   -0.42959  -0.42043  -0.41423  -0.41119  -0.39742
 Alpha  occ. eigenvalues --   -0.39361  -0.38778  -0.38403  -0.38190  -0.37953
 Alpha  occ. eigenvalues --   -0.36920  -0.36225  -0.35767  -0.35029  -0.34863
 Alpha  occ. eigenvalues --   -0.32310  -0.31351  -0.30940  -0.29434  -0.28966
 Alpha  occ. eigenvalues --   -0.28573  -0.27038  -0.26706  -0.25455  -0.24479
 Alpha  occ. eigenvalues --   -0.21789  -0.19859
 Alpha virt. eigenvalues --   -0.06224  -0.03395  -0.01980  -0.01285   0.01864
 Alpha virt. eigenvalues --    0.06080   0.06307   0.07072   0.09183   0.09710
 Alpha virt. eigenvalues --    0.10117   0.10470   0.11101   0.11784   0.12054

 Mulliken charges:
               1
     1  C   -0.303478
     2  N   -0.378302
     3  C   -0.149204
     4  C   -0.141613
     5  N   -0.510012
     6  C    0.371509
     7  C   -0.182041
     8  C   -0.149761
     9  C    0.239839
    10  N   -0.499773
    11  C    0.035358
    12  C   -0.174889
    13  S    1.141981
    14  O   -0.554159
    15  O   -0.557038
    16  C   -0.144494
    17  C   -0.140805
    18  C   -0.126947
    19  C   -0.118997
    20  C   -0.127311
    21  C   -0.137621
    22  C   -0.180358
    23  C    0.175770
    24  C   -0.291810
    25  C   -0.142685
    26  C   -0.133110
    27  H    0.154190
    28  H    0.121020
    29  H    0.154663
    30  H    0.156427
    31  H    0.146357
    32  H    0.158132
    33  H    0.146246
    34  H    0.139413
    35  H    0.148240
    36  H    0.166103
    37  H    0.179920
    38  H    0.145703
    39  H    0.143088
    40  H    0.143759
    41  H    0.172508
    42  H    0.180790
    43  H    0.135757
    44  H    0.154616
    45  H    0.158367
    46  H    0.150148
    47  H    0.124500
 Sum of Mulliken charges =  -0.00000

 Dipole moment (field-independent basis, Debye):
    X=              4.6713    Y=              5.0677    Z=             -3.1885  Tot=              7.5940
 Quadrupole moment (field-independent basis, Debye-Ang):
   XX=           -136.2688   YY=           -175.5845   ZZ=           -156.0503
   XY=            -17.7167   XZ=             14.4687   YZ=              3.1536

 Normal termination of Gaussian 16 at Sat Nov  5 09:48:34 2022.
