 Gaussian 16, Revision B.01,
 Gaussian 16:  ES64L-G16RevB.01 20-Dec-2017

 -------------------------------------------------------------------
 #p b3lyp/6-31g(d) 6D 10F nosymm GFInput td=(50-50,nstate=2) SCF=XQC
 -------------------------------------------------------------------

 ------------------------------
 Gaussian input prepared by ASE
 ------------------------------
 Symbolic Z-matrix:
 Charge =  0 Multiplicity = 1

                          Input orientation:
 ---------------------------------------------------------------------
 Center     Atomic      Atomic             Coordinates (Angstroms)
 Number     Number       Type             X           Y           Z
 ---------------------------------------------------------------------
      1          6           0        0.574243    1.821023    1.882091
      2          6           0       -0.624056    1.858644    1.269477
      3          6           0       -0.940696    0.835858    0.278844
      4          7           0       -2.211530    0.730725   -0.261870
      5          6           0       -3.450011    1.049731    0.318833
      6          6           0       -4.551109    1.231661   -0.536760
      7          6           0       -5.809517    1.523739   -0.019594
      8          6           0       -5.996675    1.659015    1.358488
      9          6           0       -4.907608    1.475657    2.210807
     10          6           0       -3.646134    1.159553    1.705673
     11          6           0        0.061138    0.014938   -0.150982
     12          7           0       -0.169722   -0.995644   -1.129380
     13          6           0       -0.325754   -2.354766   -0.767611
     14          6           0       -0.749319   -2.734449    0.514667
     15          6           0       -0.941037   -4.082420    0.816638
     16          6           0       -0.717558   -5.072333   -0.141516
     17          6           0       -0.294705   -4.694246   -1.418112
     18          6           0       -0.099609   -3.351574   -1.731358
     19          6           0        1.480740    0.276142    0.279787
     20          7           0        2.178927    1.022143   -0.725277
     21          6           0        3.570550    1.222780   -0.739619
     22          6           0        4.436496    0.611856    0.181870
     23          6           0        5.815207    0.798872    0.075743
     24          6           0        6.357790    1.604911   -0.924844
     25          6           0        5.496331    2.229196   -1.830368
     26          6           0        4.120668    2.038321   -1.744309
     27          8           0        1.539757    0.921088    1.598884
     28          1           0        0.864540    2.497184    2.680895
     29          1           0       -1.347411    2.618223    1.533570
     30          1           0       -2.241691    0.118967   -1.070306
     31          1           0       -4.405656    1.149877   -1.611346
     32          1           0       -6.646700    1.657005   -0.699866
     33          1           0       -6.977260    1.896476    1.760424
     34          1           0       -5.039220    1.557644    3.286761
     35          1           0       -2.821477    0.975418    2.385195
     36          1           0        0.414737   -0.888083   -1.953809
     37          1           0       -0.923081   -1.971540    1.266629
     38          1           0       -1.268280   -4.357827    1.816193
     39          1           0       -0.868403   -6.120080    0.101424
     40          1           0       -0.110858   -5.449464   -2.178218
     41          1           0        0.229332   -3.066484   -2.729128
     42          1           0        2.014087   -0.663389    0.441782
     43          1           0        1.635862    1.780079   -1.122465
     44          1           0        4.039925    0.017599    0.997436
     45          1           0        6.468098    0.317133    0.799216
     46          1           0        7.431698    1.750954   -0.994457
     47          1           0        5.896662    2.865960   -2.615238
     48          1           0        3.458291    2.513930   -2.464893
 ---------------------------------------------------------------------

 SCF Done:  E(RB3LYP) =  -1128.53422765     A.U. after   14 cycles

 Excitation energies and oscillator strengths:

 Excited state symmetry could not be determined.
 Excited State   1:      Triplet-?Sym    2.5787 eV  480.80 nm  f=0.0000  <S**2>=2.000
      91 -> 95        -0.25110
      93 -> 95         0.16862
      94 -> 95         0.61338
 This state for optimization and/or second-order correction.
 Total Energy, E(TD-HF/TD-DFT) =  -1128.43946272
 Copying the excited state density for this state as the 1-particle RhoCI density.

 Excited state symmetry could not be determined.
 Excited State   2:      Triplet-?Sym    3.4699 eV  357.31 nm  f=0.0000  <S**2>=2.000
      87 -> 99         0.13879
      88 -> 96         0.26796
      91 -> 95         0.43708
      91 -> 99        -0.11885
      93 -> 99        -0.10162
      94 -> 95         0.18690
      94 -> 99        -0.31703
      94 ->100        -0.15546

 Excited state symmetry could not be determined.
 Excited State   3:      Singlet-?Sym    3.9531 eV  313.64 nm  f=0.1775  <S**2>=0.000
      93 -> 95        -0.27750
      94 -> 95         0.64042

 Excited state symmetry could not be determined.
 Excited State   4:      Singlet-?Sym    4.2270 eV  293.31 nm  f=0.1601  <S**2>=0.000
      92 -> 95        -0.26470
      93 -> 95         0.58722
      94 -> 95         0.26697

 Alpha  occ. eigenvalues --  -19.18251 -14.36041 -14.35120 -14.35013 -10.28117
 Alpha  occ. eigenvalues --  -10.25067 -10.23917 -10.23306 -10.22742 -10.22324
 Alpha  occ. eigenvalues --  -10.20614 -10.19004 -10.18971 -10.18713 -10.18663
 Alpha  occ. eigenvalues --  -10.18595 -10.18594 -10.18484 -10.18360 -10.18294
 Alpha  occ. eigenvalues --  -10.18292 -10.18229 -10.18065 -10.18029 -10.17724
 Alpha  occ. eigenvalues --  -10.17602 -10.17442  -1.06996  -0.95865  -0.93858
 Alpha  occ. eigenvalues --   -0.92403  -0.84745  -0.83935  -0.83249  -0.79645
 Alpha  occ. eigenvalues --   -0.76827  -0.74414  -0.73985  -0.73789  -0.73650
 Alpha  occ. eigenvalues --   -0.72537  -0.70902  -0.66248  -0.63925  -0.61024
 Alpha  occ. eigenvalues --   -0.60838  -0.60511  -0.59890  -0.59011  -0.58125
 Alpha  occ. eigenvalues --   -0.54866  -0.54266  -0.53115  -0.52231  -0.51419
 Alpha  occ. eigenvalues --   -0.50046  -0.48930  -0.48259  -0.47951  -0.47425
 Alpha  occ. eigenvalues --   -0.46539  -0.44789  -0.44090  -0.43500  -0.42964
 Alpha  occ. eigenvalues --   -0.42818  -0.42413  -0.41990  -0.41745  -0.41371
 Alpha  occ. eigenvalues --   -0.41149  -0.39749  -0.38576  -0.37562  -0.37174
 Alpha  occ. eigenvalues --   -0.37040  -0.35953  -0.35640  -0.35163  -0.34724
 Alpha  occ. eigenvalues --   -0.34537  -0.33857  -0.33630  -0.33150  -0.30462
 Alpha  occ. eigenvalues --   -0.29568  -0.27454  -0.24955  -0.24474  -0.24227
 Alpha  occ. eigenvalues --   -0.22167  -0.20526  -0.20367  -0.18747
 Alpha virt. eigenvalues --   -0.02340  -0.00046   0.00467   0.00704   0.01107
 Alpha virt. eigenvalues --    0.01658   0.02124   0.08392   0.08808   0.09396
 Alpha virt. eigenvalues --    0.09595   0.10175   0.10410   0.11171   0.12419

 Mulliken charges:
               1
     1  C    0.113748
     2  C   -0.232052
     3  C    0.378498
     4  N   -0.781449
     5  C    0.344997
     6  C   -0.182259
     7  C   -0.133777
     8  C   -0.132067
     9  C   -0.141635
    10  C   -0.173472
    11  C    0.090701
    12  N   -0.737681
    13  C    0.328279
    14  C   -0.169442
    15  C   -0.138574
    16  C   -0.135034
    17  C   -0.133520
    18  C   -0.193407
    19  C    0.190345
    20  N   -0.668228
    21  C    0.359960
    22  C   -0.173027
    23  C   -0.143109
    24  C   -0.133637
    25  C   -0.134194
    26  C   -0.186555
    27  O   -0.460814
    28  H    0.154145
    29  H    0.157090
    30  H    0.342730
    31  H    0.125237
    32  H    0.129952
    33  H    0.126188
    34  H    0.130021
    35  H    0.145959
    36  H    0.319843
    37  H    0.135553
    38  H    0.126757
    39  H    0.121606
    40  H    0.125691
    41  H    0.115828
    42  H    0.164242
    43  H    0.319218
    44  H    0.142966
    45  H    0.128290
    46  H    0.123041
    47  H    0.126539
    48  H    0.116508
 Sum of Mulliken charges =  -0.00000

 Dipole moment (field-independent basis, Debye):
    X=             -0.6438    Y=              1.2001    Z=             -0.7783  Tot=              1.5686
 Quadrupole moment (field-independent basis, Debye-Ang):
   XX=           -153.8319   YY=           -154.2508   ZZ=           -144.7708
   XY=             -1.9710   XZ=             -1.4320   YZ=             -0.5339

 Normal termination of Gaussian 16 at Sat Nov  5 09:46:48 2022.
