 Gaussian 16, Revision B.01,
 Gaussian 16:  ES64L-G16RevB.01 20-Dec-2017

 -----------------------------
 #p b3lyp/6-31g(d) opt SCF=XQC
 -----------------------------

 ------------------------------
 Gaussian input prepared by ASE
 ------------------------------
 Symbolic Z-matrix:
 Charge =  0 Multiplicity = 1

 SCF Done:  E(RB3LYP) =  -1128.52482743     A.U. after   15 cycles
 SCF Done:  E(RB3LYP) =  -1128.52915180     A.U. after   14 cycles
 SCF Done:  E(RB3LYP) =  -1128.53122798     A.U. after   14 cycles
 SCF Done:  E(RB3LYP) =  -1128.53198232     A.U. after   12 cycles
 SCF Done:  E(RB3LYP) =  -1128.53253344     A.U. after   12 cycles
 SCF Done:  E(RB3LYP) =  -1128.53284237     A.U. after   12 cycles
 SCF Done:  E(RB3LYP) =  -1128.53310391     A.U. after   12 cycles
 SCF Done:  E(RB3LYP) =  -1128.53353084     A.U. after   12 cycles
 SCF Done:  E(RB3LYP) =  -1128.53385072     A.U. after   12 cycles
 SCF Done:  E(RB3LYP) =  -1128.53404551     A.U. after   11 cycles
 SCF Done:  E(RB3LYP) =  -1128.53417282     A.U. after   12 cycles
 SCF Done:  E(RB3LYP) =  -1128.53418674     A.U. after   10 cycles
 SCF Done:  E(RB3LYP) =  -1128.53421165     A.U. after   10 cycles
 SCF Done:  E(RB3LYP) =  -1128.53421544     A.U. after   10 cycles
 SCF Done:  E(RB3LYP) =  -1128.53421943     A.U. after    9 cycles
 SCF Done:  E(RB3LYP) =  -1128.53422168     A.U. after    9 cycles
 SCF Done:  E(RB3LYP) =  -1128.53422295     A.U. after    9 cycles
 SCF Done:  E(RB3LYP) =  -1128.53422318     A.U. after    9 cycles
 SCF Done:  E(RB3LYP) =  -1128.53422339     A.U. after    8 cycles
 SCF Done:  E(RB3LYP) =  -1128.53422342     A.U. after    7 cycles
 Optimization completed.
    -- Stationary point found.

                         Standard orientation:
 ---------------------------------------------------------------------
 Center     Atomic      Atomic             Coordinates (Angstroms)
 Number     Number       Type             X           Y           Z
 ---------------------------------------------------------------------
      1          6           0        0.382031   -2.078609   -1.585337
      2          6           0       -0.699593   -2.051522   -0.784095
      3          6           0       -0.930191   -0.875739    0.047810
      4          7           0       -2.104845   -0.725066    0.766092
      5          6           0       -3.392680   -1.199130    0.466823
      6          6           0       -4.330062   -1.264097    1.513079
      7          6           0       -5.629516   -1.700686    1.273974
      8          6           0       -6.020006   -2.099224   -0.007089
      9          6           0       -5.094066   -2.032750   -1.048410
     10          6           0       -3.795213   -1.574705   -0.825755
     11          6           0        0.064632    0.052687    0.151164
     12          7           0       -0.082508    1.217827    0.959022
     13          6           0       -0.391108    2.477421    0.392786
     14          6           0       -1.036666    2.592217   -0.847327
     15          6           0       -1.370242    3.850550   -1.347622
     16          6           0       -1.071535    5.010810   -0.631731
     17          6           0       -0.427683    4.896487    0.602706
     18          6           0       -0.089397    3.645608    1.112430
     19          6           0        1.414328   -0.224300   -0.457653
     20          7           0        2.313430   -0.738882    0.532780
     21          6           0        3.700929   -0.874320    0.349533
     22          6           0        4.365357   -0.410590   -0.797517
     23          6           0        5.753534   -0.516030   -0.892015
     24          6           0        6.503003   -1.096946    0.130775
     25          6           0        5.841460   -1.576587    1.263965
     26          6           0        4.459151   -1.463476    1.376730
     27          8           0        1.312397   -1.101606   -1.632131
     28          1           0        0.591686   -2.879423   -2.288400
     29          1           0       -1.398580   -2.876970   -0.784216
     30          1           0       -2.052102    0.025332    1.446421
     31          1           0       -4.024337   -0.976610    2.516304
     32          1           0       -6.337927   -1.739550    2.097411
     33          1           0       -7.031697   -2.448911   -0.190631
     34          1           0       -5.386357   -2.320108   -2.055243
     35          1           0       -3.102699   -1.486304   -1.655409
     36          1           0        0.630129    1.291223    1.679860
     37          1           0       -1.270502    1.695429   -1.411916
     38          1           0       -1.869090    3.919980   -2.311146
     39          1           0       -1.333904    5.987266   -1.028270
     40          1           0       -0.182083    5.787677    1.174873
     41          1           0        0.411544    3.566412    2.075659
     42          1           0        1.846393    0.690001   -0.870925
     43          1           0        1.895519   -1.431362    1.143490
     44          1           0        3.804004    0.003267   -1.627676
     45          1           0        6.248463   -0.151033   -1.788438
     46          1           0        7.582267   -1.181884    0.044577
     47          1           0        6.404779   -2.037747    2.071281
     48          1           0        3.953981   -1.823398    2.270849
 ---------------------------------------------------------------------

 The electronic state is 1-A.
 Alpha  occ. eigenvalues --  -19.18251 -14.36041 -14.35120 -14.35013 -10.28117
 Alpha  occ. eigenvalues --  -10.25067 -10.23916 -10.23306 -10.22742 -10.22324
 Alpha  occ. eigenvalues --  -10.20614 -10.19004 -10.18971 -10.18713 -10.18663
 Alpha  occ. eigenvalues --  -10.18595 -10.18594 -10.18484 -10.18360 -10.18294
 Alpha  occ. eigenvalues --  -10.18292 -10.18229 -10.18065 -10.18029 -10.17724
 Alpha  occ. eigenvalues --  -10.17602 -10.17442  -1.06996  -0.95865  -0.93858
 Alpha  occ. eigenvalues --   -0.92403  -0.84745  -0.83935  -0.83249  -0.79645
 Alpha  occ. eigenvalues --   -0.76827  -0.74414  -0.73985  -0.73789  -0.73650
 Alpha  occ. eigenvalues --   -0.72537  -0.70902  -0.66248  -0.63925  -0.61024
 Alpha  occ. eigenvalues --   -0.60837  -0.60511  -0.59890  -0.59011  -0.58125
 Alpha  occ. eigenvalues --   -0.54866  -0.54266  -0.53115  -0.52231  -0.51419
 Alpha  occ. eigenvalues --   -0.50046  -0.48930  -0.48259  -0.47951  -0.47425
 Alpha  occ. eigenvalues --   -0.46539  -0.44789  -0.44090  -0.43500  -0.42964
 Alpha  occ. eigenvalues --   -0.42818  -0.42413  -0.41990  -0.41745  -0.41371
 Alpha  occ. eigenvalues --   -0.41149  -0.39748  -0.38576  -0.37562  -0.37174
 Alpha  occ. eigenvalues --   -0.37040  -0.35953  -0.35640  -0.35163  -0.34724
 Alpha  occ. eigenvalues --   -0.34537  -0.33857  -0.33630  -0.33150  -0.30462
 Alpha  occ. eigenvalues --   -0.29568  -0.27454  -0.24955  -0.24474  -0.24227
 Alpha  occ. eigenvalues --   -0.22167  -0.20526  -0.20367  -0.18747
 Alpha virt. eigenvalues --   -0.02340  -0.00046   0.00467   0.00704   0.01107
 Alpha virt. eigenvalues --    0.01658   0.02124   0.08392   0.08808   0.09396
 Alpha virt. eigenvalues --    0.09595   0.10175   0.10410   0.11171   0.12419

 Mulliken charges:
               1
     1  C    0.113747
     2  C   -0.232055
     3  C    0.378522
     4  N   -0.781457
     5  C    0.345003
     6  C   -0.182260
     7  C   -0.133779
     8  C   -0.132066
     9  C   -0.141631
    10  C   -0.173475
    11  C    0.090683
    12  N   -0.737691
    13  C    0.328291
    14  C   -0.169447
    15  C   -0.138573
    16  C   -0.135036
    17  C   -0.133516
    18  C   -0.193414
    19  C    0.190364
    20  N   -0.668226
    21  C    0.359944
    22  C   -0.173019
    23  C   -0.143111
    24  C   -0.133635
    25  C   -0.134196
    26  C   -0.186555
    27  O   -0.460816
    28  H    0.154143
    29  H    0.157089
    30  H    0.342729
    31  H    0.125237
    32  H    0.129952
    33  H    0.126188
    34  H    0.130021
    35  H    0.145960
    36  H    0.319844
    37  H    0.135552
    38  H    0.126757
    39  H    0.121606
    40  H    0.125691
    41  H    0.115829
    42  H    0.164240
    43  H    0.319219
    44  H    0.142965
    45  H    0.128290
    46  H    0.123041
    47  H    0.126538
    48  H    0.116508
 Sum of Mulliken charges =  -0.00000

 Dipole moment (field-independent basis, Debye):
    X=             -0.4254    Y=             -1.0594    Z=              1.0757  Tot=              1.5686
 Quadrupole moment (field-independent basis, Debye-Ang):
   XX=           -153.4208   YY=           -154.0056   ZZ=           -145.4608
   XY=              2.3992   XZ=              2.4058   YZ=              0.9285

 Normal termination of Gaussian 16 at Fri Nov  4 22:27:39 2022.
