 Gaussian 16, Revision B.01,
 Gaussian 16:  ES64L-G16RevB.01 20-Dec-2017

 -----------------------------
 #p b3lyp/6-31g(d) opt SCF=XQC
 -----------------------------

 ------------------------------
 Gaussian input prepared by ASE
 ------------------------------
 Symbolic Z-matrix:
 Charge =  0 Multiplicity = 1

 SCF Done:  E(RB3LYP) =  -905.504602818     A.U. after   14 cycles
 SCF Done:  E(RB3LYP) =  -905.508034254     A.U. after   12 cycles
 SCF Done:  E(RB3LYP) =  -905.508224456     A.U. after   11 cycles
 SCF Done:  E(RB3LYP) =  -905.508264474     A.U. after   10 cycles
 SCF Done:  E(RB3LYP) =  -905.508284074     A.U. after   11 cycles
 SCF Done:  E(RB3LYP) =  -905.508294036     A.U. after   10 cycles
 SCF Done:  E(RB3LYP) =  -905.508300225     A.U. after   10 cycles
 SCF Done:  E(RB3LYP) =  -905.508303070     A.U. after    8 cycles
 SCF Done:  E(RB3LYP) =  -905.508306765     A.U. after    9 cycles
 SCF Done:  E(RB3LYP) =  -905.508313351     A.U. after   10 cycles
 SCF Done:  E(RB3LYP) =  -905.508319129     A.U. after   10 cycles
 SCF Done:  E(RB3LYP) =  -905.508321924     A.U. after    9 cycles
 SCF Done:  E(RB3LYP) =  -905.508322239     A.U. after    8 cycles
 SCF Done:  E(RB3LYP) =  -905.508322308     A.U. after    7 cycles
 Optimization completed.
    -- Stationary point found.

                         Standard orientation:
 ---------------------------------------------------------------------
 Center     Atomic      Atomic             Coordinates (Angstroms)
 Number     Number       Type             X           Y           Z
 ---------------------------------------------------------------------
      1          6           0       -5.870738   -1.393810    1.330635
      2          6           0       -5.706796   -0.986862   -0.140275
      3          7           0       -4.803110    0.140403   -0.365757
      4          6           0       -5.370032    1.471798   -0.234257
      5          6           0       -3.422868   -0.006410   -0.271281
      6          6           0       -2.816966   -1.307846   -0.296637
      7          6           0       -1.455979   -1.471683   -0.248818
      8          6           0       -0.579412   -0.357245   -0.166511
      9          7           0        0.759435   -0.572660   -0.115528
     10          6           0        1.581081    0.466394   -0.030271
     11          6           0        3.037918    0.171136    0.020058
     12          6           0        3.503597   -1.096151   -0.374493
     13          6           0        4.858321   -1.409946   -0.344563
     14          6           0        5.760454   -0.444610    0.090661
     15          9           0        7.077669   -0.741373    0.121500
     16          6           0        5.342101    0.815525    0.498341
     17          6           0        3.981019    1.114688    0.460621
     18          6           0        1.088140    1.805814   -0.005269
     19          6           0       -0.263961    2.036910   -0.051948
     20          6           0       -1.167194    0.944521   -0.131177
     21          6           0       -2.571779    1.096714   -0.176736
     22          1           0       -4.912092   -1.694047    1.766195
     23          1           0       -6.267090   -0.563825    1.926275
     24          1           0       -6.566070   -2.236866    1.419933
     25          1           0       -5.371292   -1.842490   -0.734692
     26          1           0       -6.679713   -0.704438   -0.556303
     27          1           0       -4.969930    2.140979   -1.005498
     28          1           0       -6.451964    1.413435   -0.372237
     29          1           0       -5.171581    1.930515    0.747619
     30          1           0       -3.439828   -2.192166   -0.355949
     31          1           0       -1.014273   -2.463391   -0.269119
     32          1           0        2.777191   -1.830425   -0.703688
     33          1           0        5.223560   -2.384006   -0.653994
     34          1           0        6.073324    1.538705    0.844441
     35          1           0        3.659065    2.092630    0.804037
     36          1           0        1.777430    2.642563    0.025492
     37          1           0       -0.652031    3.053221   -0.039929
     38          1           0       -2.969440    2.104140   -0.135579
 ---------------------------------------------------------------------

 The electronic state is 1-A.
 Alpha  occ. eigenvalues --  -24.69700 -14.35737 -14.31689 -10.26482 -10.23285
 Alpha  occ. eigenvalues --  -10.22827 -10.22284 -10.22161 -10.21118 -10.19806
 Alpha  occ. eigenvalues --  -10.19559 -10.19432 -10.19265 -10.19117 -10.19111
 Alpha  occ. eigenvalues --  -10.19024 -10.18836 -10.18666 -10.18615 -10.18556
 Alpha  occ. eigenvalues --  -10.18079  -1.20816  -0.95158  -0.93437  -0.85658
 Alpha  occ. eigenvalues --   -0.83532  -0.79815  -0.77218  -0.76420  -0.74916
 Alpha  occ. eigenvalues --   -0.73030  -0.72919  -0.68858  -0.64728  -0.63764
 Alpha  occ. eigenvalues --   -0.61556  -0.60778  -0.59223  -0.57833  -0.53487
 Alpha  occ. eigenvalues --   -0.52685  -0.52169  -0.50916  -0.48482  -0.47633
 Alpha  occ. eigenvalues --   -0.46880  -0.45989  -0.45028  -0.44955  -0.43662
 Alpha  occ. eigenvalues --   -0.43265  -0.43060  -0.42391  -0.41320  -0.40776
 Alpha  occ. eigenvalues --   -0.40637  -0.40353  -0.39294  -0.38672  -0.37910
 Alpha  occ. eigenvalues --   -0.37471  -0.36493  -0.36038  -0.35523  -0.33958
 Alpha  occ. eigenvalues --   -0.33582  -0.33551  -0.29712  -0.28227  -0.25276
 Alpha  occ. eigenvalues --   -0.24528  -0.23642  -0.22865  -0.18563
 Alpha virt. eigenvalues --   -0.04678  -0.02029  -0.00053   0.02900   0.03769
 Alpha virt. eigenvalues --    0.07593   0.09437   0.10137   0.10365   0.11089
 Alpha virt. eigenvalues --    0.11878   0.12557   0.14319   0.14424   0.15614

 Mulliken charges:
               1
     1  C   -0.444723
     2  C   -0.151472
     3  N   -0.477421
     4  C   -0.310899
     5  C    0.375856
     6  C   -0.184893
     7  C   -0.161152
     8  C    0.254456
     9  N   -0.594480
    10  C    0.250828
    11  C    0.099544
    12  C   -0.160601
    13  C   -0.201637
    14  C    0.382988
    15  F   -0.299487
    16  C   -0.206600
    17  C   -0.183902
    18  C   -0.176865
    19  C   -0.161630
    20  C    0.171852
    21  C   -0.302530
    22  H    0.164218
    23  H    0.151401
    24  H    0.146992
    25  H    0.157386
    26  H    0.146834
    27  H    0.165294
    28  H    0.155984
    29  H    0.152211
    30  H    0.130189
    31  H    0.139613
    32  H    0.161810
    33  H    0.144575
    34  H    0.143205
    35  H    0.134784
    36  H    0.134524
    37  H    0.131544
    38  H    0.122207
 Sum of Mulliken charges =  -0.00000

 Dipole moment (field-independent basis, Debye):
    X=             -5.0573    Y=              1.4702    Z=              0.2005  Tot=              5.2705
 Quadrupole moment (field-independent basis, Debye-Ang):
   XX=           -108.6123   YY=           -109.5285   ZZ=           -125.5398
   XY=              4.1351   XZ=             -0.1061   YZ=              2.4649

 Normal termination of Gaussian 16 at Fri Nov  4 22:06:21 2022.
