 Gaussian 16, Revision B.01,
 Gaussian 16:  ES64L-G16RevB.01 20-Dec-2017

 -------------------------------------------------------------------
 #p b3lyp/6-31g(d) 6D 10F nosymm GFInput td=(50-50,nstate=2) SCF=XQC
 -------------------------------------------------------------------

 ------------------------------
 Gaussian input prepared by ASE
 ------------------------------
 Symbolic Z-matrix:
 Charge =  0 Multiplicity = 1

                          Input orientation:
 ---------------------------------------------------------------------
 Center     Atomic      Atomic             Coordinates (Angstroms)
 Number     Number       Type             X           Y           Z
 ---------------------------------------------------------------------
      1          6           0       -4.922541    2.150050   -0.216756
      2          6           0       -4.771303    1.129403    0.919671
      3          7           0       -3.952315   -0.036189    0.589718
      4          6           0       -4.619487   -1.136606   -0.085021
      5          6           0       -2.566228    0.051052    0.507868
      6          6           0       -1.863776    1.168784    1.072431
      7          6           0       -0.495022    1.252002    1.040788
      8          6           0        0.294037    0.234703    0.441119
      9          7           0        1.644561    0.366918    0.430149
     10          6           0        2.384498   -0.578102   -0.136803
     11          6           0        3.858688   -0.381943   -0.117525
     12          6           0        4.423378    0.551833    0.770016
     13          6           0        5.797404    0.762003    0.820241
     14          6           0        6.618763    0.031680   -0.032482
     15          9           0        7.954095    0.229315    0.011145
     16          6           0        6.101635   -0.892865   -0.930790
     17          6           0        4.722469   -1.092943   -0.967341
     18          6           0        1.791822   -1.737060   -0.722645
     19          6           0        0.426848   -1.880617   -0.721806
     20          6           0       -0.390498   -0.880072   -0.133355
     21          6           0       -1.801875   -0.949149   -0.096725
     22          1           0       -3.949538    2.550755   -0.519341
     23          1           0       -5.387694    1.692209   -1.096967
     24          1           0       -5.553478    2.988158    0.102146
     25          1           0       -4.364904    1.614550    1.812681
     26          1           0       -5.757439    0.754127    1.213123
     27          1           0       -4.261285   -2.099855    0.297785
     28          1           0       -5.692139   -1.077585    0.112349
     29          1           0       -4.468452   -1.129101   -1.176358
     30          1           0       -2.417487    1.974137    1.539667
     31          1           0        0.020327    2.104540    1.472756
     32          1           0        3.758506    1.110660    1.418746
     33          1           0        6.238801    1.476556    1.507643
     34          1           0        6.771934   -1.434626   -1.590074
     35          1           0        4.323514   -1.798750   -1.688889
     36          1           0        2.415707   -2.516435   -1.146387
     37          1           0       -0.036770   -2.762178   -1.159458
     38          1           0       -2.274752   -1.809359   -0.556248
 ---------------------------------------------------------------------

 SCF Done:  E(RB3LYP) =  -905.508323159     A.U. after   14 cycles

 Excitation energies and oscillator strengths:

 Excited state symmetry could not be determined.
 Excited State   1:      Triplet-?Sym    2.4013 eV  516.33 nm  f=0.0000  <S**2>=2.000
      72 -> 75         0.14163
      73 -> 76        -0.11562
      74 -> 75         0.65931
 This state for optimization and/or second-order correction.
 Total Energy, E(TD-HF/TD-DFT) =  -905.420078637
 Copying the excited state density for this state as the 1-particle RhoCI density.

 Excited state symmetry could not be determined.
 Excited State   2:      Triplet-?Sym    3.2179 eV  385.29 nm  f=0.0000  <S**2>=2.000
      70 -> 77         0.11205
      72 -> 75         0.27209
      73 -> 76        -0.18858
      74 -> 75        -0.15001
      74 -> 76         0.57038

 Excited state symmetry could not be determined.
 Excited State   3:      Singlet-?Sym    3.3766 eV  367.18 nm  f=0.2441  <S**2>=0.000
      74 -> 75         0.68458
      74 -> 76        -0.12514

 Excited state symmetry could not be determined.
 Excited State   4:      Singlet-?Sym    3.9510 eV  313.80 nm  f=0.2086  <S**2>=0.000
      72 -> 75         0.13998
      73 -> 75         0.29362
      74 -> 75         0.12246
      74 -> 76         0.61081

 Alpha  occ. eigenvalues --  -24.69700 -14.35737 -14.31689 -10.26482 -10.23285
 Alpha  occ. eigenvalues --  -10.22827 -10.22284 -10.22161 -10.21118 -10.19806
 Alpha  occ. eigenvalues --  -10.19559 -10.19432 -10.19265 -10.19117 -10.19111
 Alpha  occ. eigenvalues --  -10.19024 -10.18836 -10.18666 -10.18615 -10.18556
 Alpha  occ. eigenvalues --  -10.18079  -1.20816  -0.95158  -0.93437  -0.85658
 Alpha  occ. eigenvalues --   -0.83532  -0.79815  -0.77218  -0.76420  -0.74916
 Alpha  occ. eigenvalues --   -0.73030  -0.72919  -0.68858  -0.64728  -0.63764
 Alpha  occ. eigenvalues --   -0.61556  -0.60778  -0.59223  -0.57833  -0.53487
 Alpha  occ. eigenvalues --   -0.52685  -0.52169  -0.50916  -0.48482  -0.47633
 Alpha  occ. eigenvalues --   -0.46880  -0.45989  -0.45028  -0.44955  -0.43662
 Alpha  occ. eigenvalues --   -0.43265  -0.43060  -0.42391  -0.41320  -0.40776
 Alpha  occ. eigenvalues --   -0.40637  -0.40353  -0.39294  -0.38672  -0.37910
 Alpha  occ. eigenvalues --   -0.37471  -0.36493  -0.36038  -0.35523  -0.33958
 Alpha  occ. eigenvalues --   -0.33582  -0.33551  -0.29712  -0.28227  -0.25276
 Alpha  occ. eigenvalues --   -0.24528  -0.23642  -0.22865  -0.18563
 Alpha virt. eigenvalues --   -0.04678  -0.02029  -0.00053   0.02900   0.03769
 Alpha virt. eigenvalues --    0.07593   0.09437   0.10137   0.10365   0.11089
 Alpha virt. eigenvalues --    0.11878   0.12557   0.14319   0.14424   0.15614

 Mulliken charges:
               1
     1  C   -0.444718
     2  C   -0.151485
     3  N   -0.477412
     4  C   -0.310904
     5  C    0.375845
     6  C   -0.184895
     7  C   -0.161152
     8  C    0.254450
     9  N   -0.594485
    10  C    0.250839
    11  C    0.099551
    12  C   -0.160605
    13  C   -0.201631
    14  C    0.382985
    15  F   -0.299487
    16  C   -0.206606
    17  C   -0.183896
    18  C   -0.176876
    19  C   -0.161627
    20  C    0.171863
    21  C   -0.302532
    22  H    0.164219
    23  H    0.151401
    24  H    0.146991
    25  H    0.157388
    26  H    0.146835
    27  H    0.165295
    28  H    0.155986
    29  H    0.152211
    30  H    0.130190
    31  H    0.139614
    32  H    0.161810
    33  H    0.144574
    34  H    0.143205
    35  H    0.134784
    36  H    0.134523
    37  H    0.131545
    38  H    0.122207
 Sum of Mulliken charges =  -0.00000

 Dipole moment (field-independent basis, Debye):
    X=             -5.1558    Y=             -0.9153    Z=             -0.5985  Tot=              5.2705
 Quadrupole moment (field-independent basis, Debye-Ang):
   XX=           -117.9243   YY=           -113.9945   ZZ=           -120.4950
   XY=             -4.2670   XZ=             -2.8034   YZ=              8.0303

 Normal termination of Gaussian 16 at Sat Nov  5 09:38:16 2022.
