 Gaussian 16, Revision B.01,
 Gaussian 16:  ES64L-G16RevB.01 20-Dec-2017

 -------------------------------------------------------------------
 #p b3lyp/6-31g(d) 6D 10F nosymm GFInput td=(50-50,nstate=2) SCF=XQC
 -------------------------------------------------------------------

 ------------------------------
 Gaussian input prepared by ASE
 ------------------------------
 Symbolic Z-matrix:
 Charge =  0 Multiplicity = 1

                          Input orientation:
 ---------------------------------------------------------------------
 Center     Atomic      Atomic             Coordinates (Angstroms)
 Number     Number       Type             X           Y           Z
 ---------------------------------------------------------------------
      1          6           0       -8.130287    0.771618   -1.113137
      2          6           0       -8.060872   -0.664130   -0.567909
      3          6           0       -9.426974   -1.350981   -0.718787
      4          6           0       -7.566184   -0.684626    0.905105
      5          6           0       -7.426708   -2.105249    1.487393
      6          6           0       -6.243200    0.055958    1.057937
      7          8           0       -6.069628    1.036818    1.750838
      8          8           0       -5.263517   -0.527317    0.324385
      9          6           0       -3.946177    0.080825    0.377011
     10          6           0       -3.183538   -0.394308    1.629920
     11          6           0       -1.651170   -0.409335    1.413129
     12          6           0       -1.217381    0.672161    0.416768
     13          8           0        0.205699    0.670745    0.285194
     14          6           0        0.962311    1.835586    0.654676
     15          6           0        0.765406    2.157440    2.150468
     16          6           0        0.559947    3.031565   -0.232548
     17          6           0        2.430812    1.472203    0.397635
     18          6           0        3.449496    2.435157    0.651704
     19          6           0        4.776465    2.148247    0.436382
     20          6           0        5.179505    0.875852   -0.050624
     21          6           0        6.537584    0.542984   -0.283489
     22          6           0        6.912995   -0.705619   -0.752451
     23          6           0        8.339330   -1.042849   -0.991337
     24          6           0        9.230289   -0.090911   -1.516366
     25          6           0       10.570912   -0.405117   -1.733063
     26          6           0       11.052003   -1.681095   -1.433386
     27          6           0       10.178885   -2.638903   -0.914685
     28          6           0        8.838463   -2.323387   -0.696944
     29          6           0        5.890982   -1.668960   -1.000006
     30          6           0        4.565585   -1.375214   -0.784341
     31          6           0        4.165179   -0.099678   -0.303911
     32          6           0        2.803384    0.229471   -0.071765
     33          6           0       -1.842140    0.412405   -0.974164
     34          6           0       -3.211296   -0.304823   -0.902047
     35          1           0       -8.837116    1.379067   -0.533758
     36          1           0       -8.466444    0.772853   -2.156343
     37          1           0       -7.156828    1.272859   -1.078226
     38          1           0       -7.326669   -1.221824   -1.165122
     39          1           0       -9.772428   -1.287228   -1.757117
     40          1           0       -9.393973   -2.411319   -0.449570
     41          1           0      -10.183862   -0.865468   -0.088745
     42          1           0       -8.277077   -0.117219    1.517985
     43          1           0       -7.005549   -2.072008    2.498521
     44          1           0       -8.400534   -2.598630    1.554176
     45          1           0       -6.767688   -2.720322    0.865980
     46          1           0       -4.094461    1.164564    0.416760
     47          1           0       -3.454902    0.247817    2.473875
     48          1           0       -3.530263   -1.405283    1.873995
     49          1           0       -1.129195   -0.267819    2.364882
     50          1           0       -1.324745   -1.381014    1.020995
     51          1           0       -1.560057    1.644445    0.792324
     52          1           0        1.042005    1.290731    2.758442
     53          1           0        1.389187    3.002914    2.456659
     54          1           0       -0.275134    2.422330    2.367856
     55          1           0        1.174994    3.910458   -0.016306
     56          1           0        0.690013    2.772193   -1.287596
     57          1           0       -0.485254    3.315242   -0.066680
     58          1           0        3.179069    3.419638    1.023856
     59          1           0        5.536783    2.899582    0.637332
     60          1           0        7.298234    1.286739   -0.058570
     61          1           0        8.859678    0.895692   -1.780261
     62          1           0       11.238861    0.345865   -2.147095
     63          1           0       12.096575   -1.927084   -1.604297
     64          1           0       10.543291   -3.633549   -0.670937
     65          1           0        8.174957   -3.069729   -0.268842
     66          1           0        6.169553   -2.642655   -1.392797
     67          1           0        3.800729   -2.120475   -0.990223
     68          1           0        2.041160   -0.515255   -0.267844
     69          1           0       -1.133457   -0.200482   -1.541048
     70          1           0       -1.935039    1.363176   -1.512713
     71          1           0       -3.075963   -1.393762   -0.912150
     72          1           0       -3.824616   -0.057013   -1.774988
 ---------------------------------------------------------------------

 SCF Done:  E(RB3LYP) =  -1429.90480665     A.U. after   15 cycles

 Excitation energies and oscillator strengths:

 Excited state symmetry could not be determined.
 Excited State   1:      Triplet-?Sym    2.6393 eV  469.77 nm  f=0.0000  <S**2>=2.000
     118 ->130        -0.12282
     123 ->125        -0.10245
     123 ->126         0.20994
     124 ->125         0.64405
 This state for optimization and/or second-order correction.
 Total Energy, E(TD-HF/TD-DFT) =  -1429.80781574
 Copying the excited state density for this state as the 1-particle RhoCI density.

 Excited state symmetry could not be determined.
 Excited State   2:      Triplet-?Sym    3.4676 eV  357.55 nm  f=0.0000  <S**2>=2.000
     120 ->125         0.11902
     120 ->126         0.12083
     120 ->129        -0.11370
     122 ->127         0.26266
     123 ->125         0.41561
     123 ->129        -0.10133
     124 ->125         0.10153
     124 ->126         0.39517
     124 ->129        -0.11411

 Excited state symmetry could not be determined.
 Excited State   3:      Singlet-?Sym    4.1470 eV  298.97 nm  f=0.1549  <S**2>=0.000
     123 ->125         0.19818
     123 ->126         0.11905
     124 ->125         0.62121
     124 ->126        -0.22061

 Excited state symmetry could not be determined.
 Excited State   4:      Singlet-?Sym    4.1850 eV  296.26 nm  f=0.0382  <S**2>=0.000
     123 ->125         0.44601
     124 ->125        -0.29666
     124 ->126        -0.44414

 Alpha  occ. eigenvalues --  -19.18451 -19.14291 -19.12960 -10.30637 -10.25263
 Alpha  occ. eigenvalues --  -10.24312 -10.23728 -10.19849 -10.19631 -10.19581
 Alpha  occ. eigenvalues --  -10.19457 -10.19207 -10.19158 -10.19112 -10.18811
 Alpha  occ. eigenvalues --  -10.18807 -10.18797 -10.18793 -10.18712 -10.18701
 Alpha  occ. eigenvalues --  -10.18660 -10.18658 -10.18639 -10.18594 -10.18574
 Alpha  occ. eigenvalues --  -10.18527 -10.18463 -10.18285 -10.18215 -10.17923
 Alpha  occ. eigenvalues --  -10.17897 -10.17884 -10.17636 -10.17399  -1.09294
 Alpha  occ. eigenvalues --   -1.02724  -1.00671  -0.87149  -0.85303  -0.83856
 Alpha  occ. eigenvalues --   -0.82438  -0.81684  -0.78808  -0.77104  -0.75224
 Alpha  occ. eigenvalues --   -0.74816  -0.74583  -0.74146  -0.73099  -0.72072
 Alpha  occ. eigenvalues --   -0.70571  -0.69377  -0.68592  -0.65629  -0.63621
 Alpha  occ. eigenvalues --   -0.62707  -0.62594  -0.61567  -0.59975  -0.59025
 Alpha  occ. eigenvalues --   -0.58575  -0.57797  -0.56275  -0.56184  -0.53670
 Alpha  occ. eigenvalues --   -0.52247  -0.51342  -0.50116  -0.49402  -0.49120
 Alpha  occ. eigenvalues --   -0.48318  -0.47146  -0.46593  -0.45822  -0.45246
 Alpha  occ. eigenvalues --   -0.44957  -0.44739  -0.44228  -0.43921  -0.43762
 Alpha  occ. eigenvalues --   -0.43265  -0.43024  -0.42166  -0.41788  -0.41722
 Alpha  occ. eigenvalues --   -0.41214  -0.41028  -0.40669  -0.40285  -0.40049
 Alpha  occ. eigenvalues --   -0.39337  -0.38986  -0.38688  -0.38255  -0.38070
 Alpha  occ. eigenvalues --   -0.37981  -0.37844  -0.37454  -0.36862  -0.36184
 Alpha  occ. eigenvalues --   -0.36109  -0.35864  -0.35582  -0.35387  -0.34774
 Alpha  occ. eigenvalues --   -0.34229  -0.33763  -0.33614  -0.33102  -0.33007
 Alpha  occ. eigenvalues --   -0.32521  -0.32093  -0.31909  -0.31562  -0.31319
 Alpha  occ. eigenvalues --   -0.29392  -0.28716  -0.28016  -0.25954  -0.25641
 Alpha  occ. eigenvalues --   -0.24777  -0.24748  -0.22536  -0.20427
 Alpha virt. eigenvalues --   -0.03833  -0.01730   0.00168   0.01666   0.01941
 Alpha virt. eigenvalues --    0.04003   0.06569   0.07987   0.08319   0.09611
 Alpha virt. eigenvalues --    0.09823   0.10117   0.11318   0.11676   0.11744

 Mulliken charges:
               1
     1  C   -0.455301
     2  C   -0.075373
     3  C   -0.451495
     4  C   -0.143455
     5  C   -0.467552
     6  C    0.616621
     7  O   -0.490188
     8  O   -0.488328
     9  C    0.138155
    10  C   -0.304351
    11  C   -0.285921
    12  C    0.162653
    13  O   -0.547453
    14  C    0.292286
    15  C   -0.461638
    16  C   -0.461525
    17  C    0.100717
    18  C   -0.181790
    19  C   -0.201504
    20  C    0.148949
    21  C   -0.262216
    22  C    0.091205
    23  C    0.088283
    24  C   -0.171632
    25  C   -0.134473
    26  C   -0.127005
    27  C   -0.133821
    28  C   -0.175099
    29  C   -0.179985
    30  C   -0.196187
    31  C    0.149006
    32  C   -0.258302
    33  C   -0.293445
    34  C   -0.291748
    35  H    0.146987
    36  H    0.142475
    37  H    0.151999
    38  H    0.139247
    39  H    0.144852
    40  H    0.147236
    41  H    0.141705
    42  H    0.148357
    43  H    0.154268
    44  H    0.155062
    45  H    0.160507
    46  H    0.155511
    47  H    0.163550
    48  H    0.147852
    49  H    0.146961
    50  H    0.142290
    51  H    0.122617
    52  H    0.162093
    53  H    0.148252
    54  H    0.145170
    55  H    0.147896
    56  H    0.162271
    57  H    0.143510
    58  H    0.123278
    59  H    0.127654
    60  H    0.130294
    61  H    0.131639
    62  H    0.129490
    63  H    0.128678
    64  H    0.129577
    65  H    0.132260
    66  H    0.130957
    67  H    0.130085
    68  H    0.148127
    69  H    0.155955
    70  H    0.140124
    71  H    0.145304
    72  H    0.147822
 Sum of Mulliken charges =  -0.00000

 Dipole moment (field-independent basis, Debye):
    X=             -0.5069    Y=             -0.5053    Z=             -0.7770  Tot=              1.0564
 Quadrupole moment (field-independent basis, Debye-Ang):
   XX=           -193.1429   YY=           -192.2899   ZZ=           -207.8417
   XY=             10.2451   XZ=              5.8771   YZ=             -1.6494

 Normal termination of Gaussian 16 at Sat Nov  5 09:57:25 2022.
