 Gaussian 16, Revision B.01,
 Gaussian 16:  ES64L-G16RevB.01 20-Dec-2017

 -----------------------------
 #p b3lyp/6-31g(d) opt SCF=XQC
 -----------------------------

 ------------------------------
 Gaussian input prepared by ASE
 ------------------------------
 Symbolic Z-matrix:
 Charge =  0 Multiplicity = 1

 SCF Done:  E(RB3LYP) =  -1429.89782728     A.U. after   14 cycles
 SCF Done:  E(RB3LYP) =  -1429.90425573     A.U. after   12 cycles
 SCF Done:  E(RB3LYP) =  -1429.90452238     A.U. after   11 cycles
 SCF Done:  E(RB3LYP) =  -1429.90434731     A.U. after   11 cycles
 SCF Done:  E(RB3LYP) =  -1429.90473568     A.U. after   11 cycles
 SCF Done:  E(RB3LYP) =  -1429.90475816     A.U. after    9 cycles
 SCF Done:  E(RB3LYP) =  -1429.90477855     A.U. after   10 cycles
 SCF Done:  E(RB3LYP) =  -1429.90478790     A.U. after   10 cycles
 SCF Done:  E(RB3LYP) =  -1429.90479652     A.U. after    9 cycles
 SCF Done:  E(RB3LYP) =  -1429.90480825     A.U. after   10 cycles
 SCF Done:  E(RB3LYP) =  -1429.90480932     A.U. after    9 cycles
 SCF Done:  E(RB3LYP) =  -1429.90481260     A.U. after    9 cycles
 SCF Done:  E(RB3LYP) =  -1429.90481689     A.U. after   10 cycles
 SCF Done:  E(RB3LYP) =  -1429.90481735     A.U. after    9 cycles
 SCF Done:  E(RB3LYP) =  -1429.90481754     A.U. after    7 cycles
 SCF Done:  E(RB3LYP) =  -1429.90481760     A.U. after    7 cycles
 SCF Done:  E(RB3LYP) =  -1429.90481761     A.U. after    6 cycles
 SCF Done:  E(RB3LYP) =  -1429.90481759     A.U. after    6 cycles
 Optimization completed.
    -- Stationary point found.

                         Standard orientation:
 ---------------------------------------------------------------------
 Center     Atomic      Atomic             Coordinates (Angstroms)
 Number     Number       Type             X           Y           Z
 ---------------------------------------------------------------------
      1          6           0        8.630404   -0.018191    1.877938
      2          6           0        8.571344   -1.214356    0.914005
      3          6           0        9.905374   -1.976282    0.938433
      4          6           0        8.193548   -0.761757   -0.523817
      5          6           0        8.067917   -1.929018   -1.523017
      6          6           0        6.903869    0.049903   -0.530645
      7          8           0        6.807647    1.202274   -0.898214
      8          8           0        5.856563   -0.683880   -0.080311
      9          6           0        4.561623   -0.029033   -0.032406
     10          6           0        3.889128   -0.063781   -1.419379
     11          6           0        2.344523   -0.074060   -1.322095
     12          6           0        1.858560    0.670526   -0.073106
     13          8           0        0.429881    0.694192   -0.045105
     14          6           0       -0.268642    1.949583   -0.088626
     15          6           0        0.052425    2.703113   -1.395861
     16          6           0        0.089928    2.798082    1.148672
     17          6           0       -1.760691    1.592737   -0.056001
     18          6           0       -2.734071    2.632876   -0.069867
     19          6           0       -4.080044    2.355023   -0.043715
     20          6           0       -4.548970    1.014563   -0.000332
     21          6           0       -5.928372    0.689064    0.026222
     22          6           0       -6.367803   -0.624523    0.061672
     23          6           0       -7.815805   -0.952882    0.087972
     24          6           0       -8.723336   -0.166788    0.818789
     25          6           0      -10.083646   -0.470401    0.836923
     26          6           0      -10.568650   -1.570663    0.127297
     27          6           0       -9.679533   -2.363454   -0.600530
     28          6           0       -8.319310   -2.058268   -0.619265
     29          6           0       -5.390602   -1.663193    0.069462
     30          6           0       -4.046014   -1.378661    0.044981
     31          6           0       -3.580158   -0.037100    0.008627
     32          6           0       -2.197193    0.284471   -0.018135
     33          6           0        2.366055   -0.029562    1.209397
     34          6           0        3.719952   -0.752484    1.013048
     35          1           0        9.394210    0.704037    1.562874
     36          1           0        8.883522   -0.350710    2.891173
     37          1           0        7.674365    0.513818    1.933066
     38          1           0        7.779987   -1.893446    1.259449
     39          1           0       10.169563   -2.248272    1.966906
     40          1           0        9.869476   -2.901235    0.354432
     41          1           0       10.720273   -1.356874    0.541160
     42          1           0        8.963124   -0.067580   -0.882722
     43          1           0        7.728348   -1.569601   -2.500960
     44          1           0        9.032488   -2.422540   -1.672217
     45          1           0        7.348284   -2.673515   -1.167165
     46          1           0        4.737218    1.007172    0.273378
     47          1           0        4.240501    0.792099   -2.004385
     48          1           0        4.230836   -0.966836   -1.938598
     49          1           0        1.902278    0.374850   -2.217203
     50          1           0        1.966257   -1.103034   -1.271033
     51          1           0        2.251734    1.694274   -0.107147
     52          1           0       -0.195234    2.076858   -2.258295
     53          1           0       -0.525956    3.629325   -1.468581
     54          1           0        1.112589    2.973767   -1.450160
     55          1           0       -0.486054    3.728236    1.172194
     56          1           0       -0.128482    2.235403    2.061364
     57          1           0        1.151117    3.070671    1.149366
     58          1           0       -2.412894    3.670495   -0.101821
     59          1           0       -4.804916    3.165828   -0.054772
     60          1           0       -6.651866    1.499988   -0.009939
     61          1           0       -8.352221    0.674193    1.397930
     62          1           0      -10.764772    0.148197    1.415677
     63          1           0      -11.628752   -1.808971    0.143029
     64          1           0      -10.046228   -3.218516   -1.162604
     65          1           0       -7.641401   -2.667955   -1.210245
     66          1           0       -5.721271   -2.696478    0.123771
     67          1           0       -3.316867   -2.185401    0.062896
     68          1           0       -1.469887   -0.518648   -0.009538
     69          1           0        1.601259   -0.753067    1.510803
     70          1           0        2.437998    0.706249    2.019358
     71          1           0        3.559475   -1.785183    0.678406
     72          1           0        4.268294   -0.811197    1.959341
 ---------------------------------------------------------------------

 The electronic state is 1-A.
 Alpha  occ. eigenvalues --  -19.18451 -19.14291 -19.12960 -10.30637 -10.25263
 Alpha  occ. eigenvalues --  -10.24312 -10.23728 -10.19850 -10.19631 -10.19581
 Alpha  occ. eigenvalues --  -10.19457 -10.19207 -10.19158 -10.19112 -10.18811
 Alpha  occ. eigenvalues --  -10.18807 -10.18797 -10.18793 -10.18712 -10.18701
 Alpha  occ. eigenvalues --  -10.18660 -10.18658 -10.18639 -10.18594 -10.18574
 Alpha  occ. eigenvalues --  -10.18527 -10.18463 -10.18285 -10.18215 -10.17923
 Alpha  occ. eigenvalues --  -10.17897 -10.17884 -10.17636 -10.17399  -1.09294
 Alpha  occ. eigenvalues --   -1.02724  -1.00671  -0.87149  -0.85303  -0.83856
 Alpha  occ. eigenvalues --   -0.82438  -0.81684  -0.78808  -0.77104  -0.75224
 Alpha  occ. eigenvalues --   -0.74816  -0.74583  -0.74146  -0.73099  -0.72072
 Alpha  occ. eigenvalues --   -0.70571  -0.69377  -0.68592  -0.65629  -0.63621
 Alpha  occ. eigenvalues --   -0.62707  -0.62594  -0.61567  -0.59975  -0.59025
 Alpha  occ. eigenvalues --   -0.58575  -0.57797  -0.56275  -0.56184  -0.53670
 Alpha  occ. eigenvalues --   -0.52247  -0.51342  -0.50116  -0.49402  -0.49120
 Alpha  occ. eigenvalues --   -0.48318  -0.47146  -0.46593  -0.45822  -0.45246
 Alpha  occ. eigenvalues --   -0.44957  -0.44739  -0.44228  -0.43921  -0.43762
 Alpha  occ. eigenvalues --   -0.43265  -0.43024  -0.42166  -0.41788  -0.41722
 Alpha  occ. eigenvalues --   -0.41214  -0.41028  -0.40669  -0.40285  -0.40049
 Alpha  occ. eigenvalues --   -0.39337  -0.38986  -0.38688  -0.38255  -0.38070
 Alpha  occ. eigenvalues --   -0.37981  -0.37844  -0.37454  -0.36862  -0.36184
 Alpha  occ. eigenvalues --   -0.36109  -0.35864  -0.35583  -0.35387  -0.34774
 Alpha  occ. eigenvalues --   -0.34229  -0.33763  -0.33614  -0.33102  -0.33007
 Alpha  occ. eigenvalues --   -0.32521  -0.32093  -0.31909  -0.31562  -0.31319
 Alpha  occ. eigenvalues --   -0.29392  -0.28716  -0.28016  -0.25954  -0.25641
 Alpha  occ. eigenvalues --   -0.24777  -0.24748  -0.22536  -0.20427
 Alpha virt. eigenvalues --   -0.03833  -0.01730   0.00168   0.01665   0.01941
 Alpha virt. eigenvalues --    0.04003   0.06569   0.07987   0.08319   0.09611
 Alpha virt. eigenvalues --    0.09823   0.10117   0.11318   0.11676   0.11744

 Mulliken charges:
               1
     1  C   -0.455289
     2  C   -0.075382
     3  C   -0.451501
     4  C   -0.143458
     5  C   -0.467537
     6  C    0.616614
     7  O   -0.490186
     8  O   -0.488324
     9  C    0.138145
    10  C   -0.304342
    11  C   -0.285930
    12  C    0.162631
    13  O   -0.547439
    14  C    0.292269
    15  C   -0.461640
    16  C   -0.461525
    17  C    0.100750
    18  C   -0.181790
    19  C   -0.201502
    20  C    0.148950
    21  C   -0.262223
    22  C    0.091210
    23  C    0.088305
    24  C   -0.171645
    25  C   -0.134473
    26  C   -0.127000
    27  C   -0.133822
    28  C   -0.175111
    29  C   -0.179991
    30  C   -0.196183
    31  C    0.149005
    32  C   -0.258331
    33  C   -0.293433
    34  C   -0.291737
    35  H    0.146985
    36  H    0.142472
    37  H    0.151997
    38  H    0.139248
    39  H    0.144855
    40  H    0.147239
    41  H    0.141705
    42  H    0.148357
    43  H    0.154265
    44  H    0.155059
    45  H    0.160506
    46  H    0.155513
    47  H    0.163549
    48  H    0.147848
    49  H    0.146963
    50  H    0.142292
    51  H    0.122620
    52  H    0.162092
    53  H    0.148255
    54  H    0.145173
    55  H    0.147896
    56  H    0.162271
    57  H    0.143513
    58  H    0.123277
    59  H    0.127654
    60  H    0.130295
    61  H    0.131639
    62  H    0.129490
    63  H    0.128678
    64  H    0.129576
    65  H    0.132260
    66  H    0.130958
    67  H    0.130084
    68  H    0.148129
    69  H    0.155953
    70  H    0.140122
    71  H    0.145303
    72  H    0.147821
 Sum of Mulliken charges =  -0.00000

 Dipole moment (field-independent basis, Debye):
    X=              0.4327    Y=             -0.7409    Z=              0.6162  Tot=              1.0564
 Quadrupole moment (field-independent basis, Debye-Ang):
   XX=           -194.1069   YY=           -193.5805   ZZ=           -204.9690
   XY=            -12.3967   XZ=              3.8502   YZ=              4.8978

 1\1\GINC-NODE75\FOpt\RB3LYP\6-31G(d)\C31H38O3\WYKGROUP\04-Nov-2022\0\\
 #p b3lyp/6-31g(d) opt SCF=XQC\\Gaussian input prepared by ASE\\0,1\C,-
 8.1302873917,0.771618476,-1.1131371863\C,-8.0608719966,-0.6641297461,-
 0.5679089045\C,-9.4269744497,-1.3509809013,-0.7187869185\C,-7.56618437
 72,-0.6846257213,0.9051048926\C,-7.4267076555,-2.1052488811,1.48739282
 18\C,-6.2431998264,0.0559582435,1.0579368788\O,-6.0696281986,1.0368177
 252,1.7508380966\O,-5.2635166138,-0.5273168314,0.3243848607\C,-3.94617
 70364,0.0808251295,0.3770106576\C,-3.1835375693,-0.3943084529,1.629919

 Normal termination of Gaussian 16 at Fri Nov  4 22:31:35 2022.
