 Gaussian 16, Revision B.01,
 Gaussian 16:  ES64L-G16RevB.01 20-Dec-2017

 -------------------------------------------------------------------
 #p b3lyp/6-31g(d) 6D 10F nosymm GFInput td=(50-50,nstate=2) SCF=XQC
 -------------------------------------------------------------------

 ------------------------------
 Gaussian input prepared by ASE
 ------------------------------
 Symbolic Z-matrix:
 Charge =  0 Multiplicity = 1

                          Input orientation:
 ---------------------------------------------------------------------
 Center     Atomic      Atomic             Coordinates (Angstroms)
 Number     Number       Type             X           Y           Z
 ---------------------------------------------------------------------
      1          6           0       -1.419276   -3.216809   -1.592014
      2          7           0       -0.481559   -2.264060   -1.019340
      3          6           0       -0.885277   -1.084625   -0.474094
      4          7           0       -2.189139   -0.866630   -0.380564
      5          6           0       -2.603695    0.311127    0.162084
      6          6           0       -4.072617    0.502061    0.260264
      7          6           0       -4.971318   -0.476511   -0.182115
      8          6           0       -6.337850   -0.242084   -0.062544
      9          6           0       -6.761435    0.964451    0.495839
     10          7           0       -5.921986    1.916554    0.926393
     11          6           0       -4.612486    1.679421    0.806023
     12          7           0       -1.828766    1.291731    0.591804
     13          6           0       -0.483427    1.086820    0.514188
     14          6           0        0.396557    2.103426    0.964215
     15          6           0        1.760202    1.926488    0.923780
     16          6           0        2.331283    0.715696    0.443635
     17          6           0        3.798714    0.494637    0.455216
     18          6           0        4.352208   -0.737968    0.845595
     19          6           0        5.726440   -0.968530    0.843896
     20          6           0        6.583841    0.049900    0.448908
     21          9           0        7.913064   -0.131630    0.440409
     22          6           0        6.076646    1.287169    0.060758
     23          9           0        6.901053    2.267671   -0.328087
     24          6           0        4.700104    1.494593    0.065351
     25          9           0        4.260670    2.699783   -0.339957
     26          6           0        1.478094   -0.282035   -0.012663
     27          6           0        0.078367   -0.115749    0.002945
     28          1           0       -0.861696   -4.103600   -1.902791
     29          1           0       -2.162390   -3.505341   -0.844717
     30          1           0       -1.952119   -2.802133   -2.456947
     31          1           0        0.484842   -2.344778   -1.292421
     32          1           0       -4.586951   -1.396027   -0.609348
     33          1           0       -7.064016   -0.978278   -0.395163
     34          1           0       -7.823579    1.179929    0.603917
     35          1           0       -3.939630    2.456239    1.157375
     36          1           0       -0.044093    3.017750    1.348305
     37          1           0        2.413942    2.715049    1.279555
     38          1           0        3.684516   -1.522873    1.185495
     39          1           0        6.145026   -1.918512    1.157831
     40          1           0        1.917742   -1.202323   -0.388060
 ---------------------------------------------------------------------

 SCF Done:  E(RB3LYP) =  -1288.48928176     A.U. after   14 cycles

 Excitation energies and oscillator strengths:

 Excited state symmetry could not be determined.
 Excited State   1:      Triplet-?Sym    2.6180 eV  473.58 nm  f=0.0000  <S**2>=2.000
      94 -> 95         0.65911
 This state for optimization and/or second-order correction.
 Total Energy, E(TD-HF/TD-DFT) =  -1288.39307133
 Copying the excited state density for this state as the 1-particle RhoCI density.

 Excited state symmetry could not be determined.
 Excited State   2:      Triplet-?Sym    3.3660 eV  368.34 nm  f=0.0000  <S**2>=2.000
      91 -> 95        -0.13468
      92 -> 95         0.20139
      94 -> 96         0.61694

 Excited state symmetry could not be determined.
 Excited State   3:      Singlet-?Sym    3.7538 eV  330.29 nm  f=0.6007  <S**2>=0.000
      94 -> 95         0.69606

 Excited state symmetry could not be determined.
 Excited State   4:      Singlet-?Sym    3.8864 eV  319.02 nm  f=0.0057  <S**2>=0.000
      91 -> 95         0.26304
      92 -> 95         0.16714
      93 -> 95         0.61216
      93 -> 97         0.12157

 Alpha  occ. eigenvalues --  -24.72990 -24.72967 -24.72798 -14.37834 -14.32673
 Alpha  occ. eigenvalues --  -14.32125 -14.32073 -10.29859 -10.29771 -10.29660
 Alpha  occ. eigenvalues --  -10.28407 -10.26128 -10.23595 -10.23182 -10.22944
 Alpha  occ. eigenvalues --  -10.22239 -10.22174 -10.21899 -10.21710 -10.21703
 Alpha  occ. eigenvalues --  -10.21517 -10.21227 -10.20836 -10.19953 -10.19923
 Alpha  occ. eigenvalues --  -10.19698 -10.19272  -1.25170  -1.24112  -1.23204
 Alpha  occ. eigenvalues --   -0.99813  -0.95101  -0.93071  -0.89663  -0.88098
 Alpha  occ. eigenvalues --   -0.85868  -0.81151  -0.79296  -0.77778  -0.77444
 Alpha  occ. eigenvalues --   -0.76379  -0.73818  -0.71714  -0.67722  -0.65771
 Alpha  occ. eigenvalues --   -0.64838  -0.64387  -0.62398  -0.61413  -0.60398
 Alpha  occ. eigenvalues --   -0.58023  -0.56409  -0.55567  -0.55433  -0.53482
 Alpha  occ. eigenvalues --   -0.52756  -0.50953  -0.50648  -0.50425  -0.49405
 Alpha  occ. eigenvalues --   -0.47864  -0.47166  -0.46844  -0.46334  -0.46190
 Alpha  occ. eigenvalues --   -0.45741  -0.45606  -0.45065  -0.44479  -0.43596
 Alpha  occ. eigenvalues --   -0.42948  -0.42478  -0.41941  -0.41118  -0.40057
 Alpha  occ. eigenvalues --   -0.39330  -0.39226  -0.38455  -0.37845  -0.37237
 Alpha  occ. eigenvalues --   -0.36494  -0.35859  -0.35702  -0.34855  -0.30287
 Alpha  occ. eigenvalues --   -0.29901  -0.27440  -0.26728  -0.26395  -0.25794
 Alpha  occ. eigenvalues --   -0.25224  -0.25118  -0.24152  -0.21664
 Alpha virt. eigenvalues --   -0.06528  -0.04478  -0.02500  -0.02196  -0.01040
 Alpha virt. eigenvalues --    0.01593   0.03232   0.04183   0.05380   0.08547
 Alpha virt. eigenvalues --    0.09549   0.11178   0.11826   0.12136   0.13769

 Mulliken charges:
               1
     1  C   -0.288280
     2  N   -0.635428
     3  C    0.514775
     4  N   -0.598201
     5  C    0.432146
     6  C    0.058483
     7  C   -0.129135
     8  C   -0.148928
     9  C    0.044567
    10  N   -0.419163
    11  C    0.013236
    12  N   -0.579577
    13  C    0.269017
    14  C   -0.164674
    15  C   -0.162631
    16  C    0.103933
    17  C    0.006462
    18  C   -0.178404
    19  C   -0.206248
    20  C    0.327285
    21  F   -0.277724
    22  C    0.254980
    23  F   -0.267969
    24  C    0.261904
    25  F   -0.274608
    26  C   -0.262280
    27  C    0.121105
    28  H    0.152198
    29  H    0.186072
    30  H    0.170581
    31  H    0.336515
    32  H    0.159197
    33  H    0.133877
    34  H    0.140040
    35  H    0.169504
    36  H    0.153417
    37  H    0.149689
    38  H    0.150226
    39  H    0.160391
    40  H    0.123650
 Sum of Mulliken charges =  -0.00000

 Dipole moment (field-independent basis, Debye):
    X=              1.8962    Y=             -5.7521    Z=             -1.5036  Tot=              6.2405
 Quadrupole moment (field-independent basis, Debye-Ang):
   XX=           -168.1492   YY=           -144.9785   ZZ=           -149.3794
   XY=              4.2232   XZ=              9.7745   YZ=              4.6013

 Normal termination of Gaussian 16 at Sat Nov  5 09:44:39 2022.
