 Gaussian 16, Revision B.01,
 Gaussian 16:  ES64L-G16RevB.01 20-Dec-2017

 -----------------------------
 #p b3lyp/6-31g(d) opt SCF=XQC
 -----------------------------

 ------------------------------
 Gaussian input prepared by ASE
 ------------------------------
 Symbolic Z-matrix:
 Charge =  0 Multiplicity = 1

 SCF Done:  E(RB3LYP) =  -1288.48392014     A.U. after   15 cycles
 SCF Done:  E(RB3LYP) =  -1288.48797358     A.U. after   12 cycles
 SCF Done:  E(RB3LYP) =  -1288.48825583     A.U. after   11 cycles
 SCF Done:  E(RB3LYP) =  -1288.48829636     A.U. after   10 cycles
 SCF Done:  E(RB3LYP) =  -1288.48831285     A.U. after   10 cycles
 SCF Done:  E(RB3LYP) =  -1288.48832945     A.U. after   10 cycles
 SCF Done:  E(RB3LYP) =  -1288.48834026     A.U. after   10 cycles
 SCF Done:  E(RB3LYP) =  -1288.48838137     A.U. after   11 cycles
 SCF Done:  E(RB3LYP) =  -1288.48840650     A.U. after   12 cycles
 SCF Done:  E(RB3LYP) =  -1288.48845293     A.U. after   12 cycles
 SCF Done:  E(RB3LYP) =  -1288.48915720     A.U. after   11 cycles
 SCF Done:  E(RB3LYP) =  -1288.48920942     A.U. after   10 cycles
 SCF Done:  E(RB3LYP) =  -1288.48923808     A.U. after   10 cycles
 SCF Done:  E(RB3LYP) =  -1288.48925763     A.U. after   10 cycles
 SCF Done:  E(RB3LYP) =  -1288.48926314     A.U. after    9 cycles
 SCF Done:  E(RB3LYP) =  -1288.48926853     A.U. after    9 cycles
 SCF Done:  E(RB3LYP) =  -1288.48927505     A.U. after    9 cycles
 SCF Done:  E(RB3LYP) =  -1288.48927822     A.U. after    9 cycles
 SCF Done:  E(RB3LYP) =  -1288.48927913     A.U. after    9 cycles
 SCF Done:  E(RB3LYP) =  -1288.48927932     A.U. after    8 cycles
 Optimization completed.
    -- Stationary point found.

                         Standard orientation:
 ---------------------------------------------------------------------
 Center     Atomic      Atomic             Coordinates (Angstroms)
 Number     Number       Type             X           Y           Z
 ---------------------------------------------------------------------
      1          6           0       -2.218724    3.810765    0.685338
      2          7           0       -1.231217    2.782846    0.396876
      3          6           0       -1.573316    1.480624    0.200570
      4          7           0       -2.864452    1.182986    0.174009
      5          6           0       -3.217484   -0.117425   -0.020242
      6          6           0       -4.674702   -0.398294   -0.058396
      7          6           0       -5.622993    0.620217    0.097629
      8          6           0       -6.975670    0.296596    0.050739
      9          6           0       -7.336201   -1.036223   -0.150640
     10          7           0       -6.448461   -2.028900   -0.302502
     11          6           0       -5.152886   -1.705196   -0.255465
     12          7           0       -2.392867   -1.140319   -0.163263
     13          6           0       -1.059514   -0.857654   -0.148463
     14          6           0       -0.128056   -1.915681   -0.301260
     15          6           0        1.225302   -1.669276   -0.314478
     16          6           0        1.733832   -0.346953   -0.189786
     17          6           0        3.189374   -0.067623   -0.265439
     18          6           0        3.689008    1.033848   -0.983209
     19          6           0        5.050869    1.321505   -1.048525
     20          6           0        5.950448    0.494526   -0.388818
     21          9           0        7.269566    0.734849   -0.433917
     22          6           0        5.497304   -0.609817    0.327999
     23          9           0        6.362224   -1.403678    0.971372
     24          6           0        4.132087   -0.876179    0.384130
     25          9           0        3.744936   -1.941737    1.108395
     26          6           0        0.829949    0.695981   -0.025795
     27          6           0       -0.560223    0.464940    0.008409
     28          1           0       -1.706663    4.774608    0.737066
     29          1           0       -2.966138    3.845203   -0.110970
     30          1           0       -2.741213    3.626627    1.632484
     31          1           0       -0.272740    2.982245    0.634743
     32          1           0       -5.286770    1.639393    0.252580
     33          1           0       -7.739085    1.060383    0.168049
     34          1           0       -8.385854   -1.323879   -0.192419
     35          1           0       -4.440615   -2.515713   -0.379404
     36          1           0       -0.521220   -2.920632   -0.416068
     37          1           0        1.919077   -2.493205   -0.439370
     38          1           0        2.989211    1.661050   -1.525725
     39          1           0        5.428098    2.166420   -1.614255
     40          1           0        1.221931    1.704202    0.079010
 ---------------------------------------------------------------------

 The electronic state is 1-A.
 Alpha  occ. eigenvalues --  -24.72990 -24.72967 -24.72798 -14.37834 -14.32673
 Alpha  occ. eigenvalues --  -14.32125 -14.32073 -10.29859 -10.29771 -10.29660
 Alpha  occ. eigenvalues --  -10.28407 -10.26128 -10.23595 -10.23182 -10.22944
 Alpha  occ. eigenvalues --  -10.22239 -10.22174 -10.21899 -10.21710 -10.21703
 Alpha  occ. eigenvalues --  -10.21517 -10.21227 -10.20836 -10.19953 -10.19923
 Alpha  occ. eigenvalues --  -10.19698 -10.19272  -1.25170  -1.24112  -1.23204
 Alpha  occ. eigenvalues --   -0.99813  -0.95101  -0.93071  -0.89663  -0.88098
 Alpha  occ. eigenvalues --   -0.85868  -0.81151  -0.79296  -0.77778  -0.77444
 Alpha  occ. eigenvalues --   -0.76379  -0.73818  -0.71714  -0.67722  -0.65771
 Alpha  occ. eigenvalues --   -0.64838  -0.64387  -0.62398  -0.61413  -0.60398
 Alpha  occ. eigenvalues --   -0.58023  -0.56409  -0.55567  -0.55433  -0.53482
 Alpha  occ. eigenvalues --   -0.52756  -0.50953  -0.50648  -0.50425  -0.49405
 Alpha  occ. eigenvalues --   -0.47864  -0.47166  -0.46844  -0.46334  -0.46190
 Alpha  occ. eigenvalues --   -0.45741  -0.45606  -0.45065  -0.44479  -0.43596
 Alpha  occ. eigenvalues --   -0.42948  -0.42478  -0.41941  -0.41118  -0.40057
 Alpha  occ. eigenvalues --   -0.39330  -0.39226  -0.38455  -0.37845  -0.37237
 Alpha  occ. eigenvalues --   -0.36494  -0.35859  -0.35702  -0.34855  -0.30287
 Alpha  occ. eigenvalues --   -0.29901  -0.27440  -0.26728  -0.26395  -0.25794
 Alpha  occ. eigenvalues --   -0.25224  -0.25118  -0.24152  -0.21664
 Alpha virt. eigenvalues --   -0.06528  -0.04478  -0.02500  -0.02196  -0.01040
 Alpha virt. eigenvalues --    0.01593   0.03232   0.04183   0.05380   0.08547
 Alpha virt. eigenvalues --    0.09549   0.11178   0.11826   0.12136   0.13769

 Mulliken charges:
               1
     1  C   -0.288280
     2  N   -0.635431
     3  C    0.514800
     4  N   -0.598210
     5  C    0.432151
     6  C    0.058477
     7  C   -0.129136
     8  C   -0.148921
     9  C    0.044556
    10  N   -0.419158
    11  C    0.013240
    12  N   -0.579584
    13  C    0.269033
    14  C   -0.164674
    15  C   -0.162628
    16  C    0.103929
    17  C    0.006475
    18  C   -0.178410
    19  C   -0.206247
    20  C    0.327286
    21  F   -0.277724
    22  C    0.254979
    23  F   -0.267970
    24  C    0.261895
    25  F   -0.274608
    26  C   -0.262278
    27  C    0.121085
    28  H    0.152198
    29  H    0.186073
    30  H    0.170580
    31  H    0.336515
    32  H    0.159196
    33  H    0.133877
    34  H    0.140040
    35  H    0.169504
    36  H    0.153417
    37  H    0.149688
    38  H    0.150226
    39  H    0.160391
    40  H    0.123651
 Sum of Mulliken charges =  -0.00000

 Dipole moment (field-independent basis, Debye):
    X=              1.6086    Y=              6.0277    Z=             -0.1528  Tot=              6.2405
 Quadrupole moment (field-independent basis, Debye-Ang):
   XX=           -169.5172   YY=           -139.3424   ZZ=           -151.4675
   XY=            -11.1929   XZ=             -8.1400   YZ=              2.5518

 Normal termination of Gaussian 16 at Fri Nov  4 22:44:21 2022.
