 Gaussian 16, Revision B.01,
 Gaussian 16:  ES64L-G16RevB.01 20-Dec-2017

 -------------------------------------------------------------------
 #p b3lyp/6-31g(d) 6D 10F nosymm GFInput td=(50-50,nstate=2) SCF=XQC
 -------------------------------------------------------------------

 ------------------------------
 Gaussian input prepared by ASE
 ------------------------------
 Symbolic Z-matrix:
 Charge =  0 Multiplicity = 1

                          Input orientation:
 ---------------------------------------------------------------------
 Center     Atomic      Atomic             Coordinates (Angstroms)
 Number     Number       Type             X           Y           Z
 ---------------------------------------------------------------------
      1          8           0        2.181018   -2.768168   -1.440131
      2          6           0        2.042971   -1.628763   -1.013265
      3          6           0        1.646598   -0.532076   -1.954432
      4          7           0        2.102976   -0.562396   -3.164069
      5          7           0        1.634362    0.526915   -3.857600
      6          6           0        0.437557    1.068825   -3.187309
      7          6           0        0.727253    0.679122   -1.714945
      8          6           0       -0.496597    0.552270   -0.818600
      9          6           0       -0.782732    1.593583    0.107152
     10          6           0       -0.003872    2.794000    0.234413
     11          6           0       -0.310962    3.767954    1.149105
     12          6           0       -1.426022    3.628520    2.020725
     13          6           0       -2.211391    2.513094    1.930963
     14          6           0       -1.930593    1.480072    0.982560
     15          6           0       -2.761522    0.363894    0.887029
     16          6           0       -2.525325   -0.647312   -0.045094
     17          6           0       -3.412007   -1.764691   -0.141460
     18          6           0       -3.203195   -2.759040   -1.056952
     19          6           0       -2.081380   -2.684011   -1.926852
     20          6           0       -1.204474   -1.631445   -1.861995
     21          6           0       -1.375555   -0.560640   -0.920757
     22          6           0        2.243629   -1.337065    0.439867
     23          6           0        2.161199   -2.413407    1.339514
     24          6           0        2.376144   -2.225627    2.699346
     25          6           0        2.695972   -0.947673    3.151534
     26          9           0        2.908936   -0.757533    4.467961
     27          6           0        2.807631    0.137178    2.289521
     28          6           0        2.574395   -0.065936    0.931027
     29          1           0        1.570467    0.324061   -4.849443
     30          1           0        0.362336    2.149858   -3.329874
     31          1           0       -0.488562    0.599262   -3.548913
     32          1           0        1.374830    1.460395   -1.308209
     33          1           0        0.844190    2.965559   -0.418054
     34          1           0        0.303775    4.662351    1.205566
     35          1           0       -1.650463    4.407952    2.743308
     36          1           0       -3.075840    2.388928    2.578828
     37          1           0       -3.622135    0.285260    1.548074
     38          1           0       -4.263036   -1.800827    0.534515
     39          1           0       -3.884515   -3.602717   -1.122365
     40          1           0       -1.910765   -3.475346   -2.651437
     41          1           0       -0.359115   -1.630160   -2.535932
     42          1           0        1.926363   -3.396442    0.945467
     43          1           0        2.304628   -3.042844    3.409531
     44          1           0        3.071502    1.112363    2.684490
     45          1           0        2.681327    0.772700    0.251791
 ---------------------------------------------------------------------

 SCF Done:  E(RB3LYP) =  -1209.31797943     A.U. after   16 cycles

 Excitation energies and oscillator strengths:

 Excited state symmetry could not be determined.
 Excited State   1:      Triplet-?Sym    1.7349 eV  714.66 nm  f=0.0000  <S**2>=2.000
      91 ->102        -0.11039
      96 -> 97         0.69750
      96 <- 97         0.13741
 This state for optimization and/or second-order correction.
 Total Energy, E(TD-HF/TD-DFT) =  -1209.25422417
 Copying the excited state density for this state as the 1-particle RhoCI density.

 Excited state symmetry could not be determined.
 Excited State   2:      Triplet-?Sym    2.5578 eV  484.74 nm  f=0.0000  <S**2>=2.000
      94 -> 98         0.12265
      95 -> 98         0.61723
      95 ->101        -0.25935

 Excited state symmetry could not be determined.
 Excited State   3:      Singlet-?Sym    3.0903 eV  401.21 nm  f=0.0062  <S**2>=0.000
      96 -> 97         0.21523
      96 -> 98         0.66364

 Excited state symmetry could not be determined.
 Excited State   4:      Singlet-?Sym    3.1647 eV  391.78 nm  f=0.0789  <S**2>=0.000
      96 -> 97         0.66639
      96 -> 98        -0.21533

 Alpha  occ. eigenvalues --  -24.71046 -19.12975 -14.37652 -14.37091 -10.28113
 Alpha  occ. eigenvalues --  -10.27460 -10.23185 -10.22204 -10.21902 -10.21185
 Alpha  occ. eigenvalues --  -10.21024 -10.20963 -10.20761 -10.20410 -10.20317
 Alpha  occ. eigenvalues --  -10.20307 -10.20265 -10.20186 -10.20117 -10.19888
 Alpha  occ. eigenvalues --  -10.19804 -10.19735 -10.19637 -10.19562 -10.19488
 Alpha  occ. eigenvalues --  -10.19401 -10.19353 -10.19055  -1.22259  -1.03494
 Alpha  occ. eigenvalues --   -1.01875  -0.88646  -0.86860  -0.85260  -0.82481
 Alpha  occ. eigenvalues --   -0.81805  -0.80115  -0.76868  -0.76254  -0.75988
 Alpha  occ. eigenvalues --   -0.75494  -0.74234  -0.70639  -0.66172  -0.65240
 Alpha  occ. eigenvalues --   -0.63735  -0.63056  -0.62121  -0.60607  -0.59528
 Alpha  occ. eigenvalues --   -0.58616  -0.55041  -0.54467  -0.53558  -0.53428
 Alpha  occ. eigenvalues --   -0.52332  -0.49949  -0.49482  -0.49146  -0.47146
 Alpha  occ. eigenvalues --   -0.47052  -0.46679  -0.46374  -0.45429  -0.44955
 Alpha  occ. eigenvalues --   -0.44360  -0.43801  -0.43658  -0.42648  -0.41635
 Alpha  occ. eigenvalues --   -0.41332  -0.41065  -0.40335  -0.39969  -0.39351
 Alpha  occ. eigenvalues --   -0.38864  -0.38452  -0.38241  -0.38035  -0.36675
 Alpha  occ. eigenvalues --   -0.36260  -0.35089  -0.34848  -0.34510  -0.33836
 Alpha  occ. eigenvalues --   -0.32830  -0.30638  -0.30098  -0.28515  -0.26624
 Alpha  occ. eigenvalues --   -0.25907  -0.25236  -0.24486  -0.24358  -0.22303
 Alpha  occ. eigenvalues --   -0.19729
 Alpha virt. eigenvalues --   -0.06930  -0.06147  -0.01868  -0.01317  -0.00660
 Alpha virt. eigenvalues --    0.00224   0.03340   0.05841   0.05914   0.07490
 Alpha virt. eigenvalues --    0.08392   0.09462   0.10044   0.10557   0.12442

 Mulliken charges:
               1
     1  O   -0.460690
     2  C    0.365288
     3  C    0.197766
     4  N   -0.260689
     5  N   -0.407853
     6  C   -0.143885
     7  C   -0.275157
     8  C    0.036916
     9  C    0.074797
    10  C   -0.204693
    11  C   -0.135022
    12  C   -0.139980
    13  C   -0.182170
    14  C    0.155382
    15  C   -0.302898
    16  C    0.163271
    17  C   -0.186550
    18  C   -0.137389
    19  C   -0.141514
    20  C   -0.206334
    21  C    0.066227
    22  C    0.077284
    23  C   -0.153333
    24  C   -0.199689
    25  C    0.390081
    26  F   -0.291602
    27  C   -0.201331
    28  C   -0.165415
    29  H    0.333114
    30  H    0.162796
    31  H    0.160027
    32  H    0.164507
    33  H    0.133022
    34  H    0.131709
    35  H    0.133803
    36  H    0.133503
    37  H    0.132251
    38  H    0.131950
    39  H    0.133631
    40  H    0.139053
    41  H    0.163070
    42  H    0.170039
    43  H    0.152722
    44  H    0.151414
    45  H    0.142571
 Sum of Mulliken charges =  -0.00000

 Dipole moment (field-independent basis, Debye):
    X=             -2.9532    Y=              3.0863    Z=              0.1779  Tot=              4.2753
 Quadrupole moment (field-independent basis, Debye-Ang):
   XX=           -160.5554   YY=           -152.4888   ZZ=           -151.5752
   XY=             12.3733   XZ=              1.8088   YZ=             -4.1771

 Normal termination of Gaussian 16 at Fri Nov  4 20:55:46 2022.
