 Gaussian 16, Revision B.01,
 Gaussian 16:  ES64L-G16RevB.01 20-Dec-2017

 -----------------------------
 #p b3lyp/6-31g(d) opt SCF=XQC
 -----------------------------

 ------------------------------
 Gaussian input prepared by ASE
 ------------------------------
 Symbolic Z-matrix:
 Charge =  0 Multiplicity = 1

 SCF Done:  E(RB3LYP) =  -1209.29746246     A.U. after   17 cycles
 SCF Done:  E(RB3LYP) =  -1209.30812315     A.U. after   16 cycles
 SCF Done:  E(RB3LYP) =  -1209.30653469     A.U. after   16 cycles
 SCF Done:  E(RB3LYP) =  -1209.31292407     A.U. after   13 cycles
 SCF Done:  E(RB3LYP) =  -1209.31440681     A.U. after   13 cycles
 SCF Done:  E(RB3LYP) =  -1209.31612128     A.U. after   13 cycles
 SCF Done:  E(RB3LYP) =  -1209.31729790     A.U. after   15 cycles
 SCF Done:  E(RB3LYP) =  -1209.31773444     A.U. after   13 cycles
 SCF Done:  E(RB3LYP) =  -1209.31772778     A.U. after   13 cycles
 SCF Done:  E(RB3LYP) =  -1209.31787093     A.U. after   12 cycles
 SCF Done:  E(RB3LYP) =  -1209.31795806     A.U. after   11 cycles
 SCF Done:  E(RB3LYP) =  -1209.31797690     A.U. after   10 cycles
 SCF Done:  E(RB3LYP) =  -1209.31798178     A.U. after   10 cycles
 SCF Done:  E(RB3LYP) =  -1209.31798297     A.U. after   10 cycles
 SCF Done:  E(RB3LYP) =  -1209.31798370     A.U. after   10 cycles
 SCF Done:  E(RB3LYP) =  -1209.31798376     A.U. after    8 cycles
 Optimization completed.
    -- Stationary point found.

                         Standard orientation:
 ---------------------------------------------------------------------
 Center     Atomic      Atomic             Coordinates (Angstroms)
 Number     Number       Type             X           Y           Z
 ---------------------------------------------------------------------
      1          8           0        0.439238   -3.528920    0.330668
      2          6           0        0.618478   -2.466539   -0.251340
      3          6           0       -0.352616   -2.031122   -1.306337
      4          7           0       -0.886808   -2.933476   -2.063185
      5          7           0       -1.733287   -2.333348   -2.963463
      6          6           0       -2.115068   -0.995173   -2.474763
      7          6           0       -0.858931   -0.618148   -1.647949
      8          6           0       -1.084559    0.407023   -0.545474
      9          6           0       -0.654191    1.746813   -0.752758
     10          6           0       -0.041681    2.217235   -1.964102
     11          6           0        0.367591    3.516808   -2.116285
     12          6           0        0.201484    4.464257   -1.068779
     13          6           0       -0.390975    4.074155    0.099916
     14          6           0       -0.841341    2.730555    0.293205
     15          6           0       -1.470012    2.360348    1.481960
     16          6           0       -1.940804    1.063050    1.688248
     17          6           0       -2.609373    0.720330    2.904630
     18          6           0       -3.088086   -0.542672    3.119389
     19          6           0       -2.914541   -1.535811    2.117201
     20          6           0       -2.273723   -1.248300    0.939170
     21          6           0       -1.751882    0.060217    0.661164
     22          6           0        1.782782   -1.597622    0.104078
     23          6           0        2.386212   -1.794822    1.357737
     24          6           0        3.496854   -1.052745    1.740359
     25          6           0        4.013930   -0.120053    0.844452
     26          9           0        5.092376    0.601416    1.206286
     27          6           0        3.457587    0.087902   -0.412399
     28          6           0        2.335336   -0.654301   -0.774126
     29          1           0       -2.476358   -2.966606   -3.238809
     30          1           0       -2.293545   -0.308745   -3.306376
     31          1           0       -3.013977   -1.025599   -1.842323
     32          1           0       -0.131605   -0.211287   -2.355507
     33          1           0        0.090572    1.546103   -2.804605
     34          1           0        0.821075    3.829049   -3.053245
     35          1           0        0.537378    5.488249   -1.205277
     36          1           0       -0.539118    4.783008    0.911088
     37          1           0       -1.607142    3.104760    2.263538
     38          1           0       -2.730126    1.496243    3.656877
     39          1           0       -3.596031   -0.791416    4.046959
     40          1           0       -3.289557   -2.541100    2.287795
     41          1           0       -2.154740   -2.043538    0.216492
     42          1           0        1.963619   -2.542746    2.020158
     43          1           0        3.967923   -1.183362    2.709046
     44          1           0        3.901495    0.816097   -1.082692
     45          1           0        1.910691   -0.511047   -1.761679
 ---------------------------------------------------------------------

 The electronic state is 1-A.
 Alpha  occ. eigenvalues --  -24.71046 -19.12975 -14.37651 -14.37091 -10.28113
 Alpha  occ. eigenvalues --  -10.27460 -10.23185 -10.22204 -10.21902 -10.21185
 Alpha  occ. eigenvalues --  -10.21024 -10.20964 -10.20761 -10.20410 -10.20316
 Alpha  occ. eigenvalues --  -10.20307 -10.20265 -10.20186 -10.20117 -10.19888
 Alpha  occ. eigenvalues --  -10.19804 -10.19735 -10.19637 -10.19562 -10.19488
 Alpha  occ. eigenvalues --  -10.19401 -10.19353 -10.19054  -1.22259  -1.03494
 Alpha  occ. eigenvalues --   -1.01875  -0.88646  -0.86860  -0.85260  -0.82481
 Alpha  occ. eigenvalues --   -0.81805  -0.80115  -0.76868  -0.76254  -0.75988
 Alpha  occ. eigenvalues --   -0.75494  -0.74234  -0.70639  -0.66172  -0.65240
 Alpha  occ. eigenvalues --   -0.63735  -0.63055  -0.62121  -0.60607  -0.59528
 Alpha  occ. eigenvalues --   -0.58616  -0.55041  -0.54467  -0.53558  -0.53428
 Alpha  occ. eigenvalues --   -0.52332  -0.49949  -0.49482  -0.49146  -0.47146
 Alpha  occ. eigenvalues --   -0.47052  -0.46679  -0.46374  -0.45429  -0.44955
 Alpha  occ. eigenvalues --   -0.44360  -0.43801  -0.43658  -0.42648  -0.41635
 Alpha  occ. eigenvalues --   -0.41333  -0.41065  -0.40335  -0.39969  -0.39351
 Alpha  occ. eigenvalues --   -0.38864  -0.38452  -0.38241  -0.38035  -0.36675
 Alpha  occ. eigenvalues --   -0.36260  -0.35089  -0.34848  -0.34510  -0.33836
 Alpha  occ. eigenvalues --   -0.32830  -0.30638  -0.30098  -0.28515  -0.26624
 Alpha  occ. eigenvalues --   -0.25907  -0.25236  -0.24486  -0.24358  -0.22303
 Alpha  occ. eigenvalues --   -0.19729
 Alpha virt. eigenvalues --   -0.06930  -0.06147  -0.01868  -0.01317  -0.00660
 Alpha virt. eigenvalues --    0.00224   0.03340   0.05841   0.05914   0.07490
 Alpha virt. eigenvalues --    0.08392   0.09462   0.10044   0.10557   0.12442

 Mulliken charges:
               1
     1  O   -0.460692
     2  C    0.365282
     3  C    0.197741
     4  N   -0.260687
     5  N   -0.407849
     6  C   -0.143889
     7  C   -0.275098
     8  C    0.036826
     9  C    0.074814
    10  C   -0.204692
    11  C   -0.135025
    12  C   -0.139984
    13  C   -0.182166
    14  C    0.155357
    15  C   -0.302877
    16  C    0.163248
    17  C   -0.186542
    18  C   -0.137386
    19  C   -0.141520
    20  C   -0.206336
    21  C    0.066270
    22  C    0.077316
    23  C   -0.153329
    24  C   -0.199699
    25  C    0.390083
    26  F   -0.291603
    27  C   -0.201325
    28  C   -0.165423
    29  H    0.333113
    30  H    0.162796
    31  H    0.160026
    32  H    0.164511
    33  H    0.133025
    34  H    0.131710
    35  H    0.133804
    36  H    0.133502
    37  H    0.132252
    38  H    0.131950
    39  H    0.133630
    40  H    0.139055
    41  H    0.163069
    42  H    0.170037
    43  H    0.152722
    44  H    0.151412
    45  H    0.142568
 Sum of Mulliken charges =  -0.00000

 Dipole moment (field-independent basis, Debye):
    X=             -2.0273    Y=              3.6841    Z=             -0.7727  Tot=              4.2754
 Quadrupole moment (field-independent basis, Debye-Ang):
   XX=           -153.9232   YY=           -165.2869   ZZ=           -143.2209
   XY=              6.3934   XZ=             -0.9641   YZ=             -1.7924

 Normal termination of Gaussian 16 at Fri Nov  4 22:27:49 2022.
