 Gaussian 16, Revision B.01,
 Gaussian 16:  ES64L-G16RevB.01 20-Dec-2017

 -------------------------------------------------------------------
 #p b3lyp/6-31g(d) 6D 10F nosymm GFInput td=(50-50,nstate=2) SCF=XQC
 -------------------------------------------------------------------

 ------------------------------
 Gaussian input prepared by ASE
 ------------------------------
 Symbolic Z-matrix:
 Charge =  0 Multiplicity = 1

                          Input orientation:
 ---------------------------------------------------------------------
 Center     Atomic      Atomic             Coordinates (Angstroms)
 Number     Number       Type             X           Y           Z
 ---------------------------------------------------------------------
      1          6           0       -3.716400   -2.531228   -0.339585
      2          6           0       -4.236435   -1.608907    0.753892
      3          8           0       -5.402966   -1.704609    1.121437
      4          7           0       -3.382597   -0.683122    1.340879
      5          6           0       -4.059328    0.387641    2.089544
      6          6           0       -4.558825    1.460978    1.106913
      7          6           0       -3.595447    1.728332   -0.042812
      8          6           0       -3.877841    2.760793   -0.944260
      9          6           0       -3.044436    3.027818   -2.029350
     10          6           0       -1.903681    2.251796   -2.228432
     11          6           0       -1.609318    1.218067   -1.339203
     12          6           0       -2.442652    0.940642   -0.249454
     13          6           0       -2.123946   -0.151552    0.773778
     14          6           0       -1.084473   -1.203447    0.358312
     15          6           0        0.345162   -0.684043    0.564137
     16          8           0        0.638935    0.089659    1.464261
     17          7           0        1.260163   -1.203411   -0.323247
     18          6           0        2.654746   -1.005571   -0.356183
     19          6           0        3.374961   -1.709582   -1.366825
     20          7           0        4.671241   -1.642493   -1.543840
     21          6           0        5.391905   -0.841865   -0.702464
     22          6           0        6.796378   -0.756969   -0.878983
     23          6           0        7.553993    0.040109   -0.049755
     24          6           0        6.938872    0.783714    0.988169
     25          6           0        5.577066    0.720098    1.182305
     26          6           0        4.767851   -0.092739    0.344200
     27          6           0        3.362934   -0.190162    0.504376
     28          1           0       -2.909953   -3.182065    0.010137
     29          1           0       -4.556598   -3.151663   -0.653350
     30          1           0       -3.352171   -1.963685   -1.202741
     31          1           0       -3.338561    0.803826    2.800804
     32          1           0       -4.889872   -0.044600    2.645306
     33          1           0       -5.516921    1.124317    0.690087
     34          1           0       -4.767249    2.394315    1.645710
     35          1           0       -4.769554    3.364874   -0.789077
     36          1           0       -3.284533    3.837446   -2.713227
     37          1           0       -1.243818    2.447348   -3.069247
     38          1           0       -0.711109    0.629198   -1.501141
     39          1           0       -1.638596    0.340915    1.625471
     40          1           0       -1.223664   -1.562803   -0.664955
     41          1           0       -1.194547   -2.065047    1.028192
     42          1           0        0.900449   -1.840071   -1.022646
     43          1           0        2.822868   -2.357290   -2.053143
     44          1           0        7.240865   -1.337116   -1.681692
     45          1           0        8.629841    0.102650   -0.187995
     46          1           0        7.549922    1.408158    1.634196
     47          1           0        5.102573    1.289506    1.977678
     48          1           0        2.854768    0.361845    1.283822
 ---------------------------------------------------------------------

 SCF Done:  E(RB3LYP) =  -1165.72854025     A.U. after   15 cycles

 Excitation energies and oscillator strengths:

 Excited state symmetry could not be determined.
 Excited State   1:      Triplet-?Sym    2.7266 eV  454.73 nm  f=0.0000  <S**2>=2.000
      92 -> 96         0.19309
      92 -> 97        -0.15513
      95 -> 96         0.63788
 This state for optimization and/or second-order correction.
 Total Energy, E(TD-HF/TD-DFT) =  -1165.62834074
 Copying the excited state density for this state as the 1-particle RhoCI density.

 Excited state symmetry could not be determined.
 Excited State   2:      Triplet-?Sym    3.5974 eV  344.65 nm  f=0.0000  <S**2>=2.000
      92 -> 96         0.61705
      92 -> 97        -0.17854
      95 -> 96        -0.24626

 Excited state symmetry could not be determined.
 Excited State   3:      Singlet-?Sym    4.1382 eV  299.61 nm  f=0.0859  <S**2>=0.000
      92 -> 96        -0.13638
      92 -> 97        -0.15351
      95 -> 96         0.64604
      95 -> 97        -0.16394

 Excited state symmetry could not be determined.
 Excited State   4:      Singlet-?Sym    4.3979 eV  281.91 nm  f=0.0019  <S**2>=0.000
      92 -> 96         0.53570
      95 -> 96         0.21846
      95 -> 97         0.38642

 Alpha  occ. eigenvalues --  -19.14121 -19.11020 -14.40007 -14.35959 -14.33809
 Alpha  occ. eigenvalues --  -10.31522 -10.28661 -10.25253 -10.24271 -10.23766
 Alpha  occ. eigenvalues --  -10.22622 -10.22065 -10.21552 -10.20867 -10.20608
 Alpha  occ. eigenvalues --  -10.20333 -10.20208 -10.19889 -10.19788 -10.19756
 Alpha  occ. eigenvalues --  -10.19592 -10.19337 -10.19309 -10.19282 -10.19254
 Alpha  occ. eigenvalues --  -10.19226 -10.19112  -1.06082  -1.03084  -0.96861
 Alpha  occ. eigenvalues --   -0.94285  -0.93878  -0.85842  -0.85122  -0.81787
 Alpha  occ. eigenvalues --   -0.79990  -0.78133  -0.76100  -0.75019  -0.74667
 Alpha  occ. eigenvalues --   -0.73731  -0.71966  -0.67969  -0.66196  -0.64322
 Alpha  occ. eigenvalues --   -0.63471  -0.60973  -0.60154  -0.59270  -0.59027
 Alpha  occ. eigenvalues --   -0.56174  -0.53504  -0.52736  -0.51688  -0.51084
 Alpha  occ. eigenvalues --   -0.50542  -0.49397  -0.48045  -0.47433  -0.47054
 Alpha  occ. eigenvalues --   -0.45858  -0.45370  -0.44746  -0.44506  -0.43892
 Alpha  occ. eigenvalues --   -0.43493  -0.43106  -0.42777  -0.42140  -0.41472
 Alpha  occ. eigenvalues --   -0.41275  -0.41011  -0.40521  -0.40057  -0.38973
 Alpha  occ. eigenvalues --   -0.38490  -0.37809  -0.36773  -0.36440  -0.35925
 Alpha  occ. eigenvalues --   -0.35672  -0.35330  -0.34760  -0.33903  -0.32934
 Alpha  occ. eigenvalues --   -0.32831  -0.29138  -0.27992  -0.26079  -0.25634
 Alpha  occ. eigenvalues --   -0.24941  -0.24558  -0.24298  -0.23336  -0.22542
 Alpha virt. eigenvalues --   -0.05654  -0.02707  -0.00860  -0.00646   0.01232
 Alpha virt. eigenvalues --    0.01947   0.02265   0.04674   0.09024   0.09514
 Alpha virt. eigenvalues --    0.09685   0.09747   0.10350   0.11576   0.12141

 Mulliken charges:
               1
     1  C   -0.543212
     2  C    0.584121
     3  O   -0.504303
     4  N   -0.429463
     5  C   -0.161616
     6  C   -0.354718
     7  C    0.115220
     8  C   -0.183632
     9  C   -0.124266
    10  C   -0.135426
    11  C   -0.189828
    12  C    0.130543
    13  C   -0.073123
    14  C   -0.417827
    15  C    0.631633
    16  O   -0.496329
    17  N   -0.734383
    18  C    0.331976
    19  C   -0.010827
    20  N   -0.496086
    21  C    0.235935
    22  C   -0.140163
    23  C   -0.139276
    24  C   -0.131986
    25  C   -0.196429
    26  C    0.151364
    27  C   -0.190703
    28  H    0.162712
    29  H    0.188597
    30  H    0.169471
    31  H    0.150713
    32  H    0.188330
    33  H    0.181470
    34  H    0.153534
    35  H    0.126804
    36  H    0.131501
    37  H    0.130912
    38  H    0.116559
    39  H    0.204474
    40  H    0.153033
    41  H    0.195680
    42  H    0.336592
    43  H    0.131585
    44  H    0.144362
    45  H    0.135720
    46  H    0.136033
    47  H    0.139858
    48  H    0.194865
 Sum of Mulliken charges =  -0.00000

 Dipole moment (field-independent basis, Debye):
    X=              1.6360    Y=              0.5651    Z=             -1.4254  Tot=              2.2422
 Quadrupole moment (field-independent basis, Debye-Ang):
   XX=           -169.8054   YY=           -151.1772   ZZ=           -155.3470
   XY=             -5.5022   XZ=              9.7951   YZ=              3.9892

 Normal termination of Gaussian 16 at Sat Nov  5 09:46:18 2022.
