 Gaussian 16, Revision B.01,
 Gaussian 16:  ES64L-G16RevB.01 20-Dec-2017

 -----------------------------
 #p b3lyp/6-31g(d) opt SCF=XQC
 -----------------------------

 ------------------------------
 Gaussian input prepared by ASE
 ------------------------------
 Symbolic Z-matrix:
 Charge =  0 Multiplicity = 1

 SCF Done:  E(RB3LYP) =  -1165.72226618     A.U. after   15 cycles
 SCF Done:  E(RB3LYP) =  -1165.72780696     A.U. after   12 cycles
 SCF Done:  E(RB3LYP) =  -1165.72801640     A.U. after   12 cycles
 SCF Done:  E(RB3LYP) =  -1165.72830110     A.U. after   12 cycles
 SCF Done:  E(RB3LYP) =  -1165.72845015     A.U. after   11 cycles
 SCF Done:  E(RB3LYP) =  -1165.72849432     A.U. after   11 cycles
 SCF Done:  E(RB3LYP) =  -1165.72852500     A.U. after   10 cycles
 SCF Done:  E(RB3LYP) =  -1165.72853545     A.U. after   10 cycles
 SCF Done:  E(RB3LYP) =  -1165.72853905     A.U. after   10 cycles
 SCF Done:  E(RB3LYP) =  -1165.72854072     A.U. after    8 cycles
 SCF Done:  E(RB3LYP) =  -1165.72854110     A.U. after    7 cycles
 SCF Done:  E(RB3LYP) =  -1165.72854120     A.U. after    7 cycles
 SCF Done:  E(RB3LYP) =  -1165.72854123     A.U. after    7 cycles
 Optimization completed.
    -- Stationary point found.

                         Standard orientation:
 ---------------------------------------------------------------------
 Center     Atomic      Atomic             Coordinates (Angstroms)
 Number     Number       Type             X           Y           Z
 ---------------------------------------------------------------------
      1          6           0       -3.696582   -2.403281   -1.428225
      2          6           0       -4.325517   -1.934923   -0.123661
      3          8           0       -5.497085   -2.209318    0.115459
      4          7           0       -3.563912   -1.221010    0.793377
      5          6           0       -4.344735   -0.504184    1.813903
      6          6           0       -4.875657    0.811954    1.219754
      7          6           0       -3.885345    1.502736    0.290483
      8          6           0       -4.200483    2.764034   -0.227344
      9          6           0       -3.342429    3.425908   -1.104244
     10          6           0       -2.142971    2.823061   -1.479801
     11          6           0       -1.815298    1.565332   -0.973122
     12          6           0       -2.672753    0.892114   -0.095336
     13          6           0       -2.322429   -0.464777    0.519145
     14          6           0       -1.195520   -1.258442   -0.158920
     15          6           0        0.184440   -0.767310    0.299885
     16          8           0        0.385157   -0.331225    1.424466
     17          7           0        1.170212   -0.906968   -0.650466
     18          6           0        2.547764   -0.638578   -0.526354
     19          6           0        3.357490   -0.919776   -1.666973
     20          7           0        4.652287   -0.730302   -1.728445
     21          6           0        5.279089   -0.227127   -0.622909
     22          6           0        6.680457   -0.015559   -0.671060
     23          6           0        7.344849    0.490299    0.424213
     24          6           0        6.635952    0.804801    1.610452
     25          6           0        5.274880    0.609421    1.685020
     26          6           0        4.560533    0.089134    0.572831
     27          6           0        3.160288   -0.128673    0.601385
     28          1           0       -2.862318   -3.092003   -1.267238
     29          1           0       -4.477452   -2.922476   -1.985000
     30          1           0       -3.336489   -1.558533   -2.025333
     31          1           0       -3.685531   -0.317896    2.667925
     32          1           0       -5.165975   -1.141362    2.138058
     33          1           0       -5.789428    0.588236    0.654064
     34          1           0       -5.171258    1.494940    2.026607
     35          1           0       -5.137889    3.233049    0.064964
     36          1           0       -3.609117    4.406216   -1.489869
     37          1           0       -1.463265    3.325984   -2.162219
     38          1           0       -0.872191    1.113232   -1.266250
     39          1           0       -1.909128   -0.266577    1.515824
     40          1           0       -1.265810   -1.255649   -1.250083
     41          1           0       -1.273622   -2.300736    0.173846
     42          1           0        0.885713   -1.285871   -1.544549
     43          1           0        2.881468   -1.323345   -2.564691
     44          1           0        7.197924   -0.265137   -1.592155
     45          1           0        8.418620    0.651052    0.383652
     46          1           0        7.174064    1.203218    2.466234
     47          1           0        4.728564    0.849868    2.593707
     48          1           0        2.582300    0.099115    1.487117
 ---------------------------------------------------------------------

 The electronic state is 1-A.
 Alpha  occ. eigenvalues --  -19.14120 -19.11020 -14.40007 -14.35958 -14.33809
 Alpha  occ. eigenvalues --  -10.31522 -10.28661 -10.25253 -10.24271 -10.23766
 Alpha  occ. eigenvalues --  -10.22622 -10.22065 -10.21552 -10.20867 -10.20608
 Alpha  occ. eigenvalues --  -10.20333 -10.20209 -10.19889 -10.19788 -10.19756
 Alpha  occ. eigenvalues --  -10.19592 -10.19337 -10.19309 -10.19282 -10.19254
 Alpha  occ. eigenvalues --  -10.19226 -10.19112  -1.06082  -1.03084  -0.96861
 Alpha  occ. eigenvalues --   -0.94285  -0.93878  -0.85842  -0.85122  -0.81787
 Alpha  occ. eigenvalues --   -0.79990  -0.78133  -0.76100  -0.75019  -0.74667
 Alpha  occ. eigenvalues --   -0.73731  -0.71966  -0.67969  -0.66196  -0.64322
 Alpha  occ. eigenvalues --   -0.63471  -0.60973  -0.60154  -0.59270  -0.59027
 Alpha  occ. eigenvalues --   -0.56174  -0.53504  -0.52736  -0.51688  -0.51084
 Alpha  occ. eigenvalues --   -0.50542  -0.49397  -0.48045  -0.47433  -0.47054
 Alpha  occ. eigenvalues --   -0.45858  -0.45370  -0.44746  -0.44506  -0.43892
 Alpha  occ. eigenvalues --   -0.43493  -0.43106  -0.42777  -0.42140  -0.41472
 Alpha  occ. eigenvalues --   -0.41275  -0.41011  -0.40521  -0.40057  -0.38973
 Alpha  occ. eigenvalues --   -0.38490  -0.37809  -0.36773  -0.36440  -0.35925
 Alpha  occ. eigenvalues --   -0.35672  -0.35330  -0.34760  -0.33903  -0.32934
 Alpha  occ. eigenvalues --   -0.32831  -0.29138  -0.27992  -0.26079  -0.25634
 Alpha  occ. eigenvalues --   -0.24941  -0.24558  -0.24298  -0.23336  -0.22542
 Alpha virt. eigenvalues --   -0.05654  -0.02707  -0.00860  -0.00646   0.01232
 Alpha virt. eigenvalues --    0.01947   0.02265   0.04674   0.09024   0.09514
 Alpha virt. eigenvalues --    0.09685   0.09747   0.10350   0.11576   0.12141

 Mulliken charges:
               1
     1  C   -0.543225
     2  C    0.584132
     3  O   -0.504309
     4  N   -0.429457
     5  C   -0.161623
     6  C   -0.354708
     7  C    0.115151
     8  C   -0.183624
     9  C   -0.124268
    10  C   -0.135421
    11  C   -0.189804
    12  C    0.130560
    13  C   -0.073088
    14  C   -0.417869
    15  C    0.631639
    16  O   -0.496331
    17  N   -0.734360
    18  C    0.331967
    19  C   -0.010833
    20  N   -0.496083
    21  C    0.235926
    22  C   -0.140164
    23  C   -0.139273
    24  C   -0.131990
    25  C   -0.196433
    26  C    0.151379
    27  C   -0.190697
    28  H    0.162714
    29  H    0.188601
    30  H    0.169477
    31  H    0.150712
    32  H    0.188331
    33  H    0.181473
    34  H    0.153538
    35  H    0.126802
    36  H    0.131499
    37  H    0.130910
    38  H    0.116554
    39  H    0.204467
    40  H    0.153036
    41  H    0.195683
    42  H    0.336590
    43  H    0.131585
    44  H    0.144362
    45  H    0.135721
    46  H    0.136033
    47  H    0.139858
    48  H    0.194863
 Sum of Mulliken charges =  -0.00000

 Dipole moment (field-independent basis, Debye):
    X=              1.6515    Y=              1.0986    Z=             -1.0455  Tot=              2.2422
 Quadrupole moment (field-independent basis, Debye-Ang):
   XX=           -170.3348   YY=           -155.0130   ZZ=           -151.4333
   XY=             -9.6622   XZ=              6.1519   YZ=              4.0968

 Normal termination of Gaussian 16 at Fri Nov  4 22:16:11 2022.
