 Gaussian 16, Revision B.01,
 Gaussian 16:  ES64L-G16RevB.01 20-Dec-2017

 -----------------------------
 #p b3lyp/6-31g(d) opt SCF=XQC
 -----------------------------

 ------------------------------
 Gaussian input prepared by ASE
 ------------------------------
 Symbolic Z-matrix:
 Charge =  0 Multiplicity = 1

 SCF Done:  E(RB3LYP) =  -1228.45004156     A.U. after   15 cycles
 SCF Done:  E(RB3LYP) =  -1228.45779797     A.U. after   12 cycles
 SCF Done:  E(RB3LYP) =  -1228.45810487     A.U. after   12 cycles
 SCF Done:  E(RB3LYP) =  -1228.45830813     A.U. after   12 cycles
 SCF Done:  E(RB3LYP) =  -1228.45831334     A.U. after   12 cycles
 SCF Done:  E(RB3LYP) =  -1228.45843716     A.U. after   11 cycles
 SCF Done:  E(RB3LYP) =  -1228.45855011     A.U. after   12 cycles
 SCF Done:  E(RB3LYP) =  -1228.45864351     A.U. after   11 cycles
 SCF Done:  E(RB3LYP) =  -1228.45879094     A.U. after   13 cycles
 SCF Done:  E(RB3LYP) =  -1228.45887536     A.U. after   11 cycles
 SCF Done:  E(RB3LYP) =  -1228.45893690     A.U. after   10 cycles
 SCF Done:  E(RB3LYP) =  -1228.45893357     A.U. after   10 cycles
 SCF Done:  E(RB3LYP) =  -1228.45893899     A.U. after   11 cycles
 SCF Done:  E(RB3LYP) =  -1228.45894041     A.U. after   10 cycles
 SCF Done:  E(RB3LYP) =  -1228.45894405     A.U. after   10 cycles
 SCF Done:  E(RB3LYP) =  -1228.45894632     A.U. after   11 cycles
 SCF Done:  E(RB3LYP) =  -1228.45894711     A.U. after    8 cycles
 SCF Done:  E(RB3LYP) =  -1228.45894736     A.U. after    8 cycles
 SCF Done:  E(RB3LYP) =  -1228.45894762     A.U. after    9 cycles
 SCF Done:  E(RB3LYP) =  -1228.45894762     A.U. after    7 cycles
 Optimization completed.
    -- Stationary point found.

                         Standard orientation:
 ---------------------------------------------------------------------
 Center     Atomic      Atomic             Coordinates (Angstroms)
 Number     Number       Type             X           Y           Z
 ---------------------------------------------------------------------
      1          8           0       -6.021471   -0.946881    1.169743
      2          6           0       -6.012132   -1.160572   -0.015205
      3          8           0       -4.971039   -1.081283   -0.871597
      4          6           0       -3.663874   -0.725555   -0.521176
      5          6           0       -2.774248   -0.738332   -1.598864
      6          6           0       -1.443679   -0.398419   -1.398348
      7          6           0       -0.953252   -0.054638   -0.123473
      8          6           0        0.546773    0.334586    0.021402
      9          6           0        0.787487    1.454648   -1.034776
     10          6           0        1.777925    1.391956   -2.021606
     11          6           0        1.928272    2.417357   -2.962118
     12          6           0        1.091276    3.529149   -2.937420
     13          6           0        0.089377    3.602793   -1.966019
     14          6           0       -0.062789    2.576745   -1.037253
     15          6           0        0.869222    0.830552    1.462696
     16          6           0        0.821145   -0.096772    2.521026
     17          6           0        1.114028    0.277098    3.829727
     18          6           0        1.485758    1.592872    4.118899
     19          6           0        1.560108    2.517495    3.081384
     20          6           0        1.254783    2.140828    1.768432
     21          6           0        1.475752   -0.890401   -0.220240
     22          6           0        1.023855   -2.158239   -0.609339
     23          6           0        1.899843   -3.230209   -0.785749
     24          6           0        3.267432   -3.058210   -0.573976
     25          8           0        4.085928   -4.137727   -0.762463
     26          6           0        3.744006   -1.805053   -0.172334
     27          6           0        2.855984   -0.749124    0.007592
     28          6           0       -1.872828   -0.039833    0.928678
     29          6           0       -3.222717   -0.369755    0.750247
     30          1           0       -6.891757   -1.466268   -0.600815
     31          1           0       -3.142210   -1.005623   -2.584409
     32          1           0       -0.771736   -0.390576   -2.250935
     33          1           0        2.438393    0.535052   -2.074973
     34          1           0        2.704987    2.334836   -3.718196
     35          1           0        1.208850    4.324954   -3.668067
     36          1           0       -0.582187    4.457013   -1.936211
     37          1           0       -0.860878    2.640913   -0.303406
     38          1           0        0.558703   -1.129495    2.311133
     39          1           0        1.060755   -0.463572    4.623528
     40          1           0        1.721335    1.886767    5.138255
     41          1           0        1.860428    3.542567    3.283221
     42          1           0        1.331356    2.883226    0.983424
     43          1           0       -0.032712   -2.333669   -0.771429
     44          1           0        1.530567   -4.206948   -1.082495
     45          1           0        4.999908   -3.876154   -0.570875
     46          1           0        4.807176   -1.657491    0.011257
     47          1           0        3.246990    0.207201    0.342001
     48          1           0       -1.554355    0.242927    1.924446
     49          1           0       -3.905976   -0.344341    1.585950
 ---------------------------------------------------------------------

 The electronic state is 1-A.
 Alpha  occ. eigenvalues --  -19.21699 -19.18032 -19.15525 -10.32897 -10.25798
 Alpha  occ. eigenvalues --  -10.24955 -10.22548 -10.20122 -10.19841 -10.19807
 Alpha  occ. eigenvalues --  -10.19529 -10.19367 -10.19326 -10.19142 -10.19114
 Alpha  occ. eigenvalues --  -10.19052 -10.19048 -10.18883 -10.18836 -10.18803
 Alpha  occ. eigenvalues --  -10.18793 -10.18785 -10.18756 -10.18705 -10.18592
 Alpha  occ. eigenvalues --  -10.18512 -10.18485 -10.18419 -10.18370  -1.11845
 Alpha  occ. eigenvalues --   -1.06020  -1.03870  -0.87854  -0.85474  -0.84760
 Alpha  occ. eigenvalues --   -0.84650  -0.80350  -0.75904  -0.75315  -0.74555
 Alpha  occ. eigenvalues --   -0.74521  -0.74126  -0.73607  -0.73246  -0.68929
 Alpha  occ. eigenvalues --   -0.65460  -0.62566  -0.61720  -0.60856  -0.59877
 Alpha  occ. eigenvalues --   -0.59486  -0.59118  -0.58029  -0.56023  -0.54431
 Alpha  occ. eigenvalues --   -0.53118  -0.51515  -0.50853  -0.50207  -0.48918
 Alpha  occ. eigenvalues --   -0.46994  -0.46746  -0.46568  -0.45843  -0.44865
 Alpha  occ. eigenvalues --   -0.44721  -0.44375  -0.44138  -0.43716  -0.42917
 Alpha  occ. eigenvalues --   -0.42412  -0.42104  -0.41719  -0.41562  -0.40875
 Alpha  occ. eigenvalues --   -0.40309  -0.39308  -0.38408  -0.37820  -0.37778
 Alpha  occ. eigenvalues --   -0.36234  -0.35880  -0.35213  -0.35006  -0.34775
 Alpha  occ. eigenvalues --   -0.34062  -0.33726  -0.33635  -0.33100  -0.32266
 Alpha  occ. eigenvalues --   -0.31969  -0.28596  -0.25785  -0.25453  -0.24958
 Alpha  occ. eigenvalues --   -0.24825  -0.24551  -0.24294  -0.22864  -0.21494
 Alpha virt. eigenvalues --   -0.02459  -0.01638  -0.00686  -0.00469   0.00226
 Alpha virt. eigenvalues --    0.00612   0.00851   0.01634   0.02338   0.06634
 Alpha virt. eigenvalues --    0.09594   0.09979   0.10142   0.10450   0.12724

 Mulliken charges:
               1
     1  O   -0.400037
     2  C    0.387006
     3  O   -0.474826
     4  C    0.329654
     5  C   -0.174917
     6  C   -0.177428
     7  C    0.135055
     8  C   -0.165696
     9  C    0.124461
    10  C   -0.193007
    11  C   -0.134920
    12  C   -0.127252
    13  C   -0.134456
    14  C   -0.171455
    15  C    0.124634
    16  C   -0.171746
    17  C   -0.134531
    18  C   -0.127154
    19  C   -0.135142
    20  C   -0.193256
    21  C    0.123104
    22  C   -0.198444
    23  C   -0.167201
    24  C    0.354401
    25  O   -0.643304
    26  C   -0.198593
    27  C   -0.176686
    28  C   -0.207942
    29  C   -0.168784
    30  H    0.143006
    31  H    0.145865
    32  H    0.150062
    33  H    0.146420
    34  H    0.128838
    35  H    0.128616
    36  H    0.130826
    37  H    0.142697
    38  H    0.143392
    39  H    0.131074
    40  H    0.128654
    41  H    0.129211
    42  H    0.147352
    43  H    0.146704
    44  H    0.139792
    45  H    0.407387
    46  H    0.120307
    47  H    0.145440
    48  H    0.155666
    49  H    0.187152
 Sum of Mulliken charges =  -0.00000

 Dipole moment (field-independent basis, Debye):
    X=              2.3318    Y=              0.6847    Z=             -1.0612  Tot=              2.6519
 Quadrupole moment (field-independent basis, Debye-Ang):
   XX=           -152.8159   YY=           -162.5529   ZZ=           -160.1053
   XY=             -0.3539   XZ=              9.8182   YZ=             -0.5758

 1\1\GINC-NODE72\FOpt\RB3LYP\6-31G(d)\C26H20O3\WYKGROUP\04-Nov-2022\0\\
 #p b3lyp/6-31g(d) opt SCF=XQC\\Gaussian input prepared by ASE\\0,1\O,6
 .1221112749,0.3992928989,1.937531469\C,5.6819458018,1.3603733758,2.514
 1005081\O,4.4194248255,1.8393238206,2.4994121866\C,3.3532614177,1.2807
 124552,1.7857844158\C,2.1468591609,1.9645568899,1.9588713907\C,1.00527
 47968,1.5252059022,1.3031908767\C,1.0219581159,0.3871364526,0.47341390
 11\C,-0.2927258732,-0.0344409581,-0.2452217649\C,-0.7848704552,1.24258
 47586,-0.9902016319\C,-2.0581932483,1.7983103043,-0.82123914\C,-2.4342

 Normal termination of Gaussian 16 at Fri Nov  4 23:11:17 2022.
