 Gaussian 16, Revision B.01,
 Gaussian 16:  ES64L-G16RevB.01 20-Dec-2017

 -------------------------------------------------------------------
 #p b3lyp/6-31g(d) 6D 10F nosymm GFInput td=(50-50,nstate=2) SCF=XQC
 -------------------------------------------------------------------

 ------------------------------
 Gaussian input prepared by ASE
 ------------------------------
 Symbolic Z-matrix:
 Charge =  0 Multiplicity = 1

                          Input orientation:
 ---------------------------------------------------------------------
 Center     Atomic      Atomic             Coordinates (Angstroms)
 Number     Number       Type             X           Y           Z
 ---------------------------------------------------------------------
      1          8           0        6.122111    0.399293    1.937531
      2          6           0        5.681946    1.360373    2.514101
      3          8           0        4.419425    1.839324    2.499412
      4          6           0        3.353261    1.280712    1.785784
      5          6           0        2.146859    1.964557    1.958871
      6          6           0        1.005275    1.525206    1.303191
      7          6           0        1.021958    0.387136    0.473414
      8          6           0       -0.292726   -0.034441   -0.245222
      9          6           0       -0.784870    1.242585   -0.990202
     10          6           0       -2.058193    1.798310   -0.821239
     11          6           0       -2.434208    2.964654   -1.497161
     12          6           0       -1.545195    3.602235   -2.357626
     13          6           0       -0.265568    3.067532   -2.529354
     14          6           0        0.108000    1.911823   -1.848677
     15          6           0       -0.047773   -1.213173   -1.234096
     16          6           0        0.282561   -2.476649   -0.707966
     17          6           0        0.498057   -3.575471   -1.535258
     18          6           0        0.369309   -3.448557   -2.921037
     19          6           0        0.021458   -2.212107   -3.456840
     20          6           0       -0.184157   -1.106943   -2.623005
     21          6           0       -1.353188   -0.550093    0.770411
     22          6           0       -1.180118   -0.547682    2.160758
     23          6           0       -2.154758   -1.048240    3.025115
     24          6           0       -3.341972   -1.570919    2.513195
     25          8           0       -4.267835   -2.046826    3.400387
     26          6           0       -3.535018   -1.597068    1.127233
     27          6           0       -2.549356   -1.102062    0.279069
     28          6           0        2.247604   -0.264699    0.312907
     29          6           0        3.415797    0.164584    0.956281
     30          1           0        6.271740    2.019595    3.168087
     31          1           0        2.123407    2.840506    2.599420
     32          1           0        0.082198    2.082229    1.430183
     33          1           0       -2.769674    1.332636   -0.150201
     34          1           0       -3.429547    3.372350   -1.339576
     35          1           0       -1.838101    4.507801   -2.882156
     36          1           0        0.447830    3.556200   -3.188023
     37          1           0        1.113910    1.523120   -1.977706
     38          1           0        0.362191   -2.599877    0.368101
     39          1           0        0.757858   -4.534922   -1.095363
     40          1           0        0.530449   -4.305616   -3.569451
     41          1           0       -0.097007   -2.095724   -4.531141
     42          1           0       -0.462486   -0.161410   -3.072178
     43          1           0       -0.266176   -0.161070    2.595065
     44          1           0       -2.000652   -1.042852    4.099668
     45          1           0       -5.030752   -2.385575    2.906733
     46          1           0       -4.450129   -2.014933    0.710375
     47          1           0       -2.712458   -1.154584   -0.793271
     48          1           0        2.322181   -1.129399   -0.334906
     49          1           0        4.346529   -0.361867    0.806360
 ---------------------------------------------------------------------

 SCF Done:  E(RB3LYP) =  -1228.45895034     A.U. after   15 cycles

 Excitation energies and oscillator strengths:

 Excited state symmetry could not be determined.
 Excited State   1:      Triplet-?Sym    3.5916 eV  345.20 nm  f=0.0000  <S**2>=2.000
      93 ->101        -0.13764
      93 ->102         0.14388
      93 ->103         0.15892
      93 ->107        -0.11026
      94 ->101        -0.12340
      96 ->101        -0.13908
      96 ->102        -0.15917
      99 ->101         0.46967
      99 ->102         0.10067
      99 ->109        -0.20335
 This state for optimization and/or second-order correction.
 Total Energy, E(TD-HF/TD-DFT) =  -1228.32696093
 Copying the excited state density for this state as the 1-particle RhoCI density.

 Excited state symmetry could not be determined.
 Excited State   2:      Triplet-?Sym    3.6284 eV  341.71 nm  f=0.0000  <S**2>=2.000
      94 ->104        -0.14085
      94 ->105        -0.11938
      96 ->102         0.11506
      98 ->108        -0.10757
     100 ->101        -0.13739
     100 ->102         0.21977
     100 ->104        -0.10308
     100 ->105         0.33966
     100 ->108        -0.33000

 Excited state symmetry could not be determined.
 Excited State   3:      Singlet-?Sym    4.6397 eV  267.22 nm  f=0.0108  <S**2>=0.000
     100 ->101         0.67337
     100 ->102        -0.15803

 Excited state symmetry could not be determined.
 Excited State   4:      Singlet-?Sym    4.8265 eV  256.88 nm  f=0.0074  <S**2>=0.000
     100 ->101         0.16965
     100 ->102         0.66648

 Alpha  occ. eigenvalues --  -19.21699 -19.18032 -19.15525 -10.32897 -10.25798
 Alpha  occ. eigenvalues --  -10.24955 -10.22548 -10.20121 -10.19841 -10.19807
 Alpha  occ. eigenvalues --  -10.19529 -10.19367 -10.19326 -10.19142 -10.19114
 Alpha  occ. eigenvalues --  -10.19052 -10.19048 -10.18883 -10.18836 -10.18803
 Alpha  occ. eigenvalues --  -10.18793 -10.18785 -10.18756 -10.18705 -10.18592
 Alpha  occ. eigenvalues --  -10.18512 -10.18484 -10.18419 -10.18370  -1.11845
 Alpha  occ. eigenvalues --   -1.06020  -1.03870  -0.87853  -0.85474  -0.84760
 Alpha  occ. eigenvalues --   -0.84650  -0.80350  -0.75904  -0.75315  -0.74555
 Alpha  occ. eigenvalues --   -0.74521  -0.74126  -0.73607  -0.73246  -0.68929
 Alpha  occ. eigenvalues --   -0.65460  -0.62566  -0.61720  -0.60856  -0.59877
 Alpha  occ. eigenvalues --   -0.59486  -0.59118  -0.58029  -0.56023  -0.54431
 Alpha  occ. eigenvalues --   -0.53118  -0.51515  -0.50853  -0.50207  -0.48918
 Alpha  occ. eigenvalues --   -0.46994  -0.46746  -0.46568  -0.45843  -0.44865
 Alpha  occ. eigenvalues --   -0.44721  -0.44375  -0.44138  -0.43716  -0.42917
 Alpha  occ. eigenvalues --   -0.42412  -0.42104  -0.41719  -0.41562  -0.40875
 Alpha  occ. eigenvalues --   -0.40309  -0.39308  -0.38408  -0.37820  -0.37778
 Alpha  occ. eigenvalues --   -0.36234  -0.35880  -0.35213  -0.35006  -0.34775
 Alpha  occ. eigenvalues --   -0.34062  -0.33726  -0.33635  -0.33100  -0.32266
 Alpha  occ. eigenvalues --   -0.31969  -0.28596  -0.25785  -0.25453  -0.24958
 Alpha  occ. eigenvalues --   -0.24825  -0.24551  -0.24294  -0.22864  -0.21494
 Alpha virt. eigenvalues --   -0.02459  -0.01638  -0.00686  -0.00470   0.00226
 Alpha virt. eigenvalues --    0.00612   0.00851   0.01634   0.02338   0.06634
 Alpha virt. eigenvalues --    0.09594   0.09979   0.10142   0.10450   0.12724

 Mulliken charges:
               1
     1  O   -0.400044
     2  C    0.387018
     3  O   -0.474839
     4  C    0.329665
     5  C   -0.174910
     6  C   -0.177439
     7  C    0.135055
     8  C   -0.165683
     9  C    0.124448
    10  C   -0.192999
    11  C   -0.134919
    12  C   -0.127252
    13  C   -0.134457
    14  C   -0.171448
    15  C    0.124594
    16  C   -0.171732
    17  C   -0.134533
    18  C   -0.127150
    19  C   -0.135143
    20  C   -0.193247
    21  C    0.123107
    22  C   -0.198435
    23  C   -0.167207
    24  C    0.354400
    25  O   -0.643305
    26  C   -0.198587
    27  C   -0.176698
    28  C   -0.207927
    29  C   -0.168797
    30  H    0.143006
    31  H    0.145865
    32  H    0.150064
    33  H    0.146422
    34  H    0.128837
    35  H    0.128616
    36  H    0.130825
    37  H    0.142697
    38  H    0.143392
    39  H    0.131075
    40  H    0.128654
    41  H    0.129211
    42  H    0.147350
    43  H    0.146704
    44  H    0.139792
    45  H    0.407387
    46  H    0.120308
    47  H    0.145441
    48  H    0.155665
    49  H    0.187154
 Sum of Mulliken charges =  -0.00000

 Dipole moment (field-independent basis, Debye):
    X=             -2.4843    Y=              0.5071    Z=             -0.7770  Tot=              2.6519
 Quadrupole moment (field-independent basis, Debye-Ang):
   XX=           -161.0256   YY=           -154.2842   ZZ=           -161.3263
   XY=              9.1234   XZ=              3.1591   YZ=              3.6236

 Normal termination of Gaussian 16 at Sat Nov  5 09:54:21 2022.
