 Gaussian 16, Revision B.01,
 Gaussian 16:  ES64L-G16RevB.01 20-Dec-2017

 -----------------------------
 #p b3lyp/6-31g(d) opt SCF=XQC
 -----------------------------

 ------------------------------
 Gaussian input prepared by ASE
 ------------------------------
 Symbolic Z-matrix:
 Charge =  0 Multiplicity = 1

 SCF Done:  E(RB3LYP) =  -1570.85549290     A.U. after   14 cycles
 SCF Done:  E(RB3LYP) =  -1570.86423582     A.U. after   12 cycles
 SCF Done:  E(RB3LYP) =  -1570.86524426     A.U. after   11 cycles
 SCF Done:  E(RB3LYP) =  -1570.86553763     A.U. after   11 cycles
 SCF Done:  E(RB3LYP) =  -1570.86563500     A.U. after   10 cycles
 SCF Done:  E(RB3LYP) =  -1570.86568553     A.U. after   10 cycles
 SCF Done:  E(RB3LYP) =  -1570.86571472     A.U. after   10 cycles
 SCF Done:  E(RB3LYP) =  -1570.86573295     A.U. after    9 cycles
 SCF Done:  E(RB3LYP) =  -1570.86575016     A.U. after   10 cycles
 SCF Done:  E(RB3LYP) =  -1570.86577030     A.U. after   10 cycles
 SCF Done:  E(RB3LYP) =  -1570.86578385     A.U. after    9 cycles
 SCF Done:  E(RB3LYP) =  -1570.86579226     A.U. after    9 cycles
 SCF Done:  E(RB3LYP) =  -1570.86579525     A.U. after    9 cycles
 SCF Done:  E(RB3LYP) =  -1570.86579666     A.U. after    9 cycles
 SCF Done:  E(RB3LYP) =  -1570.86579706     A.U. after    7 cycles
 SCF Done:  E(RB3LYP) =  -1570.86579714     A.U. after    7 cycles
 SCF Done:  E(RB3LYP) =  -1570.86579716     A.U. after    6 cycles
 SCF Done:  E(RB3LYP) =  -1570.86579717     A.U. after    6 cycles
 Optimization completed.
    -- Stationary point found.

                         Standard orientation:
 ---------------------------------------------------------------------
 Center     Atomic      Atomic             Coordinates (Angstroms)
 Number     Number       Type             X           Y           Z
 ---------------------------------------------------------------------
      1          6           0        9.686857   -0.755685    1.433682
      2          6           0        9.095776   -1.564626    0.261431
      3          6           0        8.115730   -2.617009    0.813227
      4          6           0       10.243574   -2.281423   -0.477032
      5          6           0        8.349763   -0.649867   -0.769805
      6          7           0        9.263929    0.369344   -1.325539
      7          6           0        7.027860   -0.088032   -0.296879
      8          7           0        5.852300   -0.422189   -0.794335
      9          6           0        4.929337    0.369391   -0.138546
     10          6           0        5.550857    1.199947    0.764107
     11          7           0        6.891498    0.898566    0.663778
     12          6           0        4.837478    2.118366    1.701948
     13          6           0        3.491970    2.512244    1.047747
     14          6           0        2.747779    1.359555    0.385890
     15          6           0        1.356792    1.332007    0.343670
     16          6           0        0.650959    0.325238   -0.341632
     17          6           0       -0.832462    0.319241   -0.374897
     18          6           0       -1.551817   -0.908310   -0.323613
     19          6           0       -2.928379   -0.936232   -0.353141
     20          6           0       -3.671218    0.263721   -0.436897
     21          6           0       -2.974008    1.514183   -0.490222
     22          6           0       -3.704025    2.744023   -0.582358
     23          6           0       -5.078831    2.780787   -0.616534
     24          6           0       -5.757302    1.544349   -0.556336
     25          7           0       -7.100976    1.213494   -0.574760
     26          6           0       -7.192476   -0.159815   -0.492156
     27          6           0       -8.507448   -0.911921   -0.497056
     28          7           0       -8.405850   -2.168143   -1.254389
     29          6           0       -9.087971   -1.181094    0.938531
     30          6           0      -10.516446   -1.734884    0.777629
     31          6           0       -9.146965    0.132549    1.740988
     32          6           0       -8.220454   -2.204503    1.695137
     33          7           0       -6.004499   -0.726744   -0.435821
     34          6           0       -5.093840    0.313390   -0.469750
     35          6           0       -1.558114    1.499973   -0.458390
     36          6           0        1.396641   -0.670847   -0.993774
     37          6           0        2.787938   -0.666784   -0.954926
     38          6           0        3.477189    0.337801   -0.267327
     39          1           0        8.907133   -0.276196    2.038490
     40          1           0       10.241154   -1.419977    2.106777
     41          1           0       10.391855    0.009640    1.087746
     42          1           0        8.644620   -3.322046    1.465746
     43          1           0        7.653032   -3.190922    0.002003
     44          1           0        7.308012   -2.160523    1.395326
     45          1           0       10.935227   -1.561015   -0.921037
     46          1           0       10.799523   -2.926938    0.213738
     47          1           0        9.852955   -2.914751   -1.283087
     48          1           0        8.070238   -1.299662   -1.605734
     49          1           0        8.813495    0.815957   -2.123085
     50          1           0        9.426684    1.112806   -0.648168
     51          1           0        7.637761    1.327405    1.191266
     52          1           0        5.416691    3.023845    1.923446
     53          1           0        4.659434    1.616027    2.666127
     54          1           0        2.848320    3.001513    1.787007
     55          1           0        3.706729    3.264850    0.273508
     56          1           0        0.797859    2.100481    0.872959
     57          1           0       -0.998728   -1.838692   -0.231991
     58          1           0       -3.467217   -1.877484   -0.302247
     59          1           0       -3.140236    3.672389   -0.624908
     60          1           0       -5.615731    3.722810   -0.685862
     61          1           0       -7.878691    1.856066   -0.610803
     62          1           0       -9.246922   -0.281249   -1.011357
     63          1           0       -7.532924   -2.621379   -0.982838
     64          1           0       -8.285186   -1.945007   -2.241853
     65          1           0      -11.178784   -0.993795    0.310611
     66          1           0      -10.514313   -2.630511    0.151503
     67          1           0      -10.941020   -1.988763    1.756403
     68          1           0       -8.149923    0.531724    1.956227
     69          1           0       -9.718756    0.905292    1.207898
     70          1           0       -9.649447   -0.035311    2.700566
     71          1           0       -8.240006   -3.180248    1.198381
     72          1           0       -8.605077   -2.344472    2.712412
     73          1           0       -7.178028   -1.876877    1.765908
     74          1           0       -1.032050    2.448971   -0.529133
     75          1           0        0.880885   -1.446257   -1.553379
     76          1           0        3.358129   -1.442382   -1.457393
 ---------------------------------------------------------------------

 The electronic state is 1-A.
 Alpha  occ. eigenvalues --  -14.39094 -14.38998 -14.32134 -14.31325 -14.31169
 Alpha  occ. eigenvalues --  -14.30588 -10.24890 -10.23748 -10.22578 -10.22068
 Alpha  occ. eigenvalues --  -10.22064 -10.21378 -10.20490 -10.20267 -10.19908
 Alpha  occ. eigenvalues --  -10.19717 -10.19603 -10.19465 -10.19214 -10.18982
 Alpha  occ. eigenvalues --  -10.18854 -10.18825 -10.18788 -10.18742 -10.18569
 Alpha  occ. eigenvalues --  -10.18434 -10.18039 -10.18008 -10.17942 -10.17767
 Alpha  occ. eigenvalues --  -10.17725 -10.17582 -10.17492 -10.17340 -10.16750
 Alpha  occ. eigenvalues --  -10.16339 -10.16274 -10.16258  -1.01553  -1.01018
 Alpha  occ. eigenvalues --   -0.89286  -0.89273  -0.87617  -0.87087  -0.86070
 Alpha  occ. eigenvalues --   -0.85101  -0.81987  -0.80536  -0.80232  -0.79887
 Alpha  occ. eigenvalues --   -0.76316  -0.75389  -0.74816  -0.72219  -0.72026
 Alpha  occ. eigenvalues --   -0.70992  -0.68906  -0.68114  -0.67624  -0.67565
 Alpha  occ. eigenvalues --   -0.67107  -0.66649  -0.63711  -0.63036  -0.62200
 Alpha  occ. eigenvalues --   -0.60339  -0.59915  -0.59264  -0.58796  -0.57400
 Alpha  occ. eigenvalues --   -0.55042  -0.54538  -0.54017  -0.52444  -0.51963
 Alpha  occ. eigenvalues --   -0.50832  -0.49389  -0.49047  -0.48874  -0.47546
 Alpha  occ. eigenvalues --   -0.46843  -0.46764  -0.46142  -0.45553  -0.45363
 Alpha  occ. eigenvalues --   -0.45133  -0.44164  -0.44013  -0.43629  -0.43482
 Alpha  occ. eigenvalues --   -0.42749  -0.42359  -0.42073  -0.41876  -0.41603
 Alpha  occ. eigenvalues --   -0.41198  -0.40737  -0.40519  -0.40204  -0.39345
 Alpha  occ. eigenvalues --   -0.38906  -0.38734  -0.38198  -0.37840  -0.37665
 Alpha  occ. eigenvalues --   -0.37488  -0.37460  -0.36854  -0.36522  -0.36133
 Alpha  occ. eigenvalues --   -0.36004  -0.35760  -0.35038  -0.34600  -0.33503
 Alpha  occ. eigenvalues --   -0.32992  -0.32617  -0.32355  -0.32215  -0.32067
 Alpha  occ. eigenvalues --   -0.31993  -0.31854  -0.31784  -0.30864  -0.30101
 Alpha  occ. eigenvalues --   -0.28359  -0.27041  -0.26595  -0.25889  -0.25161
 Alpha  occ. eigenvalues --   -0.24281  -0.23993  -0.23441  -0.22036  -0.19898
 Alpha  occ. eigenvalues --   -0.18185
 Alpha virt. eigenvalues --   -0.03068  -0.02178   0.00659   0.01721   0.02620
 Alpha virt. eigenvalues --    0.03117   0.04872   0.05963   0.06637   0.08748
 Alpha virt. eigenvalues --    0.08833   0.09335   0.10248   0.10545   0.10841

 Mulliken charges:
               1
     1  C   -0.475652
     2  C    0.107944
     3  C   -0.449746
     4  C   -0.441864
     5  C   -0.069610
     6  N   -0.710378
     7  C    0.497864
     8  N   -0.549177
     9  C    0.134714
    10  C    0.316101
    11  N   -0.716013
    12  C   -0.337341
    13  C   -0.351616
    14  C    0.111904
    15  C   -0.265858
    16  C    0.104885
    17  C    0.101277
    18  C   -0.188324
    19  C   -0.182486
    20  C    0.087910
    21  C    0.148835
    22  C   -0.213377
    23  C   -0.170302
    24  C    0.356233
    25  N   -0.746355
    26  C    0.519759
    27  C   -0.072563
    28  N   -0.706804
    29  C    0.122443
    30  C   -0.445396
    31  C   -0.464395
    32  C   -0.468875
    33  N   -0.576228
    34  C    0.129050
    35  C   -0.282457
    36  C   -0.191077
    37  C   -0.189596
    38  C    0.100607
    39  H    0.125158
    40  H    0.152141
    41  H    0.144554
    42  H    0.136968
    43  H    0.151163
    44  H    0.150707
    45  H    0.168641
    46  H    0.131950
    47  H    0.136400
    48  H    0.162936
    49  H    0.307845
    50  H    0.285253
    51  H    0.323208
    52  H    0.141097
    53  H    0.160792
    54  H    0.146081
    55  H    0.160306
    56  H    0.119513
    57  H    0.131552
    58  H    0.147159
    59  H    0.126859
    60  H    0.127806
    61  H    0.329300
    62  H    0.120759
    63  H    0.324678
    64  H    0.299574
    65  H    0.124114
    66  H    0.175222
    67  H    0.134361
    68  H    0.154603
    69  H    0.119232
    70  H    0.147937
    71  H    0.152777
    72  H    0.136550
    73  H    0.163990
    74  H    0.126722
    75  H    0.129506
    76  H    0.148548
 Sum of Mulliken charges =  -0.00000

 Dipole moment (field-independent basis, Debye):
    X=              0.3615    Y=              5.1630    Z=              1.9483  Tot=              5.5302
 Quadrupole moment (field-independent basis, Debye-Ang):
   XX=           -187.0558   YY=           -212.4153   ZZ=           -224.5288
   XY=             -4.7029   XZ=             21.2181   YZ=              1.7067

 1\1\GINC-NODE83\FOpt\RB3LYP\6-31G(d)\C32H38N6\WYKGROUP\04-Nov-2022\0\\
 #p b3lyp/6-31g(d) opt SCF=XQC\\Gaussian input prepared by ASE\\0,1\C,-
 9.557041902,-1.4110921879,0.7680785755\C,-9.0005663488,-0.1107603863,1
 .3824130363\C,-8.0125437939,-0.4636359406,2.5101415229\C,-10.170783920
 7,0.7014383069,1.9718958634\C,-8.2761272924,0.7821596693,0.317214283\N
 ,-9.1985752362,1.1458808867,-0.7782887514\C,-6.9395009362,0.261093804,
 -0.1609765151\N,-5.7788918519,0.8355967586,0.0920011969\C,-4.835133360
 8,0.0873253503,-0.5847031913\C,-5.4288076646,-0.9510942989,-1.26303188

 Normal termination of Gaussian 16 at Fri Nov  4 23:02:01 2022.
