 Gaussian 16, Revision B.01,
 Gaussian 16:  ES64L-G16RevB.01 20-Dec-2017

 -------------------------------------------------------------------
 #p b3lyp/6-31g(d) 6D 10F nosymm GFInput td=(50-50,nstate=2) SCF=XQC
 -------------------------------------------------------------------

 ------------------------------
 Gaussian input prepared by ASE
 ------------------------------
 Symbolic Z-matrix:
 Charge =  0 Multiplicity = 1

                          Input orientation:
 ---------------------------------------------------------------------
 Center     Atomic      Atomic             Coordinates (Angstroms)
 Number     Number       Type             X           Y           Z
 ---------------------------------------------------------------------
      1          6           0       -9.557042   -1.411092    0.768079
      2          6           0       -9.000566   -0.110760    1.382413
      3          6           0       -8.012544   -0.463636    2.510142
      4          6           0      -10.170784    0.701438    1.971896
      5          6           0       -8.276127    0.782160    0.317214
      6          7           0       -9.198575    1.145881   -0.778289
      7          6           0       -6.939501    0.261094   -0.160977
      8          7           0       -5.778892    0.835597    0.092001
      9          6           0       -4.835133    0.087325   -0.584703
     10          6           0       -5.428808   -0.951094   -1.263032
     11          7           0       -6.773212   -0.839447   -0.983163
     12          6           0       -4.686657   -2.003284   -2.020698
     13          6           0       -3.356158   -1.384615   -2.511141
     14          6           0       -2.635474   -0.529803   -1.476501
     15          6           0       -1.246193   -0.447472   -1.454034
     16          6           0       -0.563649    0.406434   -0.567240
     17          6           0        0.918382    0.478935   -0.564508
     18          6           0        1.632050    0.640980    0.656722
     19          6           0        3.007233    0.710467    0.681543
     20          6           0        3.754278    0.622998   -0.515529
     21          6           0        3.062822    0.459927   -1.759674
     22          6           0        3.797000    0.375675   -2.987602
     23          6           0        5.170665    0.439486   -3.027389
     24          6           0        5.843641    0.593069   -1.796032
     25          7           0        7.184566    0.698584   -1.470374
     26          6           0        7.270592    0.836348   -0.101144
     27          6           0        8.580853    0.994302    0.642568
     28          7           0        8.453028    1.937637    1.763171
     29          6           0        9.196380   -0.365101    1.136047
     30          6           0       10.617210   -0.081519    1.659438
     31          6           0        9.283084   -1.363158   -0.034183
     32          6           0        8.342863   -0.972943    2.264959
     33          7           0        6.081342    0.839280    0.465908
     34          6           0        5.175848    0.684714   -0.567784
     35          6           0        1.648147    0.393794   -1.742585
     36          6           0       -1.331219    1.188034    0.312223
     37          6           0       -2.721025    1.112732    0.312411
     38          6           0       -3.386946    0.257336   -0.571840
     39          1           0       -8.759492   -2.063484    0.391286
     40          1           0      -10.097604   -1.985047    1.529625
     41          1           0      -10.266429   -1.208902   -0.043283
     42          1           0       -8.528458   -1.010182    3.308704
     43          1           0       -7.573889    0.439852    2.949279
     44          1           0       -7.187716   -1.089247    2.152513
     45          1           0      -10.869584    1.007875    1.189408
     46          1           0      -10.712443    0.107026    2.717692
     47          1           0       -9.804379    1.607326    2.470419
     48          1           0       -8.021632    1.717237    0.827121
     49          1           0       -8.766218    1.874353   -1.344706
     50          1           0       -9.339877    0.355569   -1.405582
     51          1           0       -7.503383   -1.447345   -1.324287
     52          1           0       -5.255032   -2.380064   -2.880598
     53          1           0       -4.486799   -2.871035   -1.372045
     54          1           0       -2.691147   -2.174821   -2.876531
     55          1           0       -3.586488   -0.744842   -3.376947
     56          1           0       -0.669699   -1.076726   -2.128422
     57          1           0        1.076374    0.683058    1.589120
     58          1           0        3.542010    0.822964    1.619760
     59          1           0        3.237422    0.256325   -3.911809
     60          1           0        5.710791    0.373140   -3.967781
     61          1           0        7.964629    0.652967   -2.109483
     62          1           0        9.310401    1.421656   -0.060428
     63          1           0        7.584846    1.718392    2.252410
     64          1           0        8.308400    2.873970    1.386612
     65          1           0       11.271464    0.279708    0.854779
     66          1           0       10.594151    0.677940    2.444852
     67          1           0       11.065252   -0.996486    2.065403
     68          1           0        8.294078   -1.664694   -0.395714
     69          1           0        9.845308   -0.944075   -0.880668
     70          1           0        9.808991   -2.270731    0.283918
     71          1           0        8.344348   -0.327964    3.149960
     72          1           0        8.752578   -1.944950    2.564474
     73          1           0        7.304404   -1.121758    1.951182
     74          1           0        1.125675    0.300000   -2.691569
     75          1           0       -0.834204    1.876359    0.990165
     76          1           0       -3.308127    1.716341    0.998057
 ---------------------------------------------------------------------

 SCF Done:  E(RB3LYP) =  -1570.86579060     A.U. after   14 cycles

 Excitation energies and oscillator strengths:

 Excited state symmetry could not be determined.
 Excited State   1:      Triplet-?Sym    2.6182 eV  473.55 nm  f=0.0000  <S**2>=2.000
     134 ->138        -0.11523
     135 ->137        -0.33303
     135 ->138         0.19111
     136 ->137         0.50726
     136 ->138         0.18325
 This state for optimization and/or second-order correction.
 Total Energy, E(TD-HF/TD-DFT) =  -1570.76957491
 Copying the excited state density for this state as the 1-particle RhoCI density.

 Excited state symmetry could not be determined.
 Excited State   2:      Triplet-?Sym    2.9299 eV  423.16 nm  f=0.0000  <S**2>=2.000
     133 ->139         0.11565
     135 ->137         0.41233
     136 ->137         0.10643
     136 ->138         0.45599
     136 ->139         0.10837
     136 ->140         0.17590

 Excited state symmetry could not be determined.
 Excited State   3:      Singlet-?Sym    3.7066 eV  334.50 nm  f=0.1441  <S**2>=0.000
     135 ->138         0.11752
     136 ->137         0.65658
     136 ->138        -0.16916

 Excited state symmetry could not be determined.
 Excited State   4:      Singlet-?Sym    3.8733 eV  320.10 nm  f=0.7611  <S**2>=0.000
     134 ->137         0.12721
     135 ->137        -0.13761
     135 ->138        -0.10185
     136 ->137         0.21886
     136 ->138         0.62957

 Alpha  occ. eigenvalues --  -14.39094 -14.38998 -14.32134 -14.31325 -14.31169
 Alpha  occ. eigenvalues --  -14.30588 -10.24890 -10.23748 -10.22578 -10.22068
 Alpha  occ. eigenvalues --  -10.22064 -10.21378 -10.20490 -10.20267 -10.19908
 Alpha  occ. eigenvalues --  -10.19717 -10.19603 -10.19465 -10.19214 -10.18982
 Alpha  occ. eigenvalues --  -10.18854 -10.18825 -10.18788 -10.18742 -10.18569
 Alpha  occ. eigenvalues --  -10.18434 -10.18039 -10.18008 -10.17942 -10.17767
 Alpha  occ. eigenvalues --  -10.17725 -10.17582 -10.17492 -10.17340 -10.16750
 Alpha  occ. eigenvalues --  -10.16339 -10.16274 -10.16258  -1.01553  -1.01018
 Alpha  occ. eigenvalues --   -0.89286  -0.89273  -0.87617  -0.87087  -0.86070
 Alpha  occ. eigenvalues --   -0.85101  -0.81987  -0.80536  -0.80232  -0.79887
 Alpha  occ. eigenvalues --   -0.76316  -0.75389  -0.74816  -0.72219  -0.72026
 Alpha  occ. eigenvalues --   -0.70992  -0.68906  -0.68114  -0.67624  -0.67565
 Alpha  occ. eigenvalues --   -0.67107  -0.66649  -0.63711  -0.63036  -0.62200
 Alpha  occ. eigenvalues --   -0.60339  -0.59915  -0.59264  -0.58796  -0.57400
 Alpha  occ. eigenvalues --   -0.55042  -0.54538  -0.54017  -0.52444  -0.51963
 Alpha  occ. eigenvalues --   -0.50832  -0.49389  -0.49047  -0.48874  -0.47546
 Alpha  occ. eigenvalues --   -0.46843  -0.46764  -0.46142  -0.45553  -0.45363
 Alpha  occ. eigenvalues --   -0.45133  -0.44164  -0.44013  -0.43629  -0.43482
 Alpha  occ. eigenvalues --   -0.42749  -0.42359  -0.42073  -0.41876  -0.41603
 Alpha  occ. eigenvalues --   -0.41198  -0.40737  -0.40519  -0.40203  -0.39345
 Alpha  occ. eigenvalues --   -0.38906  -0.38734  -0.38198  -0.37840  -0.37665
 Alpha  occ. eigenvalues --   -0.37488  -0.37460  -0.36854  -0.36522  -0.36133
 Alpha  occ. eigenvalues --   -0.36004  -0.35760  -0.35038  -0.34600  -0.33503
 Alpha  occ. eigenvalues --   -0.32992  -0.32617  -0.32355  -0.32215  -0.32067
 Alpha  occ. eigenvalues --   -0.31993  -0.31854  -0.31784  -0.30864  -0.30101
 Alpha  occ. eigenvalues --   -0.28359  -0.27041  -0.26595  -0.25889  -0.25161
 Alpha  occ. eigenvalues --   -0.24281  -0.23993  -0.23441  -0.22036  -0.19898
 Alpha  occ. eigenvalues --   -0.18185
 Alpha virt. eigenvalues --   -0.03068  -0.02178   0.00659   0.01721   0.02620
 Alpha virt. eigenvalues --    0.03117   0.04873   0.05963   0.06637   0.08748
 Alpha virt. eigenvalues --    0.08833   0.09335   0.10248   0.10545   0.10841

 Mulliken charges:
               1
     1  C   -0.475627
     2  C    0.107917
     3  C   -0.449744
     4  C   -0.441885
     5  C   -0.069545
     6  N   -0.710404
     7  C    0.497851
     8  N   -0.549166
     9  C    0.134703
    10  C    0.316086
    11  N   -0.716003
    12  C   -0.337331
    13  C   -0.351622
    14  C    0.111925
    15  C   -0.265850
    16  C    0.104881
    17  C    0.101278
    18  C   -0.188330
    19  C   -0.182482
    20  C    0.087904
    21  C    0.148827
    22  C   -0.213375
    23  C   -0.170301
    24  C    0.356232
    25  N   -0.746351
    26  C    0.519781
    27  C   -0.072583
    28  N   -0.706808
    29  C    0.122486
    30  C   -0.445404
    31  C   -0.464400
    32  C   -0.468898
    33  N   -0.576220
    34  C    0.129035
    35  C   -0.282452
    36  C   -0.191077
    37  C   -0.189596
    38  C    0.100592
    39  H    0.125153
    40  H    0.152137
    41  H    0.144548
    42  H    0.136968
    43  H    0.151162
    44  H    0.150711
    45  H    0.168646
    46  H    0.131953
    47  H    0.136403
    48  H    0.162933
    49  H    0.307847
    50  H    0.285255
    51  H    0.323207
    52  H    0.141097
    53  H    0.160789
    54  H    0.146081
    55  H    0.160304
    56  H    0.119511
    57  H    0.131552
    58  H    0.147158
    59  H    0.126859
    60  H    0.127804
    61  H    0.329300
    62  H    0.120760
    63  H    0.324679
    64  H    0.299575
    65  H    0.124115
    66  H    0.175222
    67  H    0.134360
    68  H    0.154602
    69  H    0.119232
    70  H    0.147936
    71  H    0.152780
    72  H    0.136553
    73  H    0.163992
    74  H    0.126722
    75  H    0.129506
    76  H    0.148549
 Sum of Mulliken charges =  -0.00000

 Dipole moment (field-independent basis, Debye):
    X=             -0.2832    Y=             -2.7480    Z=             -4.7907  Tot=              5.5301
 Quadrupole moment (field-independent basis, Debye-Ang):
   XX=           -188.1654   YY=           -223.3704   ZZ=           -211.4411
   XY=             20.8348   XZ=             -8.4464   YZ=              3.1974

 Normal termination of Gaussian 16 at Sat Nov  5 09:49:33 2022.
