 Gaussian 16, Revision B.01,
 Gaussian 16:  ES64L-G16RevB.01 20-Dec-2017

 -----------------------------
 #p b3lyp/6-31g(d) opt SCF=XQC
 -----------------------------

 ------------------------------
 Gaussian input prepared by ASE
 ------------------------------
 Symbolic Z-matrix:
 Charge =  0 Multiplicity = 1

 SCF Done:  E(RB3LYP) =  -1625.37172204     A.U. after   16 cycles
 SCF Done:  E(RB3LYP) =  -1625.38339103     A.U. after   14 cycles
 SCF Done:  E(RB3LYP) =  -1625.38553809     A.U. after   13 cycles
 SCF Done:  E(RB3LYP) =  -1625.38648805     A.U. after   13 cycles
 SCF Done:  E(RB3LYP) =  -1625.38690760     A.U. after   13 cycles
 SCF Done:  E(RB3LYP) =  -1625.38724067     A.U. after   13 cycles
 SCF Done:  E(RB3LYP) =  -1625.38740556     A.U. after   12 cycles
 SCF Done:  E(RB3LYP) =  -1625.38747919     A.U. after   11 cycles
 SCF Done:  E(RB3LYP) =  -1625.38753036     A.U. after   12 cycles
 SCF Done:  E(RB3LYP) =  -1625.38756555     A.U. after   11 cycles
 SCF Done:  E(RB3LYP) =  -1625.38757916     A.U. after   12 cycles
 SCF Done:  E(RB3LYP) =  -1625.38758189     A.U. after   10 cycles
 SCF Done:  E(RB3LYP) =  -1625.38758355     A.U. after    9 cycles
 SCF Done:  E(RB3LYP) =  -1625.38758411     A.U. after    9 cycles
 SCF Done:  E(RB3LYP) =  -1625.38758428     A.U. after    8 cycles
 SCF Done:  E(RB3LYP) =  -1625.38758432     A.U. after    7 cycles
 SCF Done:  E(RB3LYP) =  -1625.38758431     A.U. after    6 cycles
 Optimization completed.
    -- Stationary point found.

                         Standard orientation:
 ---------------------------------------------------------------------
 Center     Atomic      Atomic             Coordinates (Angstroms)
 Number     Number       Type             X           Y           Z
 ---------------------------------------------------------------------
      1          6           0       -2.803992    5.023672   -0.485928
      2          6           0       -1.828742    3.844722   -0.540472
      3          6           0       -0.939986    3.778048    0.722631
      4          6           0        0.044423    2.642902    0.695239
      5          6           0       -0.046244    1.446352    1.344026
      6          6           0       -1.197906    1.074675    2.262973
      7          6           0       -2.388489    0.438301    1.557199
      8          6           0       -3.610207    1.114142    1.458022
      9          6           0       -4.702546    0.536095    0.812982
     10          6           0       -4.609856   -0.746383    0.251043
     11          6           0       -5.775816   -1.332279   -0.459635
     12          6           0       -6.492517   -0.549387   -1.378295
     13          6           0       -7.591928   -1.051868   -2.070949
     14          6           0       -8.011080   -2.367573   -1.864429
     15          6           0       -7.325864   -3.168093   -0.957574
     16          6           0       -6.218279   -2.662738   -0.253430
     17          6           0       -5.592128   -3.533361    0.700955
     18          7           0       -5.126966   -4.280031    1.462604
     19          6           0       -3.385490   -1.427007    0.358621
     20          6           0       -2.295435   -0.845273    0.999924
     21          6           0        0.993079    0.409245    1.190611
     22          8           0        0.922253   -0.684512    1.748137
     23          7           0        2.102834    0.717369    0.368796
     24          6           0        3.167247   -0.309558    0.192467
     25          6           0        3.187173   -0.874807   -1.238968
     26          6           0        4.408069   -1.794152   -1.384828
     27          6           0        5.732969   -0.992916   -1.350779
     28          6           0        6.952632   -1.876778   -1.013099
     29          6           0        7.033773   -2.398797    0.424041
     30          6           0        8.227653   -3.291193    0.682005
     31          8           0        9.059254   -3.596051   -0.144461
     32          6           0        5.603491    0.281014   -0.466761
     33          6           0        4.571512    0.167386    0.669263
     34          6           0        2.168204    1.921856   -0.269671
     35          7           0        3.101553    2.400549   -1.079657
     36          6           0        2.610321    3.637044   -1.382239
     37          7           0        1.455958    3.966945   -0.831734
     38          7           0        1.165931    2.837188   -0.101275
     39          1           0       -3.426169    5.058272   -1.386950
     40          1           0       -2.269292    5.978164   -0.412848
     41          1           0       -3.474815    4.949639    0.379153
     42          1           0       -2.382684    2.903674   -0.638321
     43          1           0       -1.184059    3.936637   -1.421039
     44          1           0       -1.572708    3.684214    1.609283
     45          1           0       -0.381431    4.716584    0.811833
     46          1           0       -1.537496    1.959447    2.810129
     47          1           0       -0.802698    0.369609    3.000144
     48          1           0       -3.718740    2.100268    1.904489
     49          1           0       -5.645837    1.073858    0.769512
     50          1           0       -6.158741    0.466984   -1.564447
     51          1           0       -8.116110   -0.417227   -2.780160
     52          1           0       -8.864788   -2.766633   -2.403836
     53          1           0       -7.642569   -4.189689   -0.773024
     54          1           0       -3.278668   -2.417682   -0.071576
     55          1           0       -1.359462   -1.389994    1.076680
     56          1           0        2.829506   -1.104778    0.856363
     57          1           0        3.240860   -0.063175   -1.972903
     58          1           0        2.256274   -1.424389   -1.421056
     59          1           0        4.382243   -2.537500   -0.574598
     60          1           0        4.346523   -2.365428   -2.318561
     61          1           0        5.907467   -0.639017   -2.376198
     62          1           0        7.869325   -1.311348   -1.221982
     63          1           0        6.976029   -2.735264   -1.696621
     64          1           0        6.140534   -2.974713    0.712260
     65          1           0        7.087109   -1.578033    1.156130
     66          1           0        8.304802   -3.672397    1.726564
     67          1           0        5.305352    1.123827   -1.096014
     68          1           0        6.580320    0.544122   -0.039724
     69          1           0        4.484797    1.133387    1.177664
     70          1           0        4.922543   -0.542247    1.427844
     71          1           0        3.131119    4.321437   -2.038412
 ---------------------------------------------------------------------

 The electronic state is 1-A.
 Alpha  occ. eigenvalues --  -19.14865 -19.13098 -14.44520 -14.40806 -14.37099
 Alpha  occ. eigenvalues --  -14.33893 -14.33101 -10.31132 -10.30996 -10.27673
 Alpha  occ. eigenvalues --  -10.27209 -10.25414 -10.23899 -10.23415 -10.22758
 Alpha  occ. eigenvalues --  -10.22477 -10.22260 -10.21796 -10.21429 -10.21137
 Alpha  occ. eigenvalues --  -10.21119 -10.21027 -10.20852 -10.20640 -10.20509
 Alpha  occ. eigenvalues --  -10.19968 -10.19846 -10.19737 -10.19669 -10.19590
 Alpha  occ. eigenvalues --  -10.18988 -10.18930 -10.18889 -10.18714 -10.18609
 Alpha  occ. eigenvalues --  -10.18525 -10.18330 -10.17627  -1.10515  -1.05268
 Alpha  occ. eigenvalues --   -1.04408  -0.97500  -0.93963  -0.90517  -0.88134
 Alpha  occ. eigenvalues --   -0.86802  -0.86006  -0.83664  -0.82045  -0.80575
 Alpha  occ. eigenvalues --   -0.79086  -0.78647  -0.78030  -0.75259  -0.75042
 Alpha  occ. eigenvalues --   -0.74755  -0.74344  -0.72134  -0.69946  -0.67717
 Alpha  occ. eigenvalues --   -0.65627  -0.65050  -0.64611  -0.63898  -0.62625
 Alpha  occ. eigenvalues --   -0.62514  -0.61278  -0.60593  -0.60376  -0.58629
 Alpha  occ. eigenvalues --   -0.56906  -0.55845  -0.55309  -0.52764  -0.52261
 Alpha  occ. eigenvalues --   -0.51622  -0.51078  -0.50253  -0.49175  -0.48694
 Alpha  occ. eigenvalues --   -0.48560  -0.47538  -0.47221  -0.47133  -0.46408
 Alpha  occ. eigenvalues --   -0.46279  -0.46163  -0.45463  -0.45257  -0.44854
 Alpha  occ. eigenvalues --   -0.44041  -0.43303  -0.43050  -0.42732  -0.42177
 Alpha  occ. eigenvalues --   -0.42070  -0.41983  -0.41119  -0.40365  -0.40070
 Alpha  occ. eigenvalues --   -0.39854  -0.39063  -0.38890  -0.38793  -0.37915
 Alpha  occ. eigenvalues --   -0.37767  -0.37519  -0.37378  -0.37046  -0.36741
 Alpha  occ. eigenvalues --   -0.36332  -0.35864  -0.35367  -0.35292  -0.35207
 Alpha  occ. eigenvalues --   -0.34659  -0.34630  -0.34234  -0.34104  -0.33536
 Alpha  occ. eigenvalues --   -0.33423  -0.32470  -0.32340  -0.31068  -0.30387
 Alpha  occ. eigenvalues --   -0.30232  -0.29251  -0.28397  -0.27187  -0.26547
 Alpha  occ. eigenvalues --   -0.26039  -0.25560  -0.25166  -0.24060  -0.23398
 Alpha virt. eigenvalues --   -0.05514  -0.05204  -0.03298  -0.01815  -0.00934
 Alpha virt. eigenvalues --   -0.00571   0.00939   0.03809   0.04249   0.06689
 Alpha virt. eigenvalues --    0.07088   0.07916   0.08280   0.08441   0.09377

 Mulliken charges:
               1
     1  C   -0.445572
     2  C   -0.264467
     3  C   -0.324337
     4  C    0.356413
     5  C   -0.025697
     6  C   -0.447438
     7  C    0.181996
     8  C   -0.200470
     9  C   -0.165326
    10  C    0.071452
    11  C    0.087070
    12  C   -0.188056
    13  C   -0.116564
    14  C   -0.134111
    15  C   -0.140927
    16  C    0.094515
    17  C    0.228723
    18  N   -0.484174
    19  C   -0.154696
    20  C   -0.193375
    21  C    0.609574
    22  O   -0.533435
    23  N   -0.617473
    24  C    0.021009
    25  C   -0.281447
    26  C   -0.285527
    27  C   -0.071067
    28  C   -0.262947
    29  C   -0.357820
    30  C    0.253067
    31  O   -0.381950
    32  C   -0.295473
    33  C   -0.289911
    34  C    0.799649
    35  N   -0.519775
    36  C    0.181141
    37  N   -0.279652
    38  N   -0.445952
    39  H    0.150489
    40  H    0.152142
    41  H    0.141292
    42  H    0.153437
    43  H    0.167061
    44  H    0.152392
    45  H    0.180127
    46  H    0.154373
    47  H    0.196530
    48  H    0.124743
    49  H    0.134494
    50  H    0.145580
    51  H    0.143728
    52  H    0.145461
    53  H    0.161510
    54  H    0.150608
    55  H    0.171826
    56  H    0.192095
    57  H    0.165541
    58  H    0.143432
    59  H    0.131492
    60  H    0.141693
    61  H    0.128228
    62  H    0.147105
    63  H    0.147768
    64  H    0.162783
    65  H    0.165543
    66  H    0.104255
    67  H    0.178926
    68  H    0.127830
    69  H    0.151225
    70  H    0.142623
    71  H    0.166697
 Sum of Mulliken charges =  -0.00000

 Dipole moment (field-independent basis, Debye):
    X=             -3.7760    Y=              5.4078    Z=             -1.9589  Tot=              6.8804
 Quadrupole moment (field-independent basis, Debye-Ang):
   XX=           -228.3441   YY=           -235.5153   ZZ=           -221.4815
   XY=              1.6086   XZ=             28.7207   YZ=             11.8544

 Normal termination of Gaussian 16 at Fri Nov  4 23:02:54 2022.
