 Gaussian 16, Revision B.01,
 Gaussian 16:  ES64L-G16RevB.01 20-Dec-2017

 -------------------------------------------------------------------
 #p b3lyp/6-31g(d) 6D 10F nosymm GFInput td=(50-50,nstate=2) SCF=XQC
 -------------------------------------------------------------------

 ------------------------------
 Gaussian input prepared by ASE
 ------------------------------
 Symbolic Z-matrix:
 Charge =  0 Multiplicity = 1

                          Input orientation:
 ---------------------------------------------------------------------
 Center     Atomic      Atomic             Coordinates (Angstroms)
 Number     Number       Type             X           Y           Z
 ---------------------------------------------------------------------
      1          6           0       -3.215881   -4.172364    2.162833
      2          6           0       -2.205947   -3.091198    1.768973
      3          6           0       -1.200332   -3.604552    0.713051
      4          6           0       -0.180397   -2.574681    0.316231
      5          6           0       -0.163986   -1.811648   -0.814427
      6          6           0       -1.209037   -1.915420   -1.912622
      7          6           0       -2.435697   -1.037138   -1.701662
      8          6           0       -3.686153   -1.603261   -1.427698
      9          6           0       -4.811579   -0.803765   -1.233681
     10          6           0       -4.723472    0.594282   -1.316256
     11          6           0       -5.928020    1.430238   -1.075329
     12          6           0       -6.757294    1.150889    0.022297
     13          6           0       -7.897112    1.905131    0.292287
     14          6           0       -8.244591    2.974266   -0.535738
     15          6           0       -7.447080    3.274395   -1.634210
     16          6           0       -6.298158    2.512394   -1.912200
     17          6           0       -5.552264    2.852334   -3.090751
     18          7           0       -4.989388    3.169343   -4.058573
     19          6           0       -3.469409    1.160812   -1.599563
     20          6           0       -2.346748    0.359739   -1.788819
     21          6           0        0.894984   -0.810320   -1.049475
     22          8           0        0.918631   -0.096380   -2.050416
     23          7           0        1.909908   -0.695207   -0.070417
     24          6           0        2.991294    0.307862   -0.278030
     25          6           0        2.897862    1.468409    0.728603
     26          6           0        4.133697    2.363443    0.559240
     27          6           0        5.424466    1.649086    1.030523
     28          6           0        6.703247    2.290163    0.450388
     29          6           0        6.939133    2.093295   -1.049632
     30          6           0        8.185084    2.778373   -1.565905
     31          8           0        8.946178    3.437202   -0.891942
     32          6           0        5.330410    0.110111    0.821094
     33          6           0        4.415041   -0.321487   -0.338330
     34          6           0        1.869000   -1.470277    1.052211
     35          7           0        2.703053   -1.513734    2.081206
     36          6           0        2.138823   -2.477070    2.865691
     37          7           0        1.029703   -3.034273    2.414230
     38          7           0        0.852932   -2.370023    1.221939
     39          1           0       -3.920986   -3.794548    2.911314
     40          1           0       -2.713384   -5.048312    2.590047
     41          1           0       -3.798976   -4.511016    1.297290
     42          1           0       -2.730431   -2.215976    1.367847
     43          1           0       -1.650996   -2.761548    2.653745
     44          1           0       -1.742739   -3.935183   -0.176764
     45          1           0       -0.671978   -4.473522    1.121126
     46          1           0       -1.529026   -2.955925   -2.024323
     47          1           0       -0.719642   -1.624758   -2.846825
     48          1           0       -3.789615   -2.685223   -1.380666
     49          1           0       -5.774549   -1.270254   -1.044070
     50          1           0       -6.481442    0.337333    0.686450
     51          1           0       -8.509502    1.662899    1.156473
     52          1           0       -9.129485    3.568540   -0.328788
     53          1           0       -7.705901    4.093492   -2.297618
     54          1           0       -3.365945    2.239311   -1.663217
     55          1           0       -1.387660    0.817025   -2.011750
     56          1           0        2.748060    0.705257   -1.262974
     57          1           0        2.851291    1.085943    1.754196
     58          1           0        1.975544    2.031209    0.543252
     59          1           0        4.212569    2.650453   -0.499584
     60          1           0        4.006299    3.299605    1.115453
     61          1           0        5.488057    1.808267    2.115785
     62          1           0        7.574021    1.893014    0.986759
     63          1           0        6.694839    3.367036    0.662576
     64          1           0        6.099559    2.463482   -1.658486
     65          1           0        7.029886    1.028307   -1.314240
     66          1           0        8.374680    2.637041   -2.655147
     67          1           0        4.942501   -0.351565    1.732994
     68          1           0        6.332382   -0.310585    0.663461
     69          1           0        4.339881   -1.413861   -0.353004
     70          1           0        4.862676   -0.037042   -1.297997
     71          1           0        2.569113   -2.777866    3.811503
 ---------------------------------------------------------------------

 SCF Done:  E(RB3LYP) =  -1625.38760122     A.U. after   16 cycles

 Excitation energies and oscillator strengths:

 Excited state symmetry could not be determined.
 Excited State   1:      Triplet-?Sym    3.1798 eV  389.91 nm  f=0.0000  <S**2>=2.000
     128 ->142        -0.13627
     130 ->136        -0.24888
     130 ->137         0.13382
     130 ->138         0.18405
     132 ->140         0.14132
     134 ->136         0.24996
     134 ->137        -0.12724
     134 ->138         0.13435
     135 ->136         0.41801
     135 ->138         0.19547
 This state for optimization and/or second-order correction.
 Total Energy, E(TD-HF/TD-DFT) =  -1625.27074469
 Copying the excited state density for this state as the 1-particle RhoCI density.

 Excited state symmetry could not be determined.
 Excited State   2:      Triplet-?Sym    3.2136 eV  385.81 nm  f=0.0000  <S**2>=2.000
     131 ->136        -0.12873
     131 ->137        -0.25362
     134 ->136        -0.20736
     134 ->137        -0.36398
     135 ->136         0.15434
     135 ->137         0.43177

 Excited state symmetry could not be determined.
 Excited State   3:      Singlet-?Sym    4.3159 eV  287.27 nm  f=0.2956  <S**2>=0.000
     134 ->136         0.13816
     135 ->136         0.65746
     135 ->137         0.13192

 Excited state symmetry could not be determined.
 Excited State   4:      Singlet-?Sym    4.4024 eV  281.63 nm  f=0.0109  <S**2>=0.000
     134 ->137         0.19795
     135 ->137         0.63834

 Alpha  occ. eigenvalues --  -19.14865 -19.13098 -14.44521 -14.40805 -14.37099
 Alpha  occ. eigenvalues --  -14.33893 -14.33101 -10.31132 -10.30996 -10.27673
 Alpha  occ. eigenvalues --  -10.27209 -10.25414 -10.23899 -10.23414 -10.22758
 Alpha  occ. eigenvalues --  -10.22477 -10.22260 -10.21796 -10.21428 -10.21137
 Alpha  occ. eigenvalues --  -10.21119 -10.21027 -10.20852 -10.20640 -10.20509
 Alpha  occ. eigenvalues --  -10.19968 -10.19847 -10.19737 -10.19669 -10.19590
 Alpha  occ. eigenvalues --  -10.18988 -10.18930 -10.18889 -10.18714 -10.18609
 Alpha  occ. eigenvalues --  -10.18525 -10.18331 -10.17627  -1.10515  -1.05267
 Alpha  occ. eigenvalues --   -1.04408  -0.97500  -0.93963  -0.90517  -0.88134
 Alpha  occ. eigenvalues --   -0.86802  -0.86006  -0.83664  -0.82045  -0.80575
 Alpha  occ. eigenvalues --   -0.79086  -0.78647  -0.78030  -0.75259  -0.75042
 Alpha  occ. eigenvalues --   -0.74755  -0.74344  -0.72134  -0.69946  -0.67717
 Alpha  occ. eigenvalues --   -0.65627  -0.65050  -0.64611  -0.63898  -0.62625
 Alpha  occ. eigenvalues --   -0.62514  -0.61278  -0.60593  -0.60376  -0.58629
 Alpha  occ. eigenvalues --   -0.56906  -0.55845  -0.55309  -0.52764  -0.52261
 Alpha  occ. eigenvalues --   -0.51621  -0.51078  -0.50253  -0.49175  -0.48694
 Alpha  occ. eigenvalues --   -0.48560  -0.47538  -0.47221  -0.47133  -0.46408
 Alpha  occ. eigenvalues --   -0.46279  -0.46163  -0.45463  -0.45257  -0.44854
 Alpha  occ. eigenvalues --   -0.44041  -0.43303  -0.43050  -0.42732  -0.42177
 Alpha  occ. eigenvalues --   -0.42070  -0.41983  -0.41119  -0.40365  -0.40070
 Alpha  occ. eigenvalues --   -0.39854  -0.39063  -0.38890  -0.38793  -0.37914
 Alpha  occ. eigenvalues --   -0.37767  -0.37519  -0.37378  -0.37046  -0.36741
 Alpha  occ. eigenvalues --   -0.36332  -0.35864  -0.35367  -0.35292  -0.35207
 Alpha  occ. eigenvalues --   -0.34659  -0.34630  -0.34234  -0.34104  -0.33536
 Alpha  occ. eigenvalues --   -0.33423  -0.32470  -0.32340  -0.31068  -0.30387
 Alpha  occ. eigenvalues --   -0.30232  -0.29251  -0.28397  -0.27187  -0.26547
 Alpha  occ. eigenvalues --   -0.26039  -0.25560  -0.25166  -0.24060  -0.23398
 Alpha virt. eigenvalues --   -0.05514  -0.05204  -0.03298  -0.01815  -0.00934
 Alpha virt. eigenvalues --   -0.00571   0.00939   0.03809   0.04249   0.06689
 Alpha virt. eigenvalues --    0.07088   0.07916   0.08281   0.08441   0.09377

 Mulliken charges:
               1
     1  C   -0.445573
     2  C   -0.264476
     3  C   -0.324332
     4  C    0.356378
     5  C   -0.025647
     6  C   -0.447440
     7  C    0.181994
     8  C   -0.200474
     9  C   -0.165342
    10  C    0.071498
    11  C    0.087046
    12  C   -0.188052
    13  C   -0.116564
    14  C   -0.134109
    15  C   -0.140926
    16  C    0.094541
    17  C    0.228708
    18  N   -0.484177
    19  C   -0.154712
    20  C   -0.193379
    21  C    0.609573
    22  O   -0.533431
    23  N   -0.617480
    24  C    0.021045
    25  C   -0.281471
    26  C   -0.285548
    27  C   -0.071100
    28  C   -0.262910
    29  C   -0.357854
    30  C    0.253066
    31  O   -0.381948
    32  C   -0.295493
    33  C   -0.289868
    34  C    0.799634
    35  N   -0.519790
    36  C    0.181145
    37  N   -0.279650
    38  N   -0.445953
    39  H    0.150489
    40  H    0.152143
    41  H    0.141296
    42  H    0.153439
    43  H    0.167064
    44  H    0.152395
    45  H    0.180126
    46  H    0.154373
    47  H    0.196530
    48  H    0.124743
    49  H    0.134493
    50  H    0.145580
    51  H    0.143728
    52  H    0.145460
    53  H    0.161508
    54  H    0.150610
    55  H    0.171831
    56  H    0.192090
    57  H    0.165548
    58  H    0.143433
    59  H    0.131500
    60  H    0.141698
    61  H    0.128233
    62  H    0.147107
    63  H    0.147769
    64  H    0.162788
    65  H    0.165550
    66  H    0.104256
    67  H    0.178926
    68  H    0.127833
    69  H    0.151217
    70  H    0.142616
    71  H    0.166698
 Sum of Mulliken charges =  -0.00000

 Dipole moment (field-independent basis, Debye):
    X=             -4.1466    Y=             -3.9362    Z=              3.8276  Tot=              6.8803
 Quadrupole moment (field-independent basis, Debye-Ang):
   XX=           -221.5481   YY=           -223.8594   ZZ=           -241.2704
   XY=            -15.4943   XZ=            -23.2984   YZ=             12.2591

 Normal termination of Gaussian 16 at Sat Nov  5 09:56:48 2022.
