 Gaussian 16, Revision B.01,
 Gaussian 16:  ES64L-G16RevB.01 20-Dec-2017

 -----------------------------
 #p b3lyp/6-31g(d) opt SCF=XQC
 -----------------------------

 ------------------------------
 Gaussian input prepared by ASE
 ------------------------------
 Symbolic Z-matrix:
 Charge =  0 Multiplicity = 1

 SCF Done:  E(RB3LYP) =  -1969.01780210     A.U. after   15 cycles
 SCF Done:  E(RB3LYP) =  -1969.02415109     A.U. after   14 cycles
 SCF Done:  E(RB3LYP) =  -1969.02666539     A.U. after   14 cycles
 SCF Done:  E(RB3LYP) =  -1969.02819630     A.U. after   13 cycles
 SCF Done:  E(RB3LYP) =  -1969.02874753     A.U. after   12 cycles
 SCF Done:  E(RB3LYP) =  -1969.02888364     A.U. after   12 cycles
 SCF Done:  E(RB3LYP) =  -1969.02908510     A.U. after   11 cycles
 SCF Done:  E(RB3LYP) =  -1969.02929234     A.U. after   12 cycles
 SCF Done:  E(RB3LYP) =  -1969.02960625     A.U. after   11 cycles
 SCF Done:  E(RB3LYP) =  -1969.02985695     A.U. after   12 cycles
 SCF Done:  E(RB3LYP) =  -1969.02994070     A.U. after   10 cycles
 SCF Done:  E(RB3LYP) =  -1969.02994631     A.U. after    9 cycles
 SCF Done:  E(RB3LYP) =  -1969.02994943     A.U. after   10 cycles
 SCF Done:  E(RB3LYP) =  -1969.02995115     A.U. after    9 cycles
 SCF Done:  E(RB3LYP) =  -1969.02995206     A.U. after    8 cycles
 SCF Done:  E(RB3LYP) =  -1969.02995233     A.U. after    7 cycles
 SCF Done:  E(RB3LYP) =  -1969.02995260     A.U. after    7 cycles
 SCF Done:  E(RB3LYP) =  -1969.02995270     A.U. after    7 cycles
 SCF Done:  E(RB3LYP) =  -1969.02995274     A.U. after    6 cycles
 SCF Done:  E(RB3LYP) =  -1969.02995275     A.U. after    6 cycles
 Optimization completed.
    -- Stationary point found.

                         Standard orientation:
 ---------------------------------------------------------------------
 Center     Atomic      Atomic             Coordinates (Angstroms)
 Number     Number       Type             X           Y           Z
 ---------------------------------------------------------------------
      1          6           0        8.927455   -3.653092   -0.559654
      2          6           0        8.445780   -2.213333   -0.613119
      3          8           0        7.105228   -2.192672   -0.133017
      4          6           0        6.452400   -0.996308   -0.085492
      5          6           0        6.988358    0.228689   -0.472401
      6          6           0        6.224732    1.402493   -0.386307
      7          6           0        4.920938    1.370135    0.094465
      8          6           0        4.068764    2.619762    0.179400
      9          6           0        2.807586    2.508865   -0.702515
     10          7           0        1.885966    3.641308   -0.591643
     11          6           0        0.852219    3.821203    0.278332
     12          8           0        0.101045    4.789887    0.206179
     13          6           0        0.641008    2.783595    1.380786
     14         16           0       -0.311311    1.228893    0.974471
     15          8           0        0.593120    0.305471    0.168319
     16          6           0       -1.518665    1.974193   -0.232402
     17          6           0       -2.581782    0.991537   -0.573304
     18          7           0       -3.828943    1.038178    0.039203
     19          6           0       -4.496482    0.047651   -0.480724
     20          6           0       -5.866028   -0.363807   -0.205003
     21          6           0       -6.448031   -1.463412   -0.847428
     22          6           0       -7.760758   -1.844552   -0.571132
     23          6           0       -8.512282   -1.119554    0.362350
     24          8           0       -9.798956   -1.401002    0.709054
     25          6           0      -10.439498   -2.505812    0.088852
     26          6           0       -7.935318   -0.014383    1.011359
     27          6           0       -6.631914    0.357333    0.731425
     28          8           0       -3.772980   -0.665335   -1.398138
     29          6           0       -2.540705   -0.057904   -1.446672
     30          6           0       -1.522792   -0.626954   -2.367050
     31          6           0        4.379722    0.130923    0.490495
     32          6           0        5.118860   -1.044259    0.401183
     33          8           0        4.660865   -2.278409    0.746982
     34          6           0        3.327722   -2.391008    1.249830
     35          6           0        3.063144   -3.864688    1.504341
     36          1           0        8.892052   -4.032379    0.466312
     37          1           0        8.296551   -4.292898   -1.184421
     38          1           0        9.959384   -3.719622   -0.921377
     39          1           0        9.078123   -1.564843    0.011243
     40          1           0        8.482014   -1.825692   -1.642047
     41          1           0        8.003978    0.284353   -0.847154
     42          1           0        6.666856    2.345543   -0.698272
     43          1           0        3.758158    2.799192    1.218785
     44          1           0        4.652866    3.498257   -0.120525
     45          1           0        2.257906    1.591771   -0.478902
     46          1           0        3.106201    2.436573   -1.753682
     47          1           0        1.986558    4.411026   -1.242260
     48          1           0        0.056248    3.273935    2.163250
     49          1           0        1.573832    2.409595    1.812129
     50          1           0       -1.942112    2.868416    0.231990
     51          1           0       -0.920087    2.270442   -1.099016
     52          1           0       -5.870324   -2.028920   -1.571358
     53          1           0       -8.182941   -2.700406   -1.084836
     54          1           0      -10.506518   -2.373958   -0.998982
     55          1           0      -11.445406   -2.542745    0.510540
     56          1           0       -9.919455   -3.447660    0.307351
     57          1           0       -8.534904    0.534020    1.730941
     58          1           0       -6.183517    1.210196    1.230317
     59          1           0       -0.555205   -0.154913   -2.184423
     60          1           0       -1.805039   -0.488049   -3.418797
     61          1           0       -1.402670   -1.702780   -2.194992
     62          1           0        3.357943    0.089388    0.851366
     63          1           0        2.611695   -1.978823    0.526290
     64          1           0        3.232830   -1.809235    2.178413
     65          1           0        2.050489   -4.000803    1.899164
     66          1           0        3.155093   -4.438236    0.576606
     67          1           0        3.778045   -4.266824    2.229186
 ---------------------------------------------------------------------

 The electronic state is 1-A.
 Alpha  occ. eigenvalues --  -88.99450 -19.21970 -19.18516 -19.16601 -19.16272
 Alpha  occ. eigenvalues --  -19.12062 -19.11565 -14.36438 -14.32393 -10.29731
 Alpha  occ. eigenvalues --  -10.27332 -10.25471 -10.24932 -10.24668 -10.23826
 Alpha  occ. eigenvalues --  -10.23620 -10.23571 -10.23016 -10.22698 -10.22340
 Alpha  occ. eigenvalues --  -10.22157 -10.21966 -10.20197 -10.19885 -10.19469
 Alpha  occ. eigenvalues --  -10.19418 -10.19405 -10.19079 -10.18914 -10.18475
 Alpha  occ. eigenvalues --  -10.17950 -10.17924 -10.17634 -10.17472 -10.17373
 Alpha  occ. eigenvalues --   -8.04178  -6.00584  -6.00470  -5.99906  -1.12528
 Alpha  occ. eigenvalues --   -1.07106  -1.06163  -1.04181  -1.03596  -1.00968
 Alpha  occ. eigenvalues --   -0.92331  -0.91820  -0.86120  -0.84453  -0.81569
 Alpha  occ. eigenvalues --   -0.79271  -0.78767  -0.76491  -0.76101  -0.75850
 Alpha  occ. eigenvalues --   -0.75312  -0.74545  -0.72313  -0.71518  -0.70480
 Alpha  occ. eigenvalues --   -0.67873  -0.65543  -0.64424  -0.62957  -0.62262
 Alpha  occ. eigenvalues --   -0.62078  -0.61375  -0.58681  -0.57937  -0.57573
 Alpha  occ. eigenvalues --   -0.56991  -0.56153  -0.54074  -0.53390  -0.51511
 Alpha  occ. eigenvalues --   -0.50650  -0.50157  -0.49328  -0.48609  -0.48219
 Alpha  occ. eigenvalues --   -0.47934  -0.47759  -0.47417  -0.47051  -0.46985
 Alpha  occ. eigenvalues --   -0.45972  -0.45250  -0.44436  -0.44085  -0.43781
 Alpha  occ. eigenvalues --   -0.43200  -0.42879  -0.42431  -0.42365  -0.42043
 Alpha  occ. eigenvalues --   -0.41467  -0.41376  -0.40703  -0.40630  -0.40175
 Alpha  occ. eigenvalues --   -0.39858  -0.39838  -0.38829  -0.38509  -0.38263
 Alpha  occ. eigenvalues --   -0.38159  -0.37943  -0.37773  -0.37527  -0.37284
 Alpha  occ. eigenvalues --   -0.36482  -0.36350  -0.36026  -0.35547  -0.34862
 Alpha  occ. eigenvalues --   -0.34270  -0.33367  -0.33090  -0.32024  -0.31390
 Alpha  occ. eigenvalues --   -0.31179  -0.30598  -0.30069  -0.28516  -0.27733
 Alpha  occ. eigenvalues --   -0.26263  -0.25691  -0.25327  -0.25225  -0.23328
 Alpha  occ. eigenvalues --   -0.22670  -0.20260  -0.19322
 Alpha virt. eigenvalues --   -0.03251  -0.01087  -0.00443   0.01197   0.01465
 Alpha virt. eigenvalues --    0.02230   0.03960   0.05069   0.07446   0.07928
 Alpha virt. eigenvalues --    0.08856   0.09092   0.10005   0.10365   0.10401

 Mulliken charges:
               1
     1  C   -0.455413
     2  C   -0.026538
     3  O   -0.510212
     4  C    0.336727
     5  C   -0.202907
     6  C   -0.210020
     7  C    0.173108
     8  C   -0.349391
     9  C   -0.181836
    10  N   -0.576423
    11  C    0.600453
    12  O   -0.510498
    13  C   -0.599751
    14  S    0.796794
    15  O   -0.636414
    16  C   -0.580112
    17  C    0.202597
    18  N   -0.514314
    19  C    0.476889
    20  C    0.086357
    21  C   -0.183000
    22  C   -0.202099
    23  C    0.384279
    24  O   -0.503368
    25  C   -0.217356
    26  C   -0.180402
    27  C   -0.165897
    28  O   -0.487609
    29  C    0.334958
    30  C   -0.537122
    31  C   -0.277834
    32  C    0.341497
    33  O   -0.515558
    34  C   -0.038616
    35  C   -0.456026
    36  H    0.164131
    37  H    0.164080
    38  H    0.144517
    39  H    0.137529
    40  H    0.137174
    41  H    0.130081
    42  H    0.114232
    43  H    0.145281
    44  H    0.140719
    45  H    0.223329
    46  H    0.156620
    47  H    0.331934
    48  H    0.215580
    49  H    0.204689
    50  H    0.223629
    51  H    0.209267
    52  H    0.150236
    53  H    0.135446
    54  H    0.154894
    55  H    0.173196
    56  H    0.154919
    57  H    0.144099
    58  H    0.163639
    59  H    0.195158
    60  H    0.166936
    61  H    0.178450
    62  H    0.155624
    63  H    0.166570
    64  H    0.135266
    65  H    0.147472
    66  H    0.160681
    67  H    0.159675
 Sum of Mulliken charges =  -0.00000

 Dipole moment (field-independent basis, Debye):
    X=             -0.1967    Y=             -2.2436    Z=             -1.7314  Tot=              2.8408
 Quadrupole moment (field-independent basis, Debye-Ang):
   XX=           -167.4694   YY=           -214.6537   ZZ=           -203.8282
   XY=             26.6306   XZ=             -0.1161   YZ=              1.2699

 Normal termination of Gaussian 16 at Fri Nov  4 22:57:55 2022.
