 Gaussian 16, Revision B.01,
 Gaussian 16:  ES64L-G16RevB.01 20-Dec-2017

 -------------------------------------------------------------------
 #p b3lyp/6-31g(d) 6D 10F nosymm GFInput td=(50-50,nstate=2) SCF=XQC
 -------------------------------------------------------------------

 ------------------------------
 Gaussian input prepared by ASE
 ------------------------------
 Symbolic Z-matrix:
 Charge =  0 Multiplicity = 1

                          Input orientation:
 ---------------------------------------------------------------------
 Center     Atomic      Atomic             Coordinates (Angstroms)
 Number     Number       Type             X           Y           Z
 ---------------------------------------------------------------------
      1          6           0       -8.622026   -1.422382   -2.994348
      2          6           0       -8.057264   -1.462255   -1.584656
      3          8           0       -6.784820   -0.823551   -1.615424
      4          6           0       -6.076180   -0.734737   -0.453671
      5          6           0       -6.492251   -1.222418    0.781894
      6          6           0       -5.679672   -1.081153    1.916845
      7          6           0       -4.446723   -0.444581    1.835104
      8          6           0       -3.541976   -0.296087    3.041075
      9          6           0       -2.192508   -1.014107    2.831246
     10          7           0       -1.228617   -0.827737    3.917653
     11          6           0       -0.298018    0.155408    4.076592
     12          8           0        0.509638    0.144637    5.001467
     13          6           0       -0.278992    1.307549    3.072175
     14         16           0        0.626234    1.069340    1.455721
     15          8           0       -0.225616    0.188698    0.550510
     16          6           0        2.009383   -0.004621    2.090723
     17          6           0        3.048750   -0.182505    1.041859
     18          7           0        4.214230    0.575377    1.046917
     19          6           0        4.882491    0.172018    0.003938
     20          6           0        6.183861    0.625122   -0.467346
     21          6           0        6.775876    0.093273   -1.619399
     22          6           0        8.022561    0.539079   -2.057452
     23          6           0        8.696449    1.533701   -1.337453
     24          8           0        9.914483    2.043043   -1.671985
     25          6           0       10.561568    1.540527   -2.831427
     26          6           0        8.108954    2.072520   -0.179857
     27          6           0        6.871415    1.624536    0.248169
     28          8           0        4.235130   -0.803636   -0.704919
     29          6           0        3.053634   -1.020838   -0.036548
     30          6           0        2.122893   -2.039784   -0.586576
     31          6           0       -4.027333    0.053237    0.585429
     32          6           0       -4.815330   -0.088200   -0.552293
     33          8           0       -4.472130    0.349503   -1.794506
     34          6           0       -3.217243    1.014077   -1.957005
     35          6           0       -3.068291    1.345244   -3.431675
     36          1           0       -8.731106   -0.388277   -3.335589
     37          1           0       -7.957813   -1.945270   -3.689426
     38          1           0       -9.605313   -1.904660   -3.020884
     39          1           0       -8.722366   -0.940218   -0.880853
     40          1           0       -7.948184   -2.499664   -1.235148
     41          1           0       -7.450943   -1.719493    0.875953
     42          1           0       -6.027553   -1.474175    2.869028
     43          1           0       -3.348476    0.767180    3.243594
     44          1           0       -4.035657   -0.692398    3.936675
     45          1           0       -1.725979   -0.696472    1.896007
     46          1           0       -2.366692   -2.090983    2.734568
     47          1           0       -1.207157   -1.509716    4.666207
     48          1           0        0.234493    2.139470    3.560917
     49          1           0       -1.276290    1.633806    2.763878
     50          1           0        2.423758    0.479387    2.978772
     51          1           0        1.536487   -0.946520    2.384445
     52          1           0        6.258148   -0.677348   -2.181288
     53          1           0        8.454446    0.107800   -2.953047
     54          1           0       10.765672    0.465308   -2.744785
     55          1           0       11.506066    2.082392   -2.904500
     56          1           0        9.966997    1.723751   -3.735959
     57          1           0        8.647927    2.842028    0.363660
     58          1           0        6.415152    2.038025    1.141577
     59          1           0        1.168471   -1.991190   -0.058263
     60          1           0        2.536408   -3.053244   -0.502711
     61          1           0        1.922759   -1.849760   -1.647365
     62          1           0       -3.060079    0.536843    0.504620
     63          1           0       -2.397703    0.370363   -1.610468
     64          1           0       -3.201680    1.928487   -1.345988
     65          1           0       -2.119462    1.864408   -3.605099
     66          1           0       -3.080576    0.431774   -4.034605
     67          1           0       -3.886307    1.990072   -3.768193
 ---------------------------------------------------------------------

 SCF Done:  E(RB3LYP) =  -1969.02995505     A.U. after   16 cycles

 Excitation energies and oscillator strengths:

 Excited state symmetry could not be determined.
 Excited State   1:      Triplet-?Sym    2.8804 eV  430.44 nm  f=0.0000  <S**2>=2.000
     127 ->136         0.12778
     132 ->134         0.67192
 This state for optimization and/or second-order correction.
 Total Energy, E(TD-HF/TD-DFT) =  -1968.92410129
 Copying the excited state density for this state as the 1-particle RhoCI density.

 Excited state symmetry could not be determined.
 Excited State   2:      Triplet-?Sym    3.5889 eV  345.47 nm  f=0.0000  <S**2>=2.000
     123 ->139         0.10299
     131 ->138         0.31276
     133 ->135         0.12561
     133 ->138         0.20651
     133 ->139         0.56133

 Excited state symmetry could not be determined.
 Excited State   3:      Singlet-?Sym    4.1096 eV  301.69 nm  f=0.0000  <S**2>=0.000
     133 ->134         0.70675

 Excited state symmetry could not be determined.
 Excited State   4:      Singlet-?Sym    4.3475 eV  285.18 nm  f=0.8310  <S**2>=0.000
     132 ->134         0.69696

 Alpha  occ. eigenvalues --  -88.99450 -19.21970 -19.18516 -19.16601 -19.16272
 Alpha  occ. eigenvalues --  -19.12062 -19.11566 -14.36438 -14.32393 -10.29732
 Alpha  occ. eigenvalues --  -10.27332 -10.25471 -10.24932 -10.24668 -10.23826
 Alpha  occ. eigenvalues --  -10.23620 -10.23571 -10.23016 -10.22698 -10.22340
 Alpha  occ. eigenvalues --  -10.22157 -10.21966 -10.20197 -10.19885 -10.19469
 Alpha  occ. eigenvalues --  -10.19418 -10.19405 -10.19079 -10.18914 -10.18476
 Alpha  occ. eigenvalues --  -10.17950 -10.17924 -10.17634 -10.17472 -10.17373
 Alpha  occ. eigenvalues --   -8.04178  -6.00584  -6.00470  -5.99906  -1.12528
 Alpha  occ. eigenvalues --   -1.07106  -1.06163  -1.04181  -1.03596  -1.00968
 Alpha  occ. eigenvalues --   -0.92331  -0.91820  -0.86120  -0.84453  -0.81569
 Alpha  occ. eigenvalues --   -0.79271  -0.78767  -0.76491  -0.76101  -0.75850
 Alpha  occ. eigenvalues --   -0.75312  -0.74545  -0.72313  -0.71519  -0.70480
 Alpha  occ. eigenvalues --   -0.67873  -0.65543  -0.64424  -0.62957  -0.62262
 Alpha  occ. eigenvalues --   -0.62078  -0.61375  -0.58681  -0.57937  -0.57573
 Alpha  occ. eigenvalues --   -0.56991  -0.56153  -0.54074  -0.53390  -0.51511
 Alpha  occ. eigenvalues --   -0.50650  -0.50157  -0.49328  -0.48609  -0.48219
 Alpha  occ. eigenvalues --   -0.47934  -0.47759  -0.47417  -0.47051  -0.46985
 Alpha  occ. eigenvalues --   -0.45972  -0.45250  -0.44436  -0.44085  -0.43781
 Alpha  occ. eigenvalues --   -0.43199  -0.42879  -0.42431  -0.42364  -0.42043
 Alpha  occ. eigenvalues --   -0.41467  -0.41376  -0.40703  -0.40630  -0.40175
 Alpha  occ. eigenvalues --   -0.39858  -0.39838  -0.38829  -0.38509  -0.38263
 Alpha  occ. eigenvalues --   -0.38159  -0.37943  -0.37773  -0.37527  -0.37284
 Alpha  occ. eigenvalues --   -0.36482  -0.36350  -0.36026  -0.35547  -0.34862
 Alpha  occ. eigenvalues --   -0.34270  -0.33367  -0.33090  -0.32024  -0.31390
 Alpha  occ. eigenvalues --   -0.31179  -0.30598  -0.30069  -0.28516  -0.27733
 Alpha  occ. eigenvalues --   -0.26263  -0.25691  -0.25327  -0.25225  -0.23328
 Alpha  occ. eigenvalues --   -0.22670  -0.20260  -0.19322
 Alpha virt. eigenvalues --   -0.03251  -0.01087  -0.00443   0.01197   0.01465
 Alpha virt. eigenvalues --    0.02230   0.03961   0.05069   0.07446   0.07928
 Alpha virt. eigenvalues --    0.08856   0.09092   0.10005   0.10365   0.10401

 Mulliken charges:
               1
     1  C   -0.455420
     2  C   -0.026542
     3  O   -0.510202
     4  C    0.336741
     5  C   -0.202906
     6  C   -0.210023
     7  C    0.173094
     8  C   -0.349385
     9  C   -0.181844
    10  N   -0.576415
    11  C    0.600442
    12  O   -0.510495
    13  C   -0.599748
    14  S    0.796804
    15  O   -0.636411
    16  C   -0.580139
    17  C    0.202591
    18  N   -0.514307
    19  C    0.476891
    20  C    0.086350
    21  C   -0.182994
    22  C   -0.202107
    23  C    0.384297
    24  O   -0.503372
    25  C   -0.217354
    26  C   -0.180406
    27  C   -0.165895
    28  O   -0.487611
    29  C    0.334969
    30  C   -0.537118
    31  C   -0.277828
    32  C    0.341479
    33  O   -0.515559
    34  C   -0.038606
    35  C   -0.456027
    36  H    0.164133
    37  H    0.164082
    38  H    0.144519
    39  H    0.137529
    40  H    0.137174
    41  H    0.130079
    42  H    0.114234
    43  H    0.145282
    44  H    0.140718
    45  H    0.223335
    46  H    0.156621
    47  H    0.331933
    48  H    0.215579
    49  H    0.204687
    50  H    0.223631
    51  H    0.209273
    52  H    0.150234
    53  H    0.135444
    54  H    0.154893
    55  H    0.173197
    56  H    0.154918
    57  H    0.144099
    58  H    0.163639
    59  H    0.195152
    60  H    0.166936
    61  H    0.178450
    62  H    0.155629
    63  H    0.166563
    64  H    0.135263
    65  H    0.147473
    66  H    0.160681
    67  H    0.159675
 Sum of Mulliken charges =  -0.00000

 Dipole moment (field-independent basis, Debye):
    X=              0.2762    Y=             -1.6229    Z=             -2.3152  Tot=              2.8408
 Quadrupole moment (field-independent basis, Debye-Ang):
   XX=           -170.9495   YY=           -203.4840   ZZ=           -212.6167
   XY=              4.6776   XZ=            -29.6765   YZ=             -2.4929

 Normal termination of Gaussian 16 at Sat Nov  5 09:55:04 2022.
