 Gaussian 16, Revision B.01,
 Gaussian 16:  ES64L-G16RevB.01 20-Dec-2017

 -------------------------------------------------------------------
 #p b3lyp/6-31g(d) 6D 10F nosymm GFInput td=(50-50,nstate=2) SCF=XQC
 -------------------------------------------------------------------

 ------------------------------
 Gaussian input prepared by ASE
 ------------------------------
 Symbolic Z-matrix:
 Charge =  0 Multiplicity = 1

                          Input orientation:
 ---------------------------------------------------------------------
 Center     Atomic      Atomic             Coordinates (Angstroms)
 Number     Number       Type             X           Y           Z
 ---------------------------------------------------------------------
      1          6           0        7.995809   -1.502190    1.122130
      2          6           0        6.554591   -1.650605    0.665913
      3          8           0        5.896939   -0.408561    0.908492
      4          6           0        4.576818   -0.289931    0.579326
      5          6           0        3.987670    0.952567    0.843373
      6          6           0        2.647167    1.173382    0.543116
      7          6           0        1.846932    0.169592   -0.021980
      8          6           0        0.381187    0.389671   -0.450585
      9          7           0       -0.290315    1.607587    0.031435
     10          6           0        0.035586    2.876612   -0.602304
     11          6           0       -1.150091    3.829350   -0.679737
     12          6           0       -1.001351    5.180665   -0.348974
     13          6           0       -2.066264    6.077385   -0.459723
     14          6           0       -3.291414    5.598632   -0.903869
     15          9           0       -4.331964    6.454042   -1.011903
     16          6           0       -3.480610    4.260843   -1.236143
     17          6           0       -2.404003    3.383864   -1.120631
     18          6           0       -0.542902    1.642260    1.471990
     19          6           0       -1.322594    0.389824    1.895615
     20          6           0       -0.656816   -0.876197    1.330979
     21          7           0       -0.412098   -0.800761   -0.120882
     22          6           0       -1.629468   -0.926355   -0.932611
     23          6           0       -2.266501   -2.300909   -0.835855
     24          6           0       -1.499078   -3.462639   -0.997721
     25          6           0       -2.105798   -4.715215   -0.945485
     26          6           0       -3.482483   -4.825197   -0.735060
     27          6           0       -4.271329   -3.681641   -0.572220
     28          6           0       -5.765562   -3.786054   -0.368728
     29          6           0       -3.641538   -2.429692   -0.619770
     30          6           0        2.453768   -1.065309   -0.278893
     31          6           0        3.797739   -1.305826    0.011836
     32          1           0        8.039335   -1.260366    2.188707
     33          1           0        8.495263   -0.702035    0.566914
     34          1           0        8.542643   -2.436346    0.954263
     35          1           0        6.505980   -1.896971   -0.404680
     36          1           0        6.049481   -2.455732    1.218942
     37          1           0        4.598456    1.732902    1.287132
     38          1           0        2.226932    2.147015    0.763701
     39          1           0        0.379241    0.470886   -1.546508
     40          1           0        0.381636    2.648551   -1.620188
     41          1           0        0.870008    3.414040   -0.117400
     42          1           0       -0.037673    5.542774    0.002444
     43          1           0       -1.959752    7.126098   -0.201917
     44          1           0       -4.455508    3.927107   -1.577157
     45          1           0       -2.533053    2.333775   -1.364817
     46          1           0        0.389399    1.713287    2.060963
     47          1           0       -1.127837    2.542286    1.690437
     48          1           0       -1.369074    0.330771    2.990462
     49          1           0       -2.354641    0.468584    1.533222
     50          1           0       -1.265075   -1.763171    1.531544
     51          1           0        0.312757   -1.030675    1.819405
     52          1           0       -2.386308   -0.160505   -0.697448
     53          1           0       -1.330162   -0.746281   -1.974563
     54          1           0       -0.427488   -3.373713   -1.150114
     55          1           0       -1.505395   -5.613576   -1.066525
     56          1           0       -3.946826   -5.808093   -0.692826
     57          1           0       -6.135973   -3.001161    0.299994
     58          1           0       -6.305891   -3.681761   -1.319355
     59          1           0       -6.045326   -4.754445    0.059278
     60          1           0       -4.241245   -1.530654   -0.483911
     61          1           0        1.852838   -1.861544   -0.706685
     62          1           0        4.221227   -2.280238   -0.204446
 ---------------------------------------------------------------------

 SCF Done:  E(RB3LYP) =  -1332.08846397     A.U. after   14 cycles

 Excitation energies and oscillator strengths:

 Excited state symmetry could not be determined.
 Excited State   1:      Triplet-?Sym    3.6530 eV  339.40 nm  f=0.0000  <S**2>=2.000
     106 ->114        -0.11131
     106 ->115         0.30054
     106 ->116        -0.18441
     110 ->114         0.10047
     110 ->118         0.13794
     111 ->114        -0.29005
     111 ->115         0.15133
     111 ->118        -0.38478
     112 ->114        -0.11176
     112 ->118        -0.15074
 This state for optimization and/or second-order correction.
 Total Energy, E(TD-HF/TD-DFT) =  -1331.95421858
 Copying the excited state density for this state as the 1-particle RhoCI density.

 Excited state symmetry could not be determined.
 Excited State   2:      Triplet-?Sym    3.6862 eV  336.35 nm  f=0.0000  <S**2>=2.000
     107 ->114         0.19176
     107 ->117        -0.37283
     107 ->118        -0.10172
     109 ->114         0.35860
     109 ->116        -0.30665
     109 ->117         0.17462
     109 ->118        -0.12577
     110 ->114         0.10769

 Excited state symmetry could not be determined.
 Excited State   3:      Singlet-?Sym    4.6304 eV  267.76 nm  f=0.0088  <S**2>=0.000
     110 ->113        -0.10509
     111 ->113        -0.18412
     112 ->113         0.66542

 Excited state symmetry could not be determined.
 Excited State   4:      Singlet-?Sym    4.8227 eV  257.09 nm  f=0.0007  <S**2>=0.000
     110 ->114         0.12478
     112 ->114         0.59817
     112 ->115         0.14818
     112 ->116         0.22875

 Alpha  occ. eigenvalues --  -24.69883 -19.17168 -14.32200 -14.32156 -10.26720
 Alpha  occ. eigenvalues --  -10.24297 -10.24207 -10.24163 -10.21698 -10.20720
 Alpha  occ. eigenvalues --  -10.20334 -10.19797 -10.19560 -10.19381 -10.19319
 Alpha  occ. eigenvalues --  -10.19318 -10.19241 -10.19233 -10.18832 -10.18441
 Alpha  occ. eigenvalues --  -10.18416 -10.18353 -10.18269 -10.18208 -10.18156
 Alpha  occ. eigenvalues --  -10.18114 -10.18082 -10.18037 -10.17925 -10.17830
 Alpha  occ. eigenvalues --  -10.17592  -1.20996  -1.05824  -0.94933  -0.88952
 Alpha  occ. eigenvalues --   -0.85701  -0.84824  -0.84423  -0.78088  -0.77846
 Alpha  occ. eigenvalues --   -0.76681  -0.76012  -0.75224  -0.74986  -0.73964
 Alpha  occ. eigenvalues --   -0.72527  -0.68815  -0.68568  -0.67633  -0.64389
 Alpha  occ. eigenvalues --   -0.63294  -0.62740  -0.61979  -0.59863  -0.59270
 Alpha  occ. eigenvalues --   -0.58697  -0.58078  -0.56230  -0.53920  -0.53571
 Alpha  occ. eigenvalues --   -0.52879  -0.50253  -0.49754  -0.48941  -0.48384
 Alpha  occ. eigenvalues --   -0.48270  -0.47512  -0.47112  -0.46554  -0.45645
 Alpha  occ. eigenvalues --   -0.45200  -0.44789  -0.44489  -0.43993  -0.43349
 Alpha  occ. eigenvalues --   -0.43106  -0.42561  -0.41610  -0.41556  -0.41137
 Alpha  occ. eigenvalues --   -0.40549  -0.40241  -0.39967  -0.39679  -0.39318
 Alpha  occ. eigenvalues --   -0.39280  -0.38926  -0.38312  -0.37702  -0.37471
 Alpha  occ. eigenvalues --   -0.36574  -0.36198  -0.35725  -0.35012  -0.34861
 Alpha  occ. eigenvalues --   -0.34401  -0.34128  -0.33882  -0.33339  -0.33116
 Alpha  occ. eigenvalues --   -0.32770  -0.32458  -0.31718  -0.30517  -0.25614
 Alpha  occ. eigenvalues --   -0.24539  -0.24062  -0.23645  -0.23328  -0.21373
 Alpha  occ. eigenvalues --   -0.21121  -0.20411
 Alpha virt. eigenvalues --   -0.00731  -0.00042   0.00260   0.00382   0.00555
 Alpha virt. eigenvalues --    0.01699   0.07757   0.09014   0.09345   0.09871
 Alpha virt. eigenvalues --    0.10237   0.11204   0.11454   0.12312   0.12711

 Mulliken charges:
               1
     1  C   -0.456637
     2  C   -0.027713
     3  O   -0.520292
     4  C    0.383750
     5  C   -0.184237
     6  C   -0.186462
     7  C    0.129601
     8  C    0.069564
     9  N   -0.403217
    10  C   -0.207953
    11  C    0.155492
    12  C   -0.191070
    13  C   -0.195615
    14  C    0.377509
    15  F   -0.300530
    16  C   -0.199284
    17  C   -0.170800
    18  C   -0.127711
    19  C   -0.269960
    20  C   -0.160028
    21  N   -0.391002
    22  C   -0.207274
    23  C    0.152693
    24  C   -0.170245
    25  C   -0.129632
    26  C   -0.182226
    27  C    0.182832
    28  C   -0.529523
    29  C   -0.244646
    30  C   -0.176497
    31  C   -0.200016
    32  H    0.163260
    33  H    0.163180
    34  H    0.147748
    35  H    0.139922
    36  H    0.140269
    37  H    0.132889
    38  H    0.128802
    39  H    0.138031
    40  H    0.155558
    41  H    0.126945
    42  H    0.131047
    43  H    0.144092
    44  H    0.143601
    45  H    0.146717
    46  H    0.121371
    47  H    0.147182
    48  H    0.132280
    49  H    0.140516
    50  H    0.154553
    51  H    0.149977
    52  H    0.139483
    53  H    0.146157
    54  H    0.137584
    55  H    0.125589
    56  H    0.118840
    57  H    0.156606
    58  H    0.164529
    59  H    0.155154
    60  H    0.114165
    61  H    0.144804
    62  H    0.130280
 Sum of Mulliken charges =  -0.00000

 Dipole moment (field-independent basis, Debye):
    X=              1.4105    Y=             -1.8151    Z=              0.2258  Tot=              2.3098
 Quadrupole moment (field-independent basis, Debye-Ang):
   XX=           -170.4708   YY=           -180.5876   ZZ=           -184.3813
   XY=              3.2581   XZ=             -1.2977   YZ=              3.4440

 Normal termination of Gaussian 16 at Sat Nov  5 09:53:56 2022.
