 Gaussian 16, Revision B.01,
 Gaussian 16:  ES64L-G16RevB.01 20-Dec-2017

 -----------------------------
 #p b3lyp/6-31g(d) opt SCF=XQC
 -----------------------------

 ------------------------------
 Gaussian input prepared by ASE
 ------------------------------
 Symbolic Z-matrix:
 Charge =  0 Multiplicity = 1

 SCF Done:  E(RB3LYP) =  -1332.08007968     A.U. after   14 cycles
 SCF Done:  E(RB3LYP) =  -1332.08724244     A.U. after   12 cycles
 SCF Done:  E(RB3LYP) =  -1332.08792616     A.U. after   11 cycles
 SCF Done:  E(RB3LYP) =  -1332.08823780     A.U. after   11 cycles
 SCF Done:  E(RB3LYP) =  -1332.08835725     A.U. after   11 cycles
 SCF Done:  E(RB3LYP) =  -1332.08842099     A.U. after   11 cycles
 SCF Done:  E(RB3LYP) =  -1332.08844343     A.U. after   10 cycles
 SCF Done:  E(RB3LYP) =  -1332.08845609     A.U. after   10 cycles
 SCF Done:  E(RB3LYP) =  -1332.08846138     A.U. after    9 cycles
 SCF Done:  E(RB3LYP) =  -1332.08846265     A.U. after    9 cycles
 SCF Done:  E(RB3LYP) =  -1332.08846388     A.U. after    7 cycles
 SCF Done:  E(RB3LYP) =  -1332.08846416     A.U. after    8 cycles
 SCF Done:  E(RB3LYP) =  -1332.08846459     A.U. after    8 cycles
 SCF Done:  E(RB3LYP) =  -1332.08846503     A.U. after    9 cycles
 SCF Done:  E(RB3LYP) =  -1332.08846571     A.U. after    8 cycles
 SCF Done:  E(RB3LYP) =  -1332.08846644     A.U. after    9 cycles
 SCF Done:  E(RB3LYP) =  -1332.08846664     A.U. after    7 cycles
 SCF Done:  E(RB3LYP) =  -1332.08846696     A.U. after    7 cycles
 SCF Done:  E(RB3LYP) =  -1332.08846717     A.U. after    7 cycles
 SCF Done:  E(RB3LYP) =  -1332.08846719     A.U. after    6 cycles
 Optimization completed.
    -- Stationary point found.

                         Standard orientation:
 ---------------------------------------------------------------------
 Center     Atomic      Atomic             Coordinates (Angstroms)
 Number     Number       Type             X           Y           Z
 ---------------------------------------------------------------------
      1          6           0       -8.326805   -1.201303   -0.019482
      2          6           0       -6.981153   -0.539072   -0.260196
      3          8           0       -5.969602   -1.480701    0.092118
      4          6           0       -4.659913   -1.115914   -0.037450
      5          6           0       -3.714619   -2.082834    0.326009
      6          6           0       -2.354175   -1.807693    0.229311
      7          6           0       -1.887394   -0.565219   -0.224205
      8          6           0       -0.393108   -0.240328   -0.429396
      9          7           0        0.588691   -1.164194    0.161467
     10          6           0        0.824655   -2.440272   -0.497479
     11          6           0        2.268161   -2.913267   -0.387475
     12          6           0        2.559802   -4.243225   -0.065391
     13          6           0        3.876601   -4.704766   -0.006829
     14          6           0        4.904255   -3.809609   -0.271563
     15          9           0        6.183575   -4.241140   -0.214422
     16          6           0        4.655017   -2.478074   -0.589013
     17          6           0        3.333680   -2.039294   -0.644341
     18          6           0        0.629637   -1.166315    1.623834
     19          6           0        0.849145    0.261710    2.142040
     20          6           0       -0.132563    1.235931    1.469713
     21          7           0       -0.125815    1.138231   -0.001303
     22          6           0        1.071398    1.715036   -0.626317
     23          6           0        1.162408    3.220550   -0.453930
     24          6           0        0.066148    4.045307   -0.741588
     25          6           0        0.178442    5.427858   -0.616175
     26          6           0        1.383124    6.004597   -0.206603
     27          6           0        2.492655    5.204312    0.084948
     28          6           0        3.809013    5.817303    0.505050
     29          6           0        2.358133    3.814076   -0.039239
     30          6           0       -2.847385    0.388107   -0.583119
     31          6           0       -4.216626    0.130573   -0.496601
     32          1           0       -8.433546   -1.485906    1.031978
     33          1           0       -8.427792   -2.102611   -0.632191
     34          1           0       -9.137966   -0.511973   -0.277734
     35          1           0       -6.870738   -0.248276   -1.314936
     36          1           0       -6.876376    0.368957    0.351121
     37          1           0       -4.067665   -3.044938    0.684644
     38          1           0       -1.653697   -2.580447    0.521542
     39          1           0       -0.206798   -0.271391   -1.511972
     40          1           0        0.568979   -2.307001   -1.558007
     41          1           0        0.173291   -3.255088   -0.134134
     42          1           0        1.746077   -4.933882    0.144703
     43          1           0        4.111028   -5.733823    0.245544
     44          1           0        5.487639   -1.810457   -0.786810
     45          1           0        3.117679   -1.001603   -0.879940
     46          1           0       -0.291447   -1.583191    2.069861
     47          1           0        1.456817   -1.812401    1.937298
     48          1           0        0.715591    0.289044    3.230964
     49          1           0        1.883051    0.564220    1.936670
     50          1           0        0.088911    2.270920    1.746616
     51          1           0       -1.153298    1.021073    1.807990
     52          1           0        2.007916    1.254056   -0.272669
     53          1           0        1.006229    1.483744   -1.698666
     54          1           0       -0.872010    3.592818   -1.049078
     55          1           0       -0.676314    6.063034   -0.835560
     56          1           0        1.460196    7.085316   -0.108693
     57          1           0        4.333141    5.185611    1.230795
     58          1           0        4.480771    5.947399   -0.354216
     59          1           0        3.665596    6.804205    0.957480
     60          1           0        3.210376    3.177424    0.194709
     61          1           0       -2.511331    1.360992   -0.927612
     62          1           0       -4.921000    0.902741   -0.785067
 ---------------------------------------------------------------------

 The electronic state is 1-A.
 Alpha  occ. eigenvalues --  -24.69883 -19.17168 -14.32200 -14.32156 -10.26721
 Alpha  occ. eigenvalues --  -10.24297 -10.24207 -10.24163 -10.21698 -10.20720
 Alpha  occ. eigenvalues --  -10.20334 -10.19797 -10.19560 -10.19381 -10.19319
 Alpha  occ. eigenvalues --  -10.19319 -10.19241 -10.19233 -10.18832 -10.18441
 Alpha  occ. eigenvalues --  -10.18416 -10.18353 -10.18269 -10.18208 -10.18156
 Alpha  occ. eigenvalues --  -10.18114 -10.18082 -10.18037 -10.17925 -10.17830
 Alpha  occ. eigenvalues --  -10.17592  -1.20996  -1.05824  -0.94933  -0.88952
 Alpha  occ. eigenvalues --   -0.85701  -0.84824  -0.84423  -0.78088  -0.77846
 Alpha  occ. eigenvalues --   -0.76681  -0.76012  -0.75224  -0.74986  -0.73964
 Alpha  occ. eigenvalues --   -0.72527  -0.68815  -0.68568  -0.67633  -0.64389
 Alpha  occ. eigenvalues --   -0.63294  -0.62740  -0.61979  -0.59863  -0.59270
 Alpha  occ. eigenvalues --   -0.58697  -0.58078  -0.56230  -0.53920  -0.53571
 Alpha  occ. eigenvalues --   -0.52879  -0.50253  -0.49754  -0.48941  -0.48384
 Alpha  occ. eigenvalues --   -0.48270  -0.47512  -0.47112  -0.46554  -0.45645
 Alpha  occ. eigenvalues --   -0.45200  -0.44789  -0.44489  -0.43993  -0.43349
 Alpha  occ. eigenvalues --   -0.43106  -0.42561  -0.41610  -0.41556  -0.41137
 Alpha  occ. eigenvalues --   -0.40549  -0.40241  -0.39967  -0.39679  -0.39318
 Alpha  occ. eigenvalues --   -0.39280  -0.38926  -0.38312  -0.37702  -0.37471
 Alpha  occ. eigenvalues --   -0.36574  -0.36198  -0.35725  -0.35012  -0.34861
 Alpha  occ. eigenvalues --   -0.34401  -0.34128  -0.33882  -0.33339  -0.33116
 Alpha  occ. eigenvalues --   -0.32770  -0.32458  -0.31718  -0.30517  -0.25614
 Alpha  occ. eigenvalues --   -0.24539  -0.24062  -0.23645  -0.23328  -0.21373
 Alpha  occ. eigenvalues --   -0.21121  -0.20411
 Alpha virt. eigenvalues --   -0.00731  -0.00042   0.00260   0.00382   0.00555
 Alpha virt. eigenvalues --    0.01699   0.07757   0.09014   0.09345   0.09871
 Alpha virt. eigenvalues --    0.10237   0.11204   0.11454   0.12312   0.12711

 Mulliken charges:
               1
     1  C   -0.456635
     2  C   -0.027711
     3  O   -0.520297
     4  C    0.383761
     5  C   -0.184239
     6  C   -0.186454
     7  C    0.129611
     8  C    0.069563
     9  N   -0.403240
    10  C   -0.207967
    11  C    0.155526
    12  C   -0.191077
    13  C   -0.195617
    14  C    0.377515
    15  F   -0.300531
    16  C   -0.199290
    17  C   -0.170813
    18  C   -0.127675
    19  C   -0.269987
    20  C   -0.160009
    21  N   -0.391015
    22  C   -0.207272
    23  C    0.152683
    24  C   -0.170229
    25  C   -0.129642
    26  C   -0.182227
    27  C    0.182841
    28  C   -0.529524
    29  C   -0.244649
    30  C   -0.176503
    31  C   -0.200024
    32  H    0.163259
    33  H    0.163180
    34  H    0.147747
    35  H    0.139921
    36  H    0.140269
    37  H    0.132888
    38  H    0.128804
    39  H    0.138031
    40  H    0.155558
    41  H    0.126947
    42  H    0.131046
    43  H    0.144093
    44  H    0.143601
    45  H    0.146717
    46  H    0.121368
    47  H    0.147181
    48  H    0.132281
    49  H    0.140518
    50  H    0.154555
    51  H    0.149973
    52  H    0.139482
    53  H    0.146158
    54  H    0.137578
    55  H    0.125590
    56  H    0.118840
    57  H    0.156607
    58  H    0.164529
    59  H    0.155154
    60  H    0.114165
    61  H    0.144805
    62  H    0.130281
 Sum of Mulliken charges =  -0.00000

 Dipole moment (field-independent basis, Debye):
    X=             -1.9766    Y=              1.1953    Z=             -0.0071  Tot=              2.3099
 Quadrupole moment (field-independent basis, Debye-Ang):
   XX=           -173.8636   YY=           -176.4192   ZZ=           -183.6285
   XY=              5.2079   XZ=              3.9281   YZ=             -1.5595

 Normal termination of Gaussian 16 at Fri Nov  4 23:02:30 2022.
