 Gaussian 16, Revision B.01,
 Gaussian 16:  ES64L-G16RevB.01 20-Dec-2017

 -----------------------------
 #p b3lyp/6-31g(d) opt SCF=XQC
 -----------------------------

 ------------------------------
 Gaussian input prepared by ASE
 ------------------------------
 Symbolic Z-matrix:
 Charge =  0 Multiplicity = 1

 SCF Done:  E(RB3LYP) =  -1644.08968406     A.U. after   16 cycles
 SCF Done:  E(RB3LYP) =  -1644.09889419     A.U. after   14 cycles
 SCF Done:  E(RB3LYP) =  -1644.10498592     A.U. after   15 cycles
 SCF Done:  E(RB3LYP) =  -1644.10567845     A.U. after   15 cycles
 SCF Done:  E(RB3LYP) =  -1644.10826250     A.U. after   13 cycles
 SCF Done:  E(RB3LYP) =  -1644.10945218     A.U. after   12 cycles
 SCF Done:  E(RB3LYP) =  -1644.11138085     A.U. after   14 cycles
 SCF Done:  E(RB3LYP) =  -1644.11245282     A.U. after   15 cycles
 SCF Done:  E(RB3LYP) =  -1644.11297790     A.U. after   14 cycles
 SCF Done:  E(RB3LYP) =  -1644.11333680     A.U. after   11 cycles
 SCF Done:  E(RB3LYP) =  -1644.11380168     A.U. after   11 cycles
 SCF Done:  E(RB3LYP) =  -1644.11382233     A.U. after   11 cycles
 SCF Done:  E(RB3LYP) =  -1644.11384183     A.U. after   11 cycles
 SCF Done:  E(RB3LYP) =  -1644.11385301     A.U. after   10 cycles
 SCF Done:  E(RB3LYP) =  -1644.11385971     A.U. after   10 cycles
 SCF Done:  E(RB3LYP) =  -1644.11386203     A.U. after   10 cycles
 SCF Done:  E(RB3LYP) =  -1644.11386271     A.U. after    9 cycles
 SCF Done:  E(RB3LYP) =  -1644.11386278     A.U. after    7 cycles
 SCF Done:  E(RB3LYP) =  -1644.11386281     A.U. after    6 cycles
 SCF Done:  E(RB3LYP) =  -1644.11386282     A.U. after    7 cycles
 Optimization completed.
    -- Stationary point found.

                         Standard orientation:
 ---------------------------------------------------------------------
 Center     Atomic      Atomic             Coordinates (Angstroms)
 Number     Number       Type             X           Y           Z
 ---------------------------------------------------------------------
      1          6           0        7.405926    3.206370    0.350464
      2          8           0        6.012463    2.952518    0.427234
      3          6           0        5.563252    1.730989    0.035244
      4          6           0        6.362761    0.696212   -0.443244
      5          6           0        5.798928   -0.532764   -0.811822
      6          6           0        4.424433   -0.723954   -0.719120
      7         16           0        3.729226   -2.290420   -1.257356
      8          6           0        3.073437   -2.987272    0.317519
      9          6           0        1.701678   -2.511987    0.824629
     10          8           0        1.422812   -2.649729    2.009010
     11          7           0        0.865184   -2.008144   -0.132098
     12          6           0       -0.462498   -1.541769    0.003901
     13          6           0       -1.098797   -1.049631   -1.140458
     14          6           0       -2.408283   -0.569027   -1.091193
     15          6           0       -3.103442   -0.577535    0.122632
     16          8           0       -4.385101   -0.130269    0.295155
     17          6           0       -5.103956    0.321106   -0.849694
     18          6           0       -6.512088    0.678585   -0.438163
     19          6           0       -7.136299    1.807332   -0.978275
     20          6           0       -8.457243    2.116050   -0.647668
     21          6           0       -9.163496    1.301473    0.237590
     22          6           0       -8.542970    0.177073    0.787822
     23          6           0       -7.227162   -0.135455    0.449198
     24          6           0       -2.466736   -1.068476    1.270587
     25          6           0       -1.163746   -1.546890    1.222693
     26          6           0        3.603962    0.320968   -0.253004
     27          6           0        4.159190    1.535266    0.138227
     28          8           0        3.454549    2.594921    0.616591
     29          6           0        2.051238    2.445290    0.776374
     30          1           0        7.541553    4.228536    0.707861
     31          1           0        7.773896    3.130034   -0.681396
     32          1           0        7.976904    2.519202    0.988928
     33          1           0        7.435392    0.829339   -0.523872
     34          1           0        6.437853   -1.334693   -1.166807
     35          1           0        3.010012   -4.069732    0.153280
     36          1           0        3.793122   -2.821105    1.121311
     37          1           0        1.269501   -1.941502   -1.061059
     38          1           0       -0.569283   -1.040779   -2.091070
     39          1           0       -2.864706   -0.194193   -1.999859
     40          1           0       -4.603518    1.192629   -1.295570
     41          1           0       -5.114728   -0.476997   -1.608822
     42          1           0       -6.585773    2.452342   -1.659859
     43          1           0       -8.928823    2.997331   -1.074333
     44          1           0      -10.189678    1.542792    0.501612
     45          1           0       -9.086016   -0.458683    1.482231
     46          1           0       -6.741270   -1.004201    0.882664
     47          1           0       -3.017512   -1.068530    2.206157
     48          1           0       -0.680068   -1.925669    2.112322
     49          1           0        2.532973    0.174459   -0.196621
     50          1           0        1.552315    2.264778   -0.184946
     51          1           0        1.698708    3.389787    1.193956
     52          1           0        1.808931    1.627318    1.466913
 ---------------------------------------------------------------------

 The electronic state is 1-A.
 Alpha  occ. eigenvalues --  -88.88622 -19.18244 -19.17937 -19.17738 -19.11874
 Alpha  occ. eigenvalues --  -14.37445 -10.29511 -10.25323 -10.25213 -10.24931
 Alpha  occ. eigenvalues --  -10.24560 -10.24440 -10.23929 -10.23194 -10.22523
 Alpha  occ. eigenvalues --  -10.21860 -10.19988 -10.19631 -10.19504 -10.19469
 Alpha  occ. eigenvalues --  -10.19412 -10.19298 -10.19280 -10.19203 -10.19124
 Alpha  occ. eigenvalues --  -10.19072 -10.18884 -10.18551 -10.18480  -7.94664
 Alpha  occ. eigenvalues --   -5.91181  -5.90799  -5.90154  -1.07805  -1.06383
 Alpha  occ. eigenvalues --   -1.05790  -1.03766  -0.94082  -0.86141  -0.85830
 Alpha  occ. eigenvalues --   -0.84576  -0.80381  -0.77992  -0.76449  -0.75237
 Alpha  occ. eigenvalues --   -0.74985  -0.74527  -0.73442  -0.71107  -0.70287
 Alpha  occ. eigenvalues --   -0.68810  -0.65669  -0.62813  -0.61672  -0.60668
 Alpha  occ. eigenvalues --   -0.60464  -0.58911  -0.58284  -0.56420  -0.54352
 Alpha  occ. eigenvalues --   -0.54126  -0.52728  -0.51578  -0.50819  -0.50283
 Alpha  occ. eigenvalues --   -0.48139  -0.48063  -0.47706  -0.46942  -0.46363
 Alpha  occ. eigenvalues --   -0.46040  -0.45559  -0.45499  -0.44779  -0.44036
 Alpha  occ. eigenvalues --   -0.43812  -0.43393  -0.42477  -0.42032  -0.41692
 Alpha  occ. eigenvalues --   -0.41403  -0.41154  -0.40513  -0.39540  -0.39074
 Alpha  occ. eigenvalues --   -0.38534  -0.37748  -0.37135  -0.36848  -0.35872
 Alpha  occ. eigenvalues --   -0.34980  -0.34590  -0.34459  -0.33500  -0.33141
 Alpha  occ. eigenvalues --   -0.32717  -0.32657  -0.32433  -0.31378  -0.28286
 Alpha  occ. eigenvalues --   -0.26863  -0.25326  -0.25104  -0.24618  -0.24449
 Alpha  occ. eigenvalues --   -0.23243  -0.20759  -0.20230
 Alpha virt. eigenvalues --   -0.01467  -0.00793  -0.00263  -0.00140  -0.00089
 Alpha virt. eigenvalues --    0.00485   0.04342   0.04781   0.06886   0.08794
 Alpha virt. eigenvalues --    0.09231   0.09579   0.09966   0.10500   0.11006

 Mulliken charges:
               1
     1  C   -0.217291
     2  O   -0.493193
     3  C    0.339291
     4  C   -0.195514
     5  C   -0.158894
     6  C   -0.092693
     7  S    0.061784
     8  C   -0.517926
     9  C    0.601356
    10  O   -0.497259
    11  N   -0.719070
    12  C    0.347528
    13  C   -0.211240
    14  C   -0.197875
    15  C    0.388234
    16  O   -0.523670
    17  C   -0.108806
    18  C    0.134069
    19  C   -0.180482
    20  C   -0.128944
    21  C   -0.126341
    22  C   -0.132727
    23  C   -0.158088
    24  C   -0.196042
    25  C   -0.166288
    26  C   -0.225642
    27  C    0.354746
    28  O   -0.498518
    29  C   -0.222206
    30  H    0.174136
    31  H    0.153047
    32  H    0.153815
    33  H    0.138061
    34  H    0.144965
    35  H    0.205614
    36  H    0.213017
    37  H    0.353840
    38  H    0.131184
    39  H    0.137124
    40  H    0.143889
    41  H    0.153684
    42  H    0.124148
    43  H    0.130999
    44  H    0.130820
    45  H    0.132636
    46  H    0.144025
    47  H    0.143502
    48  H    0.187802
    49  H    0.153599
    50  H    0.153674
    51  H    0.173051
    52  H    0.165067
 Sum of Mulliken charges =  -0.00000

 Dipole moment (field-independent basis, Debye):
    X=              0.5378    Y=              1.9080    Z=             -2.5894  Tot=              3.2611
 Quadrupole moment (field-independent basis, Debye-Ang):
   XX=           -136.7159   YY=           -173.3741   ZZ=           -178.5672
   XY=              2.5414   XZ=              1.9062   YZ=              1.0379

 Normal termination of Gaussian 16 at Fri Nov  4 23:04:36 2022.
