 Gaussian 16, Revision B.01,
 Gaussian 16:  ES64L-G16RevB.01 20-Dec-2017

 -------------------------------------------------------------------
 #p b3lyp/6-31g(d) 6D 10F nosymm GFInput td=(50-50,nstate=2) SCF=XQC
 -------------------------------------------------------------------

 ------------------------------
 Gaussian input prepared by ASE
 ------------------------------
 Symbolic Z-matrix:
 Charge =  0 Multiplicity = 1

                          Input orientation:
 ---------------------------------------------------------------------
 Center     Atomic      Atomic             Coordinates (Angstroms)
 Number     Number       Type             X           Y           Z
 ---------------------------------------------------------------------
      1          6           0       -7.534837    1.085594   -3.229061
      2          8           0       -6.158618    1.116483   -2.886801
      3          6           0       -5.697830    0.186824   -2.008742
      4          6           0       -6.470507   -0.803267   -1.407396
      5          6           0       -5.893197   -1.722907   -0.521330
      6          6           0       -4.537952   -1.642246   -0.219356
      7         16           0       -3.844160   -2.799106    0.966879
      8          6           0       -2.682277   -3.777319   -0.076683
      9          6           0       -1.290336   -3.198164   -0.379761
     10          8           0       -0.666707   -3.618252   -1.346256
     11          7           0       -0.833089   -2.271612    0.515411
     12          6           0        0.410855   -1.600358    0.543030
     13          6           0        0.625178   -0.671014    1.566270
     14          6           0        1.825067    0.035329    1.663774
     15          6           0        2.836971   -0.186239    0.723749
     16          8           0        4.050063    0.446824    0.713858
     17          6           0        4.347569    1.355502    1.770725
     18          6           0        5.760659    1.860612    1.603318
     19          6           0        6.061244    3.202596    1.856610
     20          6           0        7.374035    3.667977    1.759129
     21          6           0        8.398824    2.794147    1.395485
     22          6           0        8.104138    1.453994    1.132357
     23          6           0        6.794368    0.988499    1.239637
     24          6           0        2.623155   -1.115614   -0.303268
     25          6           0        1.429567   -1.818966   -0.401250
     26          6           0       -3.750165   -0.634675   -0.807991
     27          6           0       -4.310986    0.266382   -1.707677
     28          8           0       -3.631446    1.259947   -2.339558
     29          6           0       -2.234469    1.365552   -2.106094
     30          1           0       -7.683742    1.904897   -3.934413
     31          1           0       -8.173193    1.242471   -2.349372
     32          1           0       -7.809739    0.137394   -3.709891
     33          1           0       -7.528569   -0.878755   -1.630030
     34          1           0       -6.505782   -2.498907   -0.074235
     35          1           0       -2.538865   -4.724919    0.456424
     36          1           0       -3.153622   -4.009647   -1.033500
     37          1           0       -1.493493   -2.019375    1.244195
     38          1           0       -0.153409   -0.492347    2.305191
     39          1           0        1.950803    0.748229    2.470285
     40          1           0        3.638311    2.195554    1.762942
     41          1           0        4.234801    0.837743    2.736421
     42          1           0        5.263655    3.890613    2.128932
     43          1           0        7.592299    4.713925    1.957726
     44          1           0        9.420569    3.154946    1.312703
     45          1           0        8.897211    0.769262    0.843456
     46          1           0        6.562964   -0.050751    1.027232
     47          1           0        3.416529   -1.277207   -1.026519
     48          1           0        1.272923   -2.535601   -1.195450
     49          1           0       -2.699050   -0.564848   -0.559104
     50          1           0       -2.016566    1.585036   -1.052533
     51          1           0       -1.893000    2.196345   -2.725698
     52          1           0       -1.706144    0.449416   -2.399698
 ---------------------------------------------------------------------

 SCF Done:  E(RB3LYP) =  -1644.11385974     A.U. after   15 cycles

 Excitation energies and oscillator strengths:

 Excited state symmetry could not be determined.
 Excited State   1:      Triplet-?Sym    3.4280 eV  361.68 nm  f=0.0000  <S**2>=2.000
     102 ->110         0.15222
     102 ->111         0.10494
     102 ->112         0.10789
     102 ->113         0.17160
     108 ->109         0.38432
     108 ->110        -0.21022
     108 ->111        -0.29298
     108 ->112         0.26557
     108 ->114        -0.17056
     108 ->116        -0.15026
 This state for optimization and/or second-order correction.
 Total Energy, E(TD-HF/TD-DFT) =  -1643.98788392
 Copying the excited state density for this state as the 1-particle RhoCI density.

 Excited state symmetry could not be determined.
 Excited State   2:      Triplet-?Sym    3.4487 eV  359.50 nm  f=0.0000  <S**2>=2.000
     105 ->109        -0.14728
     105 ->114        -0.15231
     106 ->114        -0.10637
     107 ->109         0.44966
     107 ->110         0.16099
     107 ->111         0.19980
     107 ->112        -0.30165
     107 ->114        -0.21161

 Excited state symmetry could not be determined.
 Excited State   3:      Singlet-?Sym    4.6334 eV  267.59 nm  f=0.1719  <S**2>=0.000
     107 ->109         0.13631
     108 ->109         0.67342

 Excited state symmetry could not be determined.
 Excited State   4:      Singlet-?Sym    4.6913 eV  264.29 nm  f=0.1054  <S**2>=0.000
     105 ->109         0.11054
     105 ->114        -0.10488
     107 ->109         0.61902
     107 ->114         0.13325
     108 ->109        -0.11119
     108 ->110        -0.13099

 Alpha  occ. eigenvalues --  -88.88622 -19.18244 -19.17937 -19.17738 -19.11874
 Alpha  occ. eigenvalues --  -14.37446 -10.29511 -10.25323 -10.25213 -10.24931
 Alpha  occ. eigenvalues --  -10.24560 -10.24440 -10.23929 -10.23194 -10.22523
 Alpha  occ. eigenvalues --  -10.21860 -10.19988 -10.19631 -10.19504 -10.19469
 Alpha  occ. eigenvalues --  -10.19412 -10.19298 -10.19280 -10.19203 -10.19124
 Alpha  occ. eigenvalues --  -10.19072 -10.18884 -10.18551 -10.18480  -7.94664
 Alpha  occ. eigenvalues --   -5.91181  -5.90799  -5.90154  -1.07805  -1.06383
 Alpha  occ. eigenvalues --   -1.05790  -1.03766  -0.94082  -0.86141  -0.85830
 Alpha  occ. eigenvalues --   -0.84576  -0.80381  -0.77992  -0.76449  -0.75237
 Alpha  occ. eigenvalues --   -0.74985  -0.74527  -0.73442  -0.71107  -0.70287
 Alpha  occ. eigenvalues --   -0.68810  -0.65669  -0.62813  -0.61672  -0.60668
 Alpha  occ. eigenvalues --   -0.60464  -0.58911  -0.58284  -0.56420  -0.54352
 Alpha  occ. eigenvalues --   -0.54126  -0.52728  -0.51578  -0.50819  -0.50283
 Alpha  occ. eigenvalues --   -0.48139  -0.48063  -0.47706  -0.46942  -0.46363
 Alpha  occ. eigenvalues --   -0.46040  -0.45559  -0.45499  -0.44779  -0.44036
 Alpha  occ. eigenvalues --   -0.43812  -0.43393  -0.42477  -0.42032  -0.41692
 Alpha  occ. eigenvalues --   -0.41403  -0.41154  -0.40513  -0.39540  -0.39074
 Alpha  occ. eigenvalues --   -0.38534  -0.37748  -0.37135  -0.36848  -0.35872
 Alpha  occ. eigenvalues --   -0.34980  -0.34590  -0.34459  -0.33500  -0.33141
 Alpha  occ. eigenvalues --   -0.32717  -0.32657  -0.32433  -0.31378  -0.28286
 Alpha  occ. eigenvalues --   -0.26863  -0.25326  -0.25104  -0.24618  -0.24449
 Alpha  occ. eigenvalues --   -0.23243  -0.20759  -0.20230
 Alpha virt. eigenvalues --   -0.01467  -0.00793  -0.00263  -0.00140  -0.00089
 Alpha virt. eigenvalues --    0.00485   0.04342   0.04781   0.06886   0.08794
 Alpha virt. eigenvalues --    0.09231   0.09579   0.09966   0.10500   0.11006

 Mulliken charges:
               1
     1  C   -0.217296
     2  O   -0.493186
     3  C    0.339276
     4  C   -0.195512
     5  C   -0.158888
     6  C   -0.092683
     7  S    0.061783
     8  C   -0.517927
     9  C    0.601381
    10  O   -0.497270
    11  N   -0.719079
    12  C    0.347498
    13  C   -0.211235
    14  C   -0.197858
    15  C    0.388223
    16  O   -0.523670
    17  C   -0.108806
    18  C    0.134068
    19  C   -0.180467
    20  C   -0.128949
    21  C   -0.126352
    22  C   -0.132709
    23  C   -0.158100
    24  C   -0.196041
    25  C   -0.166268
    26  C   -0.225656
    27  C    0.354765
    28  O   -0.498525
    29  C   -0.222210
    30  H    0.174137
    31  H    0.153049
    32  H    0.153816
    33  H    0.138062
    34  H    0.144965
    35  H    0.205613
    36  H    0.213016
    37  H    0.353840
    38  H    0.131184
    39  H    0.137120
    40  H    0.143888
    41  H    0.153685
    42  H    0.124146
    43  H    0.130999
    44  H    0.130821
    45  H    0.132635
    46  H    0.144026
    47  H    0.143502
    48  H    0.187800
    49  H    0.153591
    50  H    0.153671
    51  H    0.173049
    52  H    0.165078
 Sum of Mulliken charges =  -0.00000

 Dipole moment (field-independent basis, Debye):
    X=             -1.4890    Y=              2.4316    Z=              1.5825  Tot=              3.2610
 Quadrupole moment (field-independent basis, Debye-Ang):
   XX=           -140.6372   YY=           -174.8153   ZZ=           -174.0924
   XY=              6.1048   XZ=             11.7175   YZ=             -0.8880

 Normal termination of Gaussian 16 at Sat Nov  5 09:55:34 2022.
