 Gaussian 16, Revision B.01,
 Gaussian 16:  ES64L-G16RevB.01 20-Dec-2017

 -------------------------------------------------------------------
 #p b3lyp/6-31g(d) 6D 10F nosymm GFInput td=(50-50,nstate=2) SCF=XQC
 -------------------------------------------------------------------

 ------------------------------
 Gaussian input prepared by ASE
 ------------------------------
 Symbolic Z-matrix:
 Charge =  0 Multiplicity = 1

                          Input orientation:
 ---------------------------------------------------------------------
 Center     Atomic      Atomic             Coordinates (Angstroms)
 Number     Number       Type             X           Y           Z
 ---------------------------------------------------------------------
      1          6           0        1.887594    0.290213    2.878466
      2          6           0        0.686158    1.034059    2.277619
      3          7           0       -0.337601    0.080686    1.829229
      4          6           0       -1.674542    0.672324    1.614274
      5          6           0       -1.923080    1.099316    0.176034
      6          6           0       -1.996835    2.457729   -0.145164
      7          6           0       -2.227393    2.884642   -1.455335
      8          6           0       -2.387303    1.945025   -2.470463
      9          6           0       -2.317319    0.584033   -2.163042
     10          6           0       -2.093116    0.147144   -0.853681
     11          6           0       -2.034789   -1.343207   -0.571892
     12          7           0       -3.214777   -1.858482    0.127153
     13          6           0       -4.508417   -1.845854   -0.288913
     14          6           0       -5.254118   -2.472420    0.691940
     15          6           0       -4.307373   -2.831655    1.674350
     16          7           0       -3.071540   -2.462021    1.332894
     17          6           0        1.132905    2.028850    1.183138
     18          8           0        1.073246    3.234509    1.409409
     19          7           0        1.653863    1.573476    0.001673
     20          6           0        1.709037    0.230735   -0.555450
     21          6           0        3.112001   -0.236053   -0.915380
     22          6           0        3.273004   -1.230684   -1.889376
     23          6           0        4.539263   -1.715425   -2.214587
     24          6           0        5.670359   -1.203599   -1.574509
     25          6           0        5.521485   -0.206721   -0.610008
     26          6           0        4.251248    0.273010   -0.282377
     27          1           0        1.566410   -0.306095    3.741573
     28          1           0        2.636360    1.007221    3.229720
     29          1           0        2.365468   -0.382004    2.159954
     30          1           0        0.283762    1.706214    3.052532
     31          1           0       -0.420872   -0.651570    2.531150
     32          1           0       -1.833757    1.540709    2.273476
     33          1           0       -2.407318   -0.086864    1.900527
     34          1           0       -1.844163    3.192866    0.640555
     35          1           0       -2.273778    3.947278   -1.677509
     36          1           0       -2.563639    2.263059   -3.494495
     37          1           0       -2.438966   -0.153198   -2.954529
     38          1           0       -1.918210   -1.894083   -1.512346
     39          1           0       -1.191130   -1.587240    0.075248
     40          1           0       -4.792313   -1.391511   -1.227466
     41          1           0       -6.321215   -2.641671    0.695525
     42          1           0       -4.469553   -3.342675    2.614694
     43          1           0        1.906224    2.336648   -0.617090
     44          1           0        1.073893    0.186436   -1.451400
     45          1           0        1.244245   -0.442389    0.167894
     46          1           0        2.396874   -1.627637   -2.398941
     47          1           0        4.643937   -2.486658   -2.973403
     48          1           0        6.658963   -1.575077   -1.830599
     49          1           0        6.395864    0.202711   -0.110539
     50          1           0        4.140952    1.055903    0.462223
 ---------------------------------------------------------------------

 SCF Done:  E(RB3LYP) =  -1108.89850547     A.U. after   15 cycles

 Excitation energies and oscillator strengths:

 Excited state symmetry could not be determined.
 Excited State   1:      Triplet-?Sym    3.6714 eV  337.70 nm  f=0.0000  <S**2>=2.000
      85 -> 94        -0.31252
      85 -> 95         0.19893
      87 -> 94        -0.16283
      87 -> 95        -0.30546
      87 -> 96        -0.10090
      91 -> 94         0.41489
 This state for optimization and/or second-order correction.
 Total Energy, E(TD-HF/TD-DFT) =  -1108.76358401
 Copying the excited state density for this state as the 1-particle RhoCI density.

 Excited state symmetry could not be determined.
 Excited State   2:      Triplet-?Sym    3.7442 eV  331.14 nm  f=0.0000  <S**2>=2.000
      86 -> 97        -0.31981
      87 -> 97        -0.14200
      88 -> 95        -0.11915
      88 -> 96         0.44895
      92 -> 96         0.10114
      92 -> 97        -0.23731
      93 -> 96         0.13659
      93 -> 97        -0.21683

 Excited state symmetry could not be determined.
 Excited State   3:      Singlet-?Sym    5.0014 eV  247.90 nm  f=0.0009  <S**2>=0.000
      92 -> 94        -0.14331
      93 -> 94         0.66722

 Excited state symmetry could not be determined.
 Excited State   4:      Singlet-?Sym    5.2575 eV  235.82 nm  f=0.0028  <S**2>=0.000
      87 -> 94        -0.14266
      89 -> 94        -0.16333
      89 -> 99        -0.18506
      92 -> 94         0.53007
      92 -> 99         0.25718
      93 -> 94         0.11838
      93 -> 99        -0.13669

 Alpha  occ. eigenvalues --  -19.10120 -14.40776 -14.35294 -14.34369 -14.33003
 Alpha  occ. eigenvalues --  -10.27752 -10.23236 -10.22303 -10.22235 -10.21727
 Alpha  occ. eigenvalues --  -10.21190 -10.20247 -10.19962 -10.19762 -10.19760
 Alpha  occ. eigenvalues --  -10.19594 -10.19390 -10.19227 -10.19096 -10.19000
 Alpha  occ. eigenvalues --  -10.18956 -10.18871 -10.18870 -10.18694 -10.18688
 Alpha  occ. eigenvalues --  -10.17833  -1.04128  -1.02172  -0.91805  -0.90776
 Alpha  occ. eigenvalues --   -0.86515  -0.85123  -0.83359  -0.78181  -0.77517
 Alpha  occ. eigenvalues --   -0.76415  -0.75575  -0.74399  -0.74300  -0.69114
 Alpha  occ. eigenvalues --   -0.68726  -0.66266  -0.64363  -0.60523  -0.60393
 Alpha  occ. eigenvalues --   -0.59895  -0.58794  -0.58348  -0.56837  -0.55637
 Alpha  occ. eigenvalues --   -0.52882  -0.51765  -0.50505  -0.49484  -0.48827
 Alpha  occ. eigenvalues --   -0.48252  -0.46740  -0.46456  -0.45975  -0.44822
 Alpha  occ. eigenvalues --   -0.44040  -0.43741  -0.43502  -0.42911  -0.42574
 Alpha  occ. eigenvalues --   -0.41840  -0.41561  -0.41304  -0.40872  -0.40506
 Alpha  occ. eigenvalues --   -0.39574  -0.39413  -0.38508  -0.38312  -0.37257
 Alpha  occ. eigenvalues --   -0.36501  -0.36112  -0.35473  -0.34954  -0.34391
 Alpha  occ. eigenvalues --   -0.34074  -0.33874  -0.33706  -0.28770  -0.25572
 Alpha  occ. eigenvalues --   -0.25209  -0.25108  -0.24958  -0.24480  -0.24208
 Alpha  occ. eigenvalues --   -0.24056  -0.23554  -0.22890
 Alpha virt. eigenvalues --   -0.01567  -0.00514  -0.00244   0.00020   0.02054
 Alpha virt. eigenvalues --    0.03063   0.07186   0.08137   0.09484   0.09587
 Alpha virt. eigenvalues --    0.10413   0.10772   0.11844   0.12353   0.12684

 Mulliken charges:
               1
     1  C   -0.479585
     2  C   -0.039291
     3  N   -0.561938
     4  C   -0.260689
     5  C    0.145264
     6  C   -0.183407
     7  C   -0.127485
     8  C   -0.127810
     9  C   -0.197636
    10  C    0.118211
    11  C   -0.248243
    12  N   -0.228761
    13  C    0.077598
    14  C   -0.241070
    15  C    0.039577
    16  N   -0.304952
    17  C    0.597494
    18  O   -0.526724
    19  N   -0.590901
    20  C   -0.213685
    21  C    0.140851
    22  C   -0.181061
    23  C   -0.128209
    24  C   -0.129484
    25  C   -0.130449
    26  C   -0.176751
    27  H    0.148619
    28  H    0.168858
    29  H    0.168046
    30  H    0.146476
    31  H    0.313161
    32  H    0.142002
    33  H    0.183227
    34  H    0.152090
    35  H    0.136228
    36  H    0.131321
    37  H    0.123833
    38  H    0.161277
    39  H    0.205618
    40  H    0.159911
    41  H    0.135084
    42  H    0.140034
    43  H    0.326868
    44  H    0.158788
    45  H    0.209407
    46  H    0.120274
    47  H    0.129468
    48  H    0.129216
    49  H    0.130972
    50  H    0.138358
 Sum of Mulliken charges =  -0.00000

 Dipole moment (field-independent basis, Debye):
    X=             -0.5067    Y=             -1.7815    Z=             -1.9173  Tot=              2.6658
 Quadrupole moment (field-independent basis, Debye-Ang):
   XX=           -141.2867   YY=           -164.0350   ZZ=           -141.5168
   XY=             -4.2928   XZ=              2.5795   YZ=             -2.9388

 Normal termination of Gaussian 16 at Sat Nov  5 09:52:57 2022.
