 Gaussian 16, Revision B.01,
 Gaussian 16:  ES64L-G16RevB.01 20-Dec-2017

 -----------------------------
 #p b3lyp/6-31g(d) opt SCF=XQC
 -----------------------------

 ------------------------------
 Gaussian input prepared by ASE
 ------------------------------
 Symbolic Z-matrix:
 Charge =  0 Multiplicity = 1

 SCF Done:  E(RB3LYP) =  -1108.88675871     A.U. after   15 cycles
 SCF Done:  E(RB3LYP) =  -1108.89222377     A.U. after   14 cycles
 SCF Done:  E(RB3LYP) =  -1108.89261848     A.U. after   15 cycles
 SCF Done:  E(RB3LYP) =  -1108.89576683     A.U. after   13 cycles
 SCF Done:  E(RB3LYP) =  -1108.89722877     A.U. after   14 cycles
 SCF Done:  E(RB3LYP) =  -1108.89785753     A.U. after   12 cycles
 SCF Done:  E(RB3LYP) =  -1108.89799083     A.U. after   11 cycles
 SCF Done:  E(RB3LYP) =  -1108.89810889     A.U. after   11 cycles
 SCF Done:  E(RB3LYP) =  -1108.89820878     A.U. after   11 cycles
 SCF Done:  E(RB3LYP) =  -1108.89829186     A.U. after   11 cycles
 SCF Done:  E(RB3LYP) =  -1108.89849183     A.U. after   10 cycles
 SCF Done:  E(RB3LYP) =  -1108.89849830     A.U. after   10 cycles
 SCF Done:  E(RB3LYP) =  -1108.89849951     A.U. after    9 cycles
 SCF Done:  E(RB3LYP) =  -1108.89849945     A.U. after    8 cycles
 SCF Done:  E(RB3LYP) =  -1108.89849968     A.U. after    8 cycles
 SCF Done:  E(RB3LYP) =  -1108.89849991     A.U. after    7 cycles
 SCF Done:  E(RB3LYP) =  -1108.89850039     A.U. after    7 cycles
 SCF Done:  E(RB3LYP) =  -1108.89850083     A.U. after    7 cycles
 SCF Done:  E(RB3LYP) =  -1108.89850124     A.U. after    7 cycles
 SCF Done:  E(RB3LYP) =  -1108.89850145     A.U. after    7 cycles
 Optimization completed.
    -- Stationary point found.

                         Standard orientation:
 ---------------------------------------------------------------------
 Center     Atomic      Atomic             Coordinates (Angstroms)
 Number     Number       Type             X           Y           Z
 ---------------------------------------------------------------------
      1          6           0        1.671128    0.732174    2.964416
      2          6           0        0.632479    1.413004    2.061395
      3          7           0       -0.436112    0.470218    1.704571
      4          6           0       -1.667539    1.104877    1.190324
      5          6           0       -1.709050    1.203930   -0.326611
      6          6           0       -1.595797    2.451276   -0.947251
      7          6           0       -1.633491    2.578615   -2.338051
      8          6           0       -1.785566    1.444905   -3.132097
      9          6           0       -1.901332    0.192161   -2.524695
     10          6           0       -1.870938    0.055498   -1.133305
     11          6           0       -2.009826   -1.327577   -0.523580
     12          7           0       -3.308833   -1.565310    0.110934
     13          6           0       -4.540037   -1.542131   -0.463848
     14          6           0       -5.453094   -1.858220    0.524657
     15          6           0       -4.664747   -2.056190    1.677837
     16          7           0       -3.365688   -1.880837    1.428431
     17          6           0        1.303563    2.084299    0.842340
     18          8           0        1.354177    3.310137    0.786385
     19          7           0        1.896044    1.324132   -0.130148
     20          6           0        1.861742   -0.111294   -0.364161
     21          6           0        3.234828   -0.764558   -0.424394
     22          6           0        3.389158   -1.968761   -1.124364
     23          6           0        4.621430   -2.619914   -1.165032
     24          6           0        5.726059   -2.069177   -0.511176
     25          6           0        5.584992   -0.866024    0.180715
     26          6           0        4.347971   -0.218828    0.224308
     27          1           0        1.193594    0.382515    3.888211
     28          1           0        2.452342    1.446260    3.243552
     29          1           0        2.146550   -0.126530    2.481611
     30          1           0        0.225471    2.278501    2.608630
     31          1           0       -0.676224   -0.068595    2.533940
     32          1           0       -1.799902    2.113212    1.614271
     33          1           0       -2.507013    0.497250    1.538663
     34          1           0       -1.448666    3.333986   -0.330596
     35          1           0       -1.536888    3.560207   -2.793961
     36          1           0       -1.812946    1.528955   -4.215179
     37          1           0       -2.017422   -0.696513   -3.142385
     38          1           0       -1.853647   -2.090321   -1.295162
     39          1           0       -1.274012   -1.483513    0.266587
     40          1           0       -4.667799   -1.297108   -1.508619
     41          1           0       -6.526412   -1.932303    0.425398
     42          1           0       -4.984127   -2.318478    2.678283
     43          1           0        2.297577    1.898177   -0.863788
     44          1           0        1.326888   -0.310128   -1.303572
     45          1           0        1.249007   -0.555980    0.422709
     46          1           0        2.534972   -2.399049   -1.644027
     47          1           0        4.721566   -3.552800   -1.713898
     48          1           0        6.689142   -2.571305   -0.546584
     49          1           0        6.439936   -0.425853    0.687632
     50          1           0        4.245124    0.722509    0.756119
 ---------------------------------------------------------------------

 The electronic state is 1-A.
 Alpha  occ. eigenvalues --  -19.10120 -14.40776 -14.35294 -14.34369 -14.33003
 Alpha  occ. eigenvalues --  -10.27752 -10.23236 -10.22303 -10.22235 -10.21727
 Alpha  occ. eigenvalues --  -10.21190 -10.20247 -10.19961 -10.19762 -10.19760
 Alpha  occ. eigenvalues --  -10.19594 -10.19390 -10.19227 -10.19096 -10.19000
 Alpha  occ. eigenvalues --  -10.18957 -10.18871 -10.18870 -10.18694 -10.18689
 Alpha  occ. eigenvalues --  -10.17833  -1.04128  -1.02172  -0.91806  -0.90777
 Alpha  occ. eigenvalues --   -0.86515  -0.85123  -0.83359  -0.78181  -0.77517
 Alpha  occ. eigenvalues --   -0.76415  -0.75575  -0.74399  -0.74300  -0.69114
 Alpha  occ. eigenvalues --   -0.68726  -0.66266  -0.64363  -0.60523  -0.60393
 Alpha  occ. eigenvalues --   -0.59895  -0.58794  -0.58348  -0.56838  -0.55637
 Alpha  occ. eigenvalues --   -0.52882  -0.51765  -0.50505  -0.49484  -0.48827
 Alpha  occ. eigenvalues --   -0.48252  -0.46740  -0.46456  -0.45975  -0.44822
 Alpha  occ. eigenvalues --   -0.44040  -0.43741  -0.43502  -0.42912  -0.42574
 Alpha  occ. eigenvalues --   -0.41840  -0.41561  -0.41304  -0.40872  -0.40506
 Alpha  occ. eigenvalues --   -0.39574  -0.39413  -0.38508  -0.38312  -0.37257
 Alpha  occ. eigenvalues --   -0.36502  -0.36112  -0.35473  -0.34954  -0.34391
 Alpha  occ. eigenvalues --   -0.34074  -0.33874  -0.33706  -0.28769  -0.25572
 Alpha  occ. eigenvalues --   -0.25209  -0.25108  -0.24958  -0.24480  -0.24207
 Alpha  occ. eigenvalues --   -0.24056  -0.23554  -0.22890
 Alpha virt. eigenvalues --   -0.01567  -0.00514  -0.00244   0.00020   0.02055
 Alpha virt. eigenvalues --    0.03062   0.07186   0.08137   0.09485   0.09587
 Alpha virt. eigenvalues --    0.10413   0.10772   0.11844   0.12353   0.12684

 Mulliken charges:
               1
     1  C   -0.479584
     2  C   -0.039295
     3  N   -0.561915
     4  C   -0.260722
     5  C    0.145295
     6  C   -0.183413
     7  C   -0.127485
     8  C   -0.127812
     9  C   -0.197644
    10  C    0.118208
    11  C   -0.248230
    12  N   -0.228779
    13  C    0.077630
    14  C   -0.241095
    15  C    0.039596
    16  N   -0.304958
    17  C    0.597477
    18  O   -0.526718
    19  N   -0.590892
    20  C   -0.213706
    21  C    0.140849
    22  C   -0.181058
    23  C   -0.128207
    24  C   -0.129486
    25  C   -0.130453
    26  C   -0.176744
    27  H    0.148620
    28  H    0.168857
    29  H    0.168047
    30  H    0.146476
    31  H    0.313155
    32  H    0.142002
    33  H    0.183230
    34  H    0.152092
    35  H    0.136228
    36  H    0.131322
    37  H    0.123834
    38  H    0.161276
    39  H    0.205615
    40  H    0.159910
    41  H    0.135083
    42  H    0.140034
    43  H    0.326869
    44  H    0.158789
    45  H    0.209412
    46  H    0.120275
    47  H    0.129468
    48  H    0.129217
    49  H    0.130972
    50  H    0.138358
 Sum of Mulliken charges =  -0.00000

 Dipole moment (field-independent basis, Debye):
    X=             -0.4901    Y=             -2.1308    Z=             -1.5251  Tot=              2.6657
 Quadrupole moment (field-independent basis, Debye-Ang):
   XX=           -143.0840   YY=           -163.1191   ZZ=           -140.4517
   XY=             -5.8199   XZ=              3.3656   YZ=              1.5679

 Normal termination of Gaussian 16 at Fri Nov  4 23:21:54 2022.
