 Gaussian 16, Revision B.01,
 Gaussian 16:  ES64L-G16RevB.01 20-Dec-2017

 -----------------------------
 #p b3lyp/6-31g(d) opt SCF=XQC
 -----------------------------

 ------------------------------
 Gaussian input prepared by ASE
 ------------------------------
 Symbolic Z-matrix:
 Charge =  0 Multiplicity = 1

 SCF Done:  E(RB3LYP) =  -1721.64367618     A.U. after   15 cycles
 SCF Done:  E(RB3LYP) =  -1721.65417121     A.U. after   15 cycles
 SCF Done:  E(RB3LYP) =  -1721.65388845     A.U. after   15 cycles
 SCF Done:  E(RB3LYP) =  -1721.66042792     A.U. after   13 cycles
 SCF Done:  E(RB3LYP) =  -1721.66082984     A.U. after   13 cycles
 SCF Done:  E(RB3LYP) =  -1721.66106284     A.U. after   12 cycles
 SCF Done:  E(RB3LYP) =  -1721.66140043     A.U. after   11 cycles
 SCF Done:  E(RB3LYP) =  -1721.66147700     A.U. after   12 cycles
 SCF Done:  E(RB3LYP) =  -1721.66151245     A.U. after   11 cycles
 SCF Done:  E(RB3LYP) =  -1721.66152335     A.U. after   10 cycles
 SCF Done:  E(RB3LYP) =  -1721.66153297     A.U. after    9 cycles
 SCF Done:  E(RB3LYP) =  -1721.66153406     A.U. after    9 cycles
 SCF Done:  E(RB3LYP) =  -1721.66153641     A.U. after    9 cycles
 SCF Done:  E(RB3LYP) =  -1721.66153928     A.U. after   10 cycles
 SCF Done:  E(RB3LYP) =  -1721.66154154     A.U. after   10 cycles
 SCF Done:  E(RB3LYP) =  -1721.66154487     A.U. after   11 cycles
 SCF Done:  E(RB3LYP) =  -1721.66154602     A.U. after    9 cycles
 SCF Done:  E(RB3LYP) =  -1721.66154638     A.U. after    9 cycles
 SCF Done:  E(RB3LYP) =  -1721.66154643     A.U. after    7 cycles
 SCF Done:  E(RB3LYP) =  -1721.66154644     A.U. after    6 cycles
 Optimization completed.
    -- Stationary point found.

                         Standard orientation:
 ---------------------------------------------------------------------
 Center     Atomic      Atomic             Coordinates (Angstroms)
 Number     Number       Type             X           Y           Z
 ---------------------------------------------------------------------
      1          6           0       -6.376774    2.973105   -1.294642
      2          8           0       -5.245465    2.162950   -1.573925
      3          6           0       -4.318830    1.981335   -0.590820
      4          6           0       -4.399814    2.539308    0.692691
      5          6           0       -3.385494    2.282935    1.619255
      6          6           0       -2.302139    1.474378    1.292763
      7          6           0       -2.218461    0.913215    0.005340
      8          6           0       -1.087893    0.040791   -0.447459
      9          8           0       -0.970369   -0.263553   -1.627933
     10          6           0       -0.056933   -0.466195    0.564710
     11          6           0        0.376631   -1.957589    0.331756
     12          6           0       -0.589409   -2.835281   -0.500552
     13          8           0       -0.194051   -3.418362   -1.491610
     14          6           0       -1.994049   -3.027391   -0.006201
     15          6           0       -2.929875   -3.567547   -0.903081
     16          6           0       -4.244538   -3.787204   -0.505516
     17          6           0       -4.640679   -3.484587    0.801111
     18          6           0       -3.716338   -2.959847    1.704858
     19          6           0       -2.400476   -2.726867    1.302849
     20          7           0        1.706889   -1.901419   -0.247164
     21          6           0        2.633464   -2.868243    0.063642
     22          6           0        3.965913   -2.679727   -0.026433
     23          6           0        4.485223   -1.386073   -0.426894
     24          6           0        5.866097   -1.151020   -0.550334
     25          6           0        6.355222    0.079104   -0.979067
     26          6           0        5.465746    1.102093   -1.310495
     27          6           0        4.091002    0.886677   -1.188279
     28          6           0        3.587316   -0.333484   -0.729642
     29          6           0        2.082641   -0.539017   -0.610971
     30          6           0        1.293231    0.332611    0.459968
     31          6           0        1.983476    0.283872    1.844839
     32          8           0        2.124810   -0.686867    2.566432
     33          7           0        2.372948    1.572893    2.145883
     34          6           0        1.951803    2.495901    1.182236
     35          6           0        2.150073    3.870631    1.158970
     36          6           0        1.640037    4.582774    0.066808
     37          6           0        0.962277    3.928987   -0.963261
     38          6           0        0.774081    2.539878   -0.923935
     39          6           0        1.259933    1.817233    0.161511
     40          6           0       -3.226269    1.176863   -0.927487
     41          1           0       -6.977503    2.559304   -0.473815
     42          1           0       -6.972257    2.978578   -2.209097
     43          1           0       -6.085513    4.002282   -1.046055
     44          1           0       -5.236253    3.167684    0.976647
     45          1           0       -3.449299    2.725817    2.609315
     46          1           0       -1.523678    1.309132    2.028598
     47          1           0       -0.450996   -0.373313    1.576254
     48          1           0        0.449589   -2.422190    1.324178
     49          1           0       -2.597945   -3.805244   -1.908355
     50          1           0       -4.962446   -4.197223   -1.210695
     51          1           0       -5.666496   -3.660981    1.113801
     52          1           0       -4.017101   -2.733349    2.724050
     53          1           0       -1.692436   -2.332235    2.025176
     54          1           0        2.204992   -3.817907    0.367942
     55          1           0        4.648295   -3.494002    0.188405
     56          1           0        6.555193   -1.957664   -0.310670
     57          1           0        7.427510    0.234008   -1.069722
     58          1           0        5.833396    2.058287   -1.672402
     59          1           0        3.404729    1.680387   -1.466235
     60          1           0        1.607480   -0.282368   -1.568640
     61          1           0        2.865014    1.795334    3.000099
     62          1           0        2.688343    4.376064    1.955771
     63          1           0        1.781081    5.659235    0.023166
     64          1           0        0.577577    4.497370   -1.804766
     65          1           0        0.255257    2.040952   -1.735774
     66          1           0       -3.161954    0.748683   -1.921355
 ---------------------------------------------------------------------

 The electronic state is 1-A.
 Alpha  occ. eigenvalues --  -19.18839 -19.14682 -19.13194 -19.12822 -14.38131
 Alpha  occ. eigenvalues --  -14.34510 -10.29628 -10.28543 -10.27045 -10.26105
 Alpha  occ. eigenvalues --  -10.25081 -10.24027 -10.23422 -10.23256 -10.22604
 Alpha  occ. eigenvalues --  -10.22070 -10.20973 -10.20693 -10.20678 -10.20639
 Alpha  occ. eigenvalues --  -10.20388 -10.20326 -10.20166 -10.20140 -10.20114
 Alpha  occ. eigenvalues --  -10.20021 -10.19958 -10.19917 -10.19765 -10.19701
 Alpha  occ. eigenvalues --  -10.19662 -10.19462 -10.19164 -10.18347 -10.18242
 Alpha  occ. eigenvalues --  -10.17497 -10.17428 -10.17184 -10.17054 -10.15269
 Alpha  occ. eigenvalues --   -1.07496  -1.04919  -1.04672  -1.03341  -0.96502
 Alpha  occ. eigenvalues --   -0.95569  -0.86657  -0.86126  -0.85330  -0.84320
 Alpha  occ. eigenvalues --   -0.82652  -0.78784  -0.77409  -0.76908  -0.76427
 Alpha  occ. eigenvalues --   -0.75579  -0.75204  -0.75085  -0.74302  -0.71792
 Alpha  occ. eigenvalues --   -0.71112  -0.70755  -0.68395  -0.65159  -0.64110
 Alpha  occ. eigenvalues --   -0.62287  -0.61701  -0.61299  -0.61192  -0.60024
 Alpha  occ. eigenvalues --   -0.59605  -0.59389  -0.57616  -0.56132  -0.55266
 Alpha  occ. eigenvalues --   -0.54303  -0.53440  -0.51881  -0.51090  -0.51000
 Alpha  occ. eigenvalues --   -0.50174  -0.49571  -0.49151  -0.48131  -0.47944
 Alpha  occ. eigenvalues --   -0.47842  -0.47319  -0.46178  -0.46078  -0.45604
 Alpha  occ. eigenvalues --   -0.45457  -0.44746  -0.44208  -0.44076  -0.43995
 Alpha  occ. eigenvalues --   -0.43638  -0.43054  -0.42843  -0.42500  -0.42025
 Alpha  occ. eigenvalues --   -0.41520  -0.41037  -0.40714  -0.40069  -0.39670
 Alpha  occ. eigenvalues --   -0.39328  -0.39024  -0.38202  -0.38042  -0.37775
 Alpha  occ. eigenvalues --   -0.37675  -0.37199  -0.37044  -0.36935  -0.36401
 Alpha  occ. eigenvalues --   -0.36090  -0.35289  -0.34856  -0.34463  -0.34085
 Alpha  occ. eigenvalues --   -0.33812  -0.32923  -0.32412  -0.32191  -0.31334
 Alpha  occ. eigenvalues --   -0.30528  -0.26685  -0.26485  -0.25992  -0.25869
 Alpha  occ. eigenvalues --   -0.25513  -0.25443  -0.24749  -0.23890  -0.23333
 Alpha  occ. eigenvalues --   -0.23087  -0.22112  -0.16269
 Alpha virt. eigenvalues --   -0.06816  -0.04936  -0.02226  -0.00898  -0.00737
 Alpha virt. eigenvalues --   -0.00511  -0.00464   0.01397   0.02777   0.03534
 Alpha virt. eigenvalues --    0.04540   0.07005   0.08273   0.08675   0.08974

 Mulliken charges:
               1
     1  C   -0.218040
     2  O   -0.503630
     3  C    0.383174
     4  C   -0.183030
     5  C   -0.143245
     6  C   -0.174571
     7  C    0.087817
     8  C    0.419555
     9  O   -0.486281
    10  C   -0.235600
    11  C   -0.047335
    12  C    0.408303
    13  O   -0.445560
    14  C    0.073789
    15  C   -0.146793
    16  C   -0.133858
    17  C   -0.118436
    18  C   -0.132277
    19  C   -0.185177
    20  N   -0.432927
    21  C    0.100688
    22  C   -0.252148
    23  C    0.169649
    24  C   -0.206908
    25  C   -0.126330
    26  C   -0.142735
    27  C   -0.197975
    28  C    0.064583
    29  C   -0.000001
    30  C   -0.137606
    31  C    0.637067
    32  O   -0.506868
    33  N   -0.729627
    34  C    0.355507
    35  C   -0.179746
    36  C   -0.137028
    37  C   -0.139190
    38  C   -0.218685
    39  C    0.088861
    40  C   -0.210740
    41  H    0.153310
    42  H    0.175861
    43  H    0.153716
    44  H    0.139725
    45  H    0.138008
    46  H    0.139038
    47  H    0.160813
    48  H    0.180389
    49  H    0.167209
    50  H    0.138594
    51  H    0.135828
    52  H    0.135157
    53  H    0.139624
    54  H    0.145895
    55  H    0.119317
    56  H    0.121587
    57  H    0.121763
    58  H    0.120609
    59  H    0.139086
    60  H    0.184492
    61  H    0.332719
    62  H    0.132268
    63  H    0.133793
    64  H    0.133574
    65  H    0.167361
    66  H    0.173620
 Sum of Mulliken charges =  -0.00000

 Dipole moment (field-independent basis, Debye):
    X=             -5.3361    Y=              5.6059    Z=              3.9888  Tot=              8.7069
 Quadrupole moment (field-independent basis, Debye-Ang):
   XX=           -194.4798   YY=           -212.4039   ZZ=           -227.9610
   XY=              1.6882   XZ=              0.2047   YZ=             -1.2982

 Normal termination of Gaussian 16 at Fri Nov  4 23:43:55 2022.
