 Gaussian 16, Revision B.01,
 Gaussian 16:  ES64L-G16RevB.01 20-Dec-2017

 -------------------------------------------------------------------
 #p b3lyp/6-31g(d) 6D 10F nosymm GFInput td=(50-50,nstate=2) SCF=XQC
 -------------------------------------------------------------------

 ------------------------------
 Gaussian input prepared by ASE
 ------------------------------
 Symbolic Z-matrix:
 Charge =  0 Multiplicity = 1

                          Input orientation:
 ---------------------------------------------------------------------
 Center     Atomic      Atomic             Coordinates (Angstroms)
 Number     Number       Type             X           Y           Z
 ---------------------------------------------------------------------
      1          6           0        6.225752    2.763789   -1.346999
      2          8           0        4.947965    2.231297   -1.659925
      3          6           0        4.081771    1.979835   -0.637865
      4          6           0        4.359392    2.211874    0.716526
      5          6           0        3.390442    1.912802    1.678183
      6          6           0        2.150880    1.398824    1.313037
      7          6           0        1.869756    1.165006   -0.045515
      8          6           0        0.571796    0.603036   -0.539300
      9          8           0        0.451171    0.245310   -1.704392
     10          6           0       -0.614397    0.456266    0.417678
     11          6           0       -1.995781    0.836640   -0.225436
     12          6           0       -1.946897    1.738618   -1.482559
     13          8           0       -2.483709    1.386799   -2.515294
     14          6           0       -1.308520    3.093088   -1.372141
     15          6           0       -1.007469    3.768289   -2.566043
     16          6           0       -0.430452    5.033519   -2.536209
     17          6           0       -0.159561    5.650737   -1.310876
     18          6           0       -0.466528    4.995031   -0.118258
     19          6           0       -1.033295    3.720154   -0.147335
     20          7           0       -2.679924   -0.419359   -0.475042
     21          6           0       -4.045907   -0.496819   -0.340943
     22          6           0       -4.706538   -1.646852   -0.095870
     23          6           0       -3.964327   -2.879648    0.085596
     24          6           0       -4.613574   -4.103636    0.325664
     25          6           0       -3.897348   -5.289801    0.453306
     26          6           0       -2.507590   -5.278147    0.326985
     27          6           0       -1.846765   -4.069764    0.093781
     28          6           0       -2.551064   -2.866902   -0.005854
     29          6           0       -1.802050   -1.565962   -0.264511
     30          6           0       -0.812505   -1.038405    0.863453
     31          6           0       -1.494112   -1.033922    2.253443
     32          8           0       -2.444596   -0.360401    2.608342
     33          7           0       -0.786465   -1.909347    3.051415
     34          6           0        0.337731   -2.432196    2.402775
     35          6           0        1.280549   -3.325778    2.895057
     36          6           0        2.317024   -3.715118    2.038181
     37          6           0        2.392526   -3.224719    0.733709
     38          6           0        1.429866   -2.325291    0.253187
     39          6           0        0.401237   -1.914342    1.095507
     40          6           0        2.841303    1.452942   -1.009124
     41          1           0        6.146394    3.742344   -0.855067
     42          1           0        6.741225    2.881669   -2.301593
     43          1           0        6.801577    2.082865   -0.706218
     44          1           0        5.314563    2.618143    1.029117
     45          1           0        3.615046    2.086148    2.726962
     46          1           0        1.427655    1.161490    2.084645
     47          1           0       -0.460026    1.076238    1.300252
     48          1           0       -2.556282    1.390923    0.539212
     49          1           0       -1.236363    3.275308   -3.505102
     50          1           0       -0.193430    5.542913   -3.466329
     51          1           0        0.286430    6.641552   -1.287052
     52          1           0       -0.267669    5.475287    0.835850
     53          1           0       -1.278831    3.232756    0.791264
     54          1           0       -4.563300    0.447982   -0.473996
     55          1           0       -5.789234   -1.654443   -0.045306
     56          1           0       -5.698439   -4.111367    0.402964
     57          1           0       -4.423651   -6.223622    0.634962
     58          1           0       -1.938598   -6.201041    0.397442
     59          1           0       -0.767568   -4.071247   -0.022565
     60          1           0       -1.159931   -1.689716   -1.148335
     61          1           0       -1.052802   -2.091959    4.009023
     62          1           0        1.213298   -3.715639    3.906775
     63          1           0        3.068051   -4.413256    2.397525
     64          1           0        3.201218   -3.541527    0.081917
     65          1           0        1.492545   -1.959222   -0.766251
     66          1           0        2.628335    1.269971   -2.056222
 ---------------------------------------------------------------------

 SCF Done:  E(RB3LYP) =  -1721.66154600     A.U. after   15 cycles

 Excitation energies and oscillator strengths:

 Excited state symmetry could not be determined.
 Excited State   1:      Triplet-?Sym    2.0065 eV  617.91 nm  f=0.0000  <S**2>=2.000
     138 ->139         0.70345
 This state for optimization and/or second-order correction.
 Total Energy, E(TD-HF/TD-DFT) =  -1721.58780855
 Copying the excited state density for this state as the 1-particle RhoCI density.

 Excited state symmetry could not be determined.
 Excited State   2:      Singlet-?Sym    2.0175 eV  614.53 nm  f=0.0002  <S**2>=0.000
     138 ->139         0.70510

 Excited state symmetry could not be determined.
 Excited State   3:      Triplet-?Sym    2.4448 eV  507.14 nm  f=0.0000  <S**2>=2.000
     138 ->140         0.69594

 Excited state symmetry could not be determined.
 Excited State   4:      Singlet-?Sym    2.4895 eV  498.02 nm  f=0.0095  <S**2>=0.000
     138 ->140         0.70401

 Alpha  occ. eigenvalues --  -19.18839 -19.14682 -19.13194 -19.12822 -14.38131
 Alpha  occ. eigenvalues --  -14.34510 -10.29628 -10.28543 -10.27045 -10.26105
 Alpha  occ. eigenvalues --  -10.25081 -10.24027 -10.23422 -10.23256 -10.22604
 Alpha  occ. eigenvalues --  -10.22070 -10.20973 -10.20693 -10.20678 -10.20639
 Alpha  occ. eigenvalues --  -10.20388 -10.20326 -10.20166 -10.20140 -10.20114
 Alpha  occ. eigenvalues --  -10.20021 -10.19958 -10.19917 -10.19765 -10.19701
 Alpha  occ. eigenvalues --  -10.19662 -10.19462 -10.19164 -10.18347 -10.18242
 Alpha  occ. eigenvalues --  -10.17497 -10.17428 -10.17184 -10.17054 -10.15269
 Alpha  occ. eigenvalues --   -1.07496  -1.04919  -1.04672  -1.03341  -0.96502
 Alpha  occ. eigenvalues --   -0.95569  -0.86657  -0.86126  -0.85330  -0.84320
 Alpha  occ. eigenvalues --   -0.82652  -0.78784  -0.77409  -0.76908  -0.76427
 Alpha  occ. eigenvalues --   -0.75579  -0.75204  -0.75085  -0.74302  -0.71792
 Alpha  occ. eigenvalues --   -0.71112  -0.70755  -0.68395  -0.65160  -0.64110
 Alpha  occ. eigenvalues --   -0.62287  -0.61701  -0.61299  -0.61192  -0.60024
 Alpha  occ. eigenvalues --   -0.59605  -0.59389  -0.57616  -0.56132  -0.55266
 Alpha  occ. eigenvalues --   -0.54303  -0.53440  -0.51881  -0.51090  -0.51000
 Alpha  occ. eigenvalues --   -0.50174  -0.49571  -0.49151  -0.48131  -0.47944
 Alpha  occ. eigenvalues --   -0.47842  -0.47319  -0.46178  -0.46078  -0.45604
 Alpha  occ. eigenvalues --   -0.45457  -0.44746  -0.44208  -0.44076  -0.43995
 Alpha  occ. eigenvalues --   -0.43638  -0.43054  -0.42843  -0.42500  -0.42025
 Alpha  occ. eigenvalues --   -0.41520  -0.41037  -0.40714  -0.40069  -0.39670
 Alpha  occ. eigenvalues --   -0.39328  -0.39024  -0.38202  -0.38042  -0.37775
 Alpha  occ. eigenvalues --   -0.37675  -0.37199  -0.37044  -0.36935  -0.36401
 Alpha  occ. eigenvalues --   -0.36089  -0.35289  -0.34856  -0.34463  -0.34085
 Alpha  occ. eigenvalues --   -0.33812  -0.32923  -0.32412  -0.32191  -0.31334
 Alpha  occ. eigenvalues --   -0.30528  -0.26685  -0.26485  -0.25992  -0.25869
 Alpha  occ. eigenvalues --   -0.25513  -0.25443  -0.24749  -0.23890  -0.23333
 Alpha  occ. eigenvalues --   -0.23087  -0.22112  -0.16269
 Alpha virt. eigenvalues --   -0.06816  -0.04936  -0.02226  -0.00898  -0.00737
 Alpha virt. eigenvalues --   -0.00511  -0.00464   0.01397   0.02777   0.03534
 Alpha virt. eigenvalues --    0.04540   0.07005   0.08273   0.08675   0.08974

 Mulliken charges:
               1
     1  C   -0.218037
     2  O   -0.503625
     3  C    0.383170
     4  C   -0.183026
     5  C   -0.143257
     6  C   -0.174559
     7  C    0.087802
     8  C    0.419581
     9  O   -0.486278
    10  C   -0.235577
    11  C   -0.047322
    12  C    0.408305
    13  O   -0.445563
    14  C    0.073760
    15  C   -0.146801
    16  C   -0.133832
    17  C   -0.118446
    18  C   -0.132285
    19  C   -0.185140
    20  N   -0.432931
    21  C    0.100653
    22  C   -0.252126
    23  C    0.169642
    24  C   -0.206905
    25  C   -0.126326
    26  C   -0.142740
    27  C   -0.197967
    28  C    0.064566
    29  C    0.000026
    30  C   -0.137683
    31  C    0.637099
    32  O   -0.506868
    33  N   -0.729650
    34  C    0.355529
    35  C   -0.179752
    36  C   -0.137022
    37  C   -0.139193
    38  C   -0.218680
    39  C    0.088866
    40  C   -0.210752
    41  H    0.153308
    42  H    0.175861
    43  H    0.153716
    44  H    0.139724
    45  H    0.138009
    46  H    0.139036
    47  H    0.160814
    48  H    0.180387
    49  H    0.167208
    50  H    0.138592
    51  H    0.135828
    52  H    0.135158
    53  H    0.139618
    54  H    0.145897
    55  H    0.119318
    56  H    0.121587
    57  H    0.121764
    58  H    0.120613
    59  H    0.139080
    60  H    0.184491
    61  H    0.332718
    62  H    0.132267
    63  H    0.133793
    64  H    0.133574
    65  H    0.167359
    66  H    0.173622
 Sum of Mulliken charges =  -0.00000

 Dipole moment (field-independent basis, Debye):
    X=              6.9821    Y=              2.5333    Z=              4.5434  Tot=              8.7069
 Quadrupole moment (field-independent basis, Debye-Ang):
   XX=           -210.0427   YY=           -202.4867   ZZ=           -224.6740
   XY=              7.5807   XZ=             -1.4003   YZ=             -8.1893

 Normal termination of Gaussian 16 at Sat Nov  5 10:07:15 2022.
