 Gaussian 16, Revision B.01,
 Gaussian 16:  ES64L-G16RevB.01 20-Dec-2017

 -------------------------------------------------------------------
 #p b3lyp/6-31g(d) 6D 10F nosymm GFInput td=(50-50,nstate=2) SCF=XQC
 -------------------------------------------------------------------

 ------------------------------
 Gaussian input prepared by ASE
 ------------------------------
 Symbolic Z-matrix:
 Charge =  0 Multiplicity = 1

                          Input orientation:
 ---------------------------------------------------------------------
 Center     Atomic      Atomic             Coordinates (Angstroms)
 Number     Number       Type             X           Y           Z
 ---------------------------------------------------------------------
      1          6           0       -1.389537   -2.845414    2.990857
      2          6           0       -1.490341   -3.424001    1.575720
      3          6           0       -1.042796   -2.471589    0.438320
      4          7           0        0.373458   -2.137976    0.581116
      5          6           0        1.259197   -2.251801   -0.444859
      6          8           0        0.996891   -2.728691   -1.543812
      7          6           0        2.690402   -1.753220   -0.109146
      8          6           0        3.725593   -2.496092   -0.949014
      9          7           0        2.812615   -0.273824   -0.283693
     10          6           0        2.754616    0.318086   -1.587417
     11          6           0        3.927585    0.596778   -2.298289
     12          6           0        3.874838    1.156347   -3.574769
     13          6           0        2.637623    1.449273   -4.152182
     14          6           0        1.455870    1.185529   -3.459531
     15          6           0        1.528651    0.626938   -2.190192
     16          9           0        0.394530    0.380661   -1.521104
     17         16           0        2.556167    0.734558    1.048929
     18          6           0        4.221195    1.204141    1.564813
     19          8           0        1.877646    1.952947    0.610057
     20          8           0        1.996619   -0.098947    2.128875
     21          6           0       -1.950054   -1.249079    0.311373
     22          6           0       -3.166386   -1.375005   -0.374840
     23          6           0       -4.028259   -0.290120   -0.487870
     24          6           0       -3.713189    0.956851    0.071021
     25          6           0       -2.496729    1.095582    0.759174
     26          6           0       -1.640668   -0.009630    0.871790
     27          6           0       -2.057788    2.427805    1.344874
     28          6           0       -3.197495    3.447880    1.465743
     29          6           0       -4.029279    3.481660    0.178660
     30          6           0       -4.685629    2.116358   -0.064060
     31          1           0       -1.748392   -3.572052    3.728241
     32          1           0       -0.354773   -2.598575    3.258154
     33          1           0       -1.990352   -1.935805    3.095288
     34          1           0       -2.529501   -3.714372    1.375937
     35          1           0       -0.885850   -4.337418    1.504747
     36          1           0       -1.100501   -3.027815   -0.501500
     37          1           0        0.678779   -1.622307    1.399065
     38          1           0        2.882348   -1.938153    0.949855
     39          1           0        3.674497   -3.565586   -0.721872
     40          1           0        4.734704   -2.137411   -0.722260
     41          1           0        3.522892   -2.377893   -2.015025
     42          1           0        4.881327    0.358626   -1.836914
     43          1           0        4.794115    1.361889   -4.114623
     44          1           0        2.588520    1.885024   -5.145938
     45          1           0        0.480508    1.403738   -3.881147
     46          1           0        4.700163    1.736007    0.740888
     47          1           0        4.118832    1.860148    2.432415
     48          1           0        4.777611    0.303360    1.829359
     49          1           0       -3.430676   -2.324750   -0.835919
     50          1           0       -4.963419   -0.403702   -1.033608
     51          1           0       -0.699795    0.131054    1.396881
     52          1           0       -1.589514    2.262238    2.323487
     53          1           0       -1.262174    2.841428    0.707612
     54          1           0       -3.851042    3.178002    2.307931
     55          1           0       -2.786502    4.439520    1.691286
     56          1           0       -3.376363    3.734777   -0.668730
     57          1           0       -4.798774    4.261811    0.230642
     58          1           0       -5.157267    2.088251   -1.055015
     59          1           0       -5.504749    1.983960    0.660217
 ---------------------------------------------------------------------

 SCF Done:  E(RB3LYP) =  -1727.08489362     A.U. after   15 cycles

 Excitation energies and oscillator strengths:

 Excited state symmetry could not be determined.
 Excited State   1:      Triplet-?Sym    3.6454 eV  340.11 nm  f=0.0000  <S**2>=2.000
     114 ->118         0.47955
     115 ->119        -0.46717
     115 ->120         0.18532
 This state for optimization and/or second-order correction.
 Total Energy, E(TD-HF/TD-DFT) =  -1726.95092639
 Copying the excited state density for this state as the 1-particle RhoCI density.

 Excited state symmetry could not be determined.
 Excited State   2:      Triplet-?Sym    3.7297 eV  332.43 nm  f=0.0000  <S**2>=2.000
     110 ->116         0.46813
     110 ->117         0.10244
     111 ->116         0.15159
     111 ->117        -0.43269
     112 ->116         0.12111
     112 ->117        -0.13001
     113 ->116        -0.11689

 Excited state symmetry could not be determined.
 Excited State   3:      Singlet-?Sym    4.7001 eV  263.79 nm  f=0.0002  <S**2>=0.000
     115 ->116         0.70631

 Excited state symmetry could not be determined.
 Excited State   4:      Singlet-?Sym    4.8408 eV  256.13 nm  f=0.0048  <S**2>=0.000
     113 ->116         0.68657

 Alpha  occ. eigenvalues --  -89.12424 -24.71007 -19.15677 -19.15186 -19.10449
 Alpha  occ. eigenvalues --  -14.38270 -14.34502 -10.28044 -10.27641 -10.24351
 Alpha  occ. eigenvalues --  -10.24230 -10.23542 -10.21494 -10.21005 -10.20885
 Alpha  occ. eigenvalues --  -10.20262 -10.20251 -10.18305 -10.17837 -10.17761
 Alpha  occ. eigenvalues --  -10.17626 -10.17575 -10.17537 -10.17213 -10.17090
 Alpha  occ. eigenvalues --  -10.17076 -10.17032 -10.16962 -10.16811 -10.16612
 Alpha  occ. eigenvalues --   -8.14917  -6.11425  -6.11348  -6.11201  -1.22300
 Alpha  occ. eigenvalues --   -1.12075  -1.02277  -1.01198  -0.95106  -0.91327
 Alpha  occ. eigenvalues --   -0.86376  -0.84676  -0.80334  -0.79015  -0.77997
 Alpha  occ. eigenvalues --   -0.76796  -0.75902  -0.75025  -0.74240  -0.72673
 Alpha  occ. eigenvalues --   -0.70220  -0.67955  -0.65164  -0.64803  -0.62813
 Alpha  occ. eigenvalues --   -0.61631  -0.60560  -0.59378  -0.58472  -0.57507
 Alpha  occ. eigenvalues --   -0.56347  -0.54797  -0.53744  -0.53194  -0.51870
 Alpha  occ. eigenvalues --   -0.50934  -0.49289  -0.48735  -0.48215  -0.47741
 Alpha  occ. eigenvalues --   -0.47106  -0.46807  -0.45853  -0.45607  -0.45053
 Alpha  occ. eigenvalues --   -0.44665  -0.43803  -0.43479  -0.43038  -0.42764
 Alpha  occ. eigenvalues --   -0.42085  -0.41479  -0.41294  -0.41017  -0.40447
 Alpha  occ. eigenvalues --   -0.39912  -0.39144  -0.38733  -0.38416  -0.37847
 Alpha  occ. eigenvalues --   -0.37341  -0.36974  -0.36751  -0.36353  -0.36094
 Alpha  occ. eigenvalues --   -0.35681  -0.35044  -0.34569  -0.33786  -0.33454
 Alpha  occ. eigenvalues --   -0.32873  -0.32698  -0.32025  -0.31618  -0.31341
 Alpha  occ. eigenvalues --   -0.31219  -0.29938  -0.29445  -0.28179  -0.26700
 Alpha  occ. eigenvalues --   -0.25123  -0.24111  -0.23365  -0.22424  -0.21533
 Alpha virt. eigenvalues --   -0.02641  -0.00765   0.01274   0.01658   0.02180
 Alpha virt. eigenvalues --    0.06039   0.06406   0.07518   0.08793   0.09062
 Alpha virt. eigenvalues --    0.09737   0.10314   0.10775   0.11706   0.12282

 Mulliken charges:
               1
     1  C   -0.462003
     2  C   -0.244841
     3  C   -0.063414
     4  N   -0.635046
     5  C    0.637651
     6  O   -0.529628
     7  C   -0.066344
     8  C   -0.445901
     9  N   -0.669474
    10  C    0.193370
    11  C   -0.145940
    12  C   -0.141183
    13  C   -0.117717
    14  C   -0.203723
    15  C    0.425464
    16  F   -0.269867
    17  S    1.232008
    18  C   -0.613924
    19  O   -0.520101
    20  O   -0.572963
    21  C    0.186893
    22  C   -0.183244
    23  C   -0.192313
    24  C    0.120944
    25  C    0.113026
    26  C   -0.255943
    27  C   -0.339808
    28  C   -0.266323
    29  C   -0.263849
    30  C   -0.340025
    31  H    0.145210
    32  H    0.142677
    33  H    0.161482
    34  H    0.140115
    35  H    0.138826
    36  H    0.176224
    37  H    0.376491
    38  H    0.173820
    39  H    0.163001
    40  H    0.135512
    41  H    0.187992
    42  H    0.137523
    43  H    0.138475
    44  H    0.144242
    45  H    0.158784
    46  H    0.206488
    47  H    0.216026
    48  H    0.200792
    49  H    0.117945
    50  H    0.114069
    51  H    0.133104
    52  H    0.145101
    53  H    0.167582
    54  H    0.131917
    55  H    0.130624
    56  H    0.136148
    57  H    0.128214
    58  H    0.140001
    59  H    0.145830
 Sum of Mulliken charges =  -0.00000

 Dipole moment (field-independent basis, Debye):
    X=              4.0950    Y=              1.3698    Z=              0.1184  Tot=              4.3196
 Quadrupole moment (field-independent basis, Debye-Ang):
   XX=           -151.8163   YY=           -185.1623   ZZ=           -177.4413
   XY=              2.8223   XZ=              1.1546   YZ=             -9.2694

 Normal termination of Gaussian 16 at Sat Nov  5 09:53:01 2022.
