 Gaussian 16, Revision B.01,
 Gaussian 16:  ES64L-G16RevB.01 20-Dec-2017

 -----------------------------
 #p b3lyp/6-31g(d) opt SCF=XQC
 -----------------------------

 ------------------------------
 Gaussian input prepared by ASE
 ------------------------------
 Symbolic Z-matrix:
 Charge =  0 Multiplicity = 1

 SCF Done:  E(RB3LYP) =  -1727.06953959     A.U. after   15 cycles
 SCF Done:  E(RB3LYP) =  -1727.07718054     A.U. after   14 cycles
 SCF Done:  E(RB3LYP) =  -1727.08036546     A.U. after   15 cycles
 SCF Done:  E(RB3LYP) =  -1727.08065796     A.U. after   14 cycles
 SCF Done:  E(RB3LYP) =  -1727.07824029     A.U. after   13 cycles
 SCF Done:  E(RB3LYP) =  -1727.08242227     A.U. after   12 cycles
 SCF Done:  E(RB3LYP) =  -1727.08405494     A.U. after   12 cycles
 SCF Done:  E(RB3LYP) =  -1727.08363843     A.U. after   12 cycles
 SCF Done:  E(RB3LYP) =  -1727.08448923     A.U. after   11 cycles
 SCF Done:  E(RB3LYP) =  -1727.08465548     A.U. after   11 cycles
 SCF Done:  E(RB3LYP) =  -1727.08479601     A.U. after   11 cycles
 SCF Done:  E(RB3LYP) =  -1727.08482524     A.U. after   10 cycles
 SCF Done:  E(RB3LYP) =  -1727.08486294     A.U. after   10 cycles
 SCF Done:  E(RB3LYP) =  -1727.08487693     A.U. after   10 cycles
 SCF Done:  E(RB3LYP) =  -1727.08488764     A.U. after   10 cycles
 SCF Done:  E(RB3LYP) =  -1727.08489048     A.U. after    9 cycles
 SCF Done:  E(RB3LYP) =  -1727.08489098     A.U. after    8 cycles
 SCF Done:  E(RB3LYP) =  -1727.08489106     A.U. after    8 cycles
 SCF Done:  E(RB3LYP) =  -1727.08489114     A.U. after    7 cycles
 SCF Done:  E(RB3LYP) =  -1727.08489116     A.U. after    6 cycles
 Optimization completed.
    -- Stationary point found.

                         Standard orientation:
 ---------------------------------------------------------------------
 Center     Atomic      Atomic             Coordinates (Angstroms)
 Number     Number       Type             X           Y           Z
 ---------------------------------------------------------------------
      1          6           0        2.004585    3.922687    1.074759
      2          6           0        1.642107    3.858347   -0.412523
      3          6           0        1.045513    2.510397   -0.890193
      4          7           0       -0.220041    2.243525   -0.208566
      5          6           0       -1.354234    1.903320   -0.877879
      6          8           0       -1.464121    1.881462   -2.099097
      7          6           0       -2.559456    1.567001    0.040796
      8          6           0       -3.874711    1.873463   -0.669868
      9          7           0       -2.515121    0.148286    0.509087
     10          6           0       -2.724581   -0.933345   -0.407221
     11          6           0       -3.993567   -1.503129   -0.561767
     12          6           0       -4.205304   -2.544083   -1.465582
     13          6           0       -3.138549   -3.030942   -2.223813
     14          6           0       -1.863951   -2.482206   -2.081842
     15          6           0       -1.673086   -1.445457   -1.177814
     16          9           0       -0.447742   -0.923227   -1.035089
     17         16           0       -1.773745   -0.206307    1.986621
     18          6           0       -3.157927   -0.444860    3.120682
     19          8           0       -1.073000   -1.485130    1.881567
     20          8           0       -1.069009    1.011488    2.427564
     21          6           0        2.048144    1.362020   -0.791571
     22          6           0        3.007238    1.209774   -1.803089
     23          6           0        3.951009    0.191464   -1.732969
     24          6           0        3.974501   -0.712764   -0.661343
     25          6           0        3.017597   -0.571341    0.356945
     26          6           0        2.076408    0.465356    0.276706
     27          6           0        2.942081   -1.543856    1.522726
     28          6           0        4.204073   -2.400909    1.686823
     29          6           0        4.658611   -2.955776    0.332162
     30          6           0        5.028279   -1.806232   -0.614228
     31          1           0        2.441568    4.896885    1.320729
     32          1           0        1.123831    3.793016    1.715516
     33          1           0        2.732864    3.150138    1.343186
     34          1           0        2.538958    4.055853   -1.013131
     35          1           0        0.918714    4.648279   -0.652290
     36          1           0        0.771860    2.623717   -1.942928
     37          1           0       -0.220688    2.111982    0.796855
     38          1           0       -2.485931    2.174456    0.945296
     39          1           0       -3.915355    2.940672   -0.909527
     40          1           0       -4.726138    1.625687   -0.027956
     41          1           0       -3.949207    1.323871   -1.609994
     42          1           0       -4.813299   -1.109814    0.031994
     43          1           0       -5.197030   -2.971722   -1.576780
     44          1           0       -3.295706   -3.841313   -2.929816
     45          1           0       -1.015796   -2.840428   -2.655440
     46          1           0       -3.759832   -1.280319    2.758932
     47          1           0       -2.736920   -0.676338    4.101869
     48          1           0       -3.744212    0.474644    3.162795
     49          1           0        3.003091    1.884077   -2.657347
     50          1           0        4.681203    0.082052   -2.533032
     51          1           0        1.339059    0.541426    1.071240
     52          1           0        2.733395   -0.992188    2.448194
     53          1           0        2.071462   -2.199154    1.371744
     54          1           0        5.014046   -1.792875    2.115164
     55          1           0        4.011384   -3.214161    2.397195
     56          1           0        3.845503   -3.550751   -0.107493
     57          1           0        5.515587   -3.629859    0.453264
     58          1           0        5.209725   -2.187092   -1.627761
     59          1           0        5.983953   -1.369606   -0.283912
 ---------------------------------------------------------------------

 The electronic state is 1-A.
 Alpha  occ. eigenvalues --  -89.12424 -24.71007 -19.15677 -19.15186 -19.10449
 Alpha  occ. eigenvalues --  -14.38270 -14.34502 -10.28044 -10.27641 -10.24350
 Alpha  occ. eigenvalues --  -10.24230 -10.23542 -10.21494 -10.21005 -10.20885
 Alpha  occ. eigenvalues --  -10.20262 -10.20251 -10.18305 -10.17837 -10.17761
 Alpha  occ. eigenvalues --  -10.17626 -10.17575 -10.17537 -10.17213 -10.17090
 Alpha  occ. eigenvalues --  -10.17076 -10.17033 -10.16962 -10.16811 -10.16612
 Alpha  occ. eigenvalues --   -8.14917  -6.11425  -6.11348  -6.11201  -1.22300
 Alpha  occ. eigenvalues --   -1.12074  -1.02277  -1.01198  -0.95106  -0.91327
 Alpha  occ. eigenvalues --   -0.86376  -0.84677  -0.80334  -0.79015  -0.77997
 Alpha  occ. eigenvalues --   -0.76796  -0.75902  -0.75025  -0.74240  -0.72673
 Alpha  occ. eigenvalues --   -0.70220  -0.67955  -0.65164  -0.64803  -0.62813
 Alpha  occ. eigenvalues --   -0.61631  -0.60560  -0.59378  -0.58472  -0.57507
 Alpha  occ. eigenvalues --   -0.56347  -0.54797  -0.53744  -0.53194  -0.51870
 Alpha  occ. eigenvalues --   -0.50934  -0.49289  -0.48735  -0.48215  -0.47741
 Alpha  occ. eigenvalues --   -0.47106  -0.46807  -0.45853  -0.45607  -0.45053
 Alpha  occ. eigenvalues --   -0.44665  -0.43803  -0.43479  -0.43038  -0.42764
 Alpha  occ. eigenvalues --   -0.42085  -0.41479  -0.41294  -0.41017  -0.40447
 Alpha  occ. eigenvalues --   -0.39912  -0.39144  -0.38733  -0.38416  -0.37847
 Alpha  occ. eigenvalues --   -0.37341  -0.36974  -0.36751  -0.36353  -0.36094
 Alpha  occ. eigenvalues --   -0.35681  -0.35044  -0.34569  -0.33786  -0.33454
 Alpha  occ. eigenvalues --   -0.32873  -0.32697  -0.32025  -0.31618  -0.31341
 Alpha  occ. eigenvalues --   -0.31219  -0.29938  -0.29445  -0.28178  -0.26700
 Alpha  occ. eigenvalues --   -0.25123  -0.24111  -0.23365  -0.22424  -0.21533
 Alpha virt. eigenvalues --   -0.02641  -0.00765   0.01274   0.01658   0.02180
 Alpha virt. eigenvalues --    0.06039   0.06406   0.07518   0.08793   0.09062
 Alpha virt. eigenvalues --    0.09737   0.10314   0.10775   0.11706   0.12282

 Mulliken charges:
               1
     1  C   -0.461996
     2  C   -0.244861
     3  C   -0.063394
     4  N   -0.635010
     5  C    0.637600
     6  O   -0.529627
     7  C   -0.066332
     8  C   -0.445897
     9  N   -0.669458
    10  C    0.193351
    11  C   -0.145931
    12  C   -0.141187
    13  C   -0.117720
    14  C   -0.203716
    15  C    0.425451
    16  F   -0.269856
    17  S    1.232058
    18  C   -0.613929
    19  O   -0.520115
    20  O   -0.572981
    21  C    0.186865
    22  C   -0.183233
    23  C   -0.192320
    24  C    0.120941
    25  C    0.113024
    26  C   -0.255940
    27  C   -0.339785
    28  C   -0.266333
    29  C   -0.263892
    30  C   -0.339998
    31  H    0.145210
    32  H    0.142677
    33  H    0.161483
    34  H    0.140117
    35  H    0.138826
    36  H    0.176223
    37  H    0.376493
    38  H    0.173820
    39  H    0.163001
    40  H    0.135510
    41  H    0.187989
    42  H    0.137520
    43  H    0.138476
    44  H    0.144241
    45  H    0.158782
    46  H    0.206488
    47  H    0.216026
    48  H    0.200791
    49  H    0.117946
    50  H    0.114069
    51  H    0.133108
    52  H    0.145098
    53  H    0.167578
    54  H    0.131918
    55  H    0.130628
    56  H    0.136155
    57  H    0.128220
    58  H    0.140000
    59  H    0.145829
 Sum of Mulliken charges =  -0.00000

 Dipole moment (field-independent basis, Debye):
    X=             -3.6808    Y=             -1.2628    Z=              1.8749  Tot=              4.3195
 Quadrupole moment (field-independent basis, Debye-Ang):
   XX=           -158.3976   YY=           -176.8598   ZZ=           -181.3294
   XY=              4.4705   XZ=            -11.2230   YZ=              7.8589

 Normal termination of Gaussian 16 at Fri Nov  4 22:13:52 2022.
