 Gaussian 16, Revision B.01,
 Gaussian 16:  ES64L-G16RevB.01 20-Dec-2017

 -----------------------------
 #p b3lyp/6-31g(d) opt SCF=XQC
 -----------------------------

 ------------------------------
 Gaussian input prepared by ASE
 ------------------------------
 Symbolic Z-matrix:
 Charge =  0 Multiplicity = 1

 SCF Done:  E(RB3LYP) =  -1614.17654833     A.U. after   15 cycles
 SCF Done:  E(RB3LYP) =  -1614.18518035     A.U. after   14 cycles
 SCF Done:  E(RB3LYP) =  -1614.18668120     A.U. after   13 cycles
 SCF Done:  E(RB3LYP) =  -1614.18835686     A.U. after   12 cycles
 SCF Done:  E(RB3LYP) =  -1614.18847062     A.U. after   12 cycles
 SCF Done:  E(RB3LYP) =  -1614.18871484     A.U. after   11 cycles
 SCF Done:  E(RB3LYP) =  -1614.18876255     A.U. after   12 cycles
 SCF Done:  E(RB3LYP) =  -1614.18879281     A.U. after   10 cycles
 SCF Done:  E(RB3LYP) =  -1614.18881478     A.U. after   10 cycles
 SCF Done:  E(RB3LYP) =  -1614.18882879     A.U. after   10 cycles
 SCF Done:  E(RB3LYP) =  -1614.18883724     A.U. after    9 cycles
 SCF Done:  E(RB3LYP) =  -1614.18883747     A.U. after    9 cycles
 SCF Done:  E(RB3LYP) =  -1614.18883771     A.U. after    9 cycles
 SCF Done:  E(RB3LYP) =  -1614.18883817     A.U. after    9 cycles
 SCF Done:  E(RB3LYP) =  -1614.18883856     A.U. after    9 cycles
 SCF Done:  E(RB3LYP) =  -1614.18883912     A.U. after    9 cycles
 SCF Done:  E(RB3LYP) =  -1614.18883931     A.U. after    9 cycles
 SCF Done:  E(RB3LYP) =  -1614.18883965     A.U. after    8 cycles
 SCF Done:  E(RB3LYP) =  -1614.18883982     A.U. after    7 cycles
 SCF Done:  E(RB3LYP) =  -1614.18883991     A.U. after    6 cycles
 Optimization completed.
    -- Stationary point found.

                         Standard orientation:
 ---------------------------------------------------------------------
 Center     Atomic      Atomic             Coordinates (Angstroms)
 Number     Number       Type             X           Y           Z
 ---------------------------------------------------------------------
      1          6           0       -6.673593    3.933179    1.568214
      2          6           0       -5.350095    4.355661    0.917722
      3          6           0       -4.886584    3.450065   -0.235493
      4          6           0       -4.492998    2.035646    0.212134
      5          7           0       -4.030695    1.203519   -0.895786
      6          6           0       -2.739826    0.801683   -1.025996
      7          8           0       -1.847489    1.146563   -0.255614
      8          6           0       -2.387105   -0.105739   -2.241456
      9          6           0       -3.516066   -0.372213   -3.246176
     10          7           0       -1.736075   -1.340471   -1.784907
     11          6           0       -2.571847   -2.476122   -1.363945
     12          6           0       -3.387917   -2.247973   -0.103735
     13          6           0       -2.760467   -1.889969    1.099527
     14          6           0       -3.501098   -1.701673    2.263850
     15          6           0       -4.880346   -1.882317    2.218408
     16          9           0       -5.603027   -1.698817    3.344906
     17          6           0       -5.535531   -2.246788    1.049721
     18          6           0       -4.775868   -2.426574   -0.108954
     19          6           0       -0.375589   -1.427501   -1.528257
     20          8           0        0.101429   -2.422390   -0.988694
     21          6           0        0.521638   -0.271537   -1.974832
     22          6           0        2.001915   -0.493283   -1.639039
     23          6           0        2.299223   -0.444466   -0.129888
     24          7           0        3.720325   -0.322795    0.159866
     25          6           0        4.524272   -1.411721    0.576224
     26          8           0        4.123815   -2.547565    0.755580
     27          6           0        5.902793   -0.846279    0.736299
     28          6           0        7.119991   -1.372017    1.116961
     29          6           0        8.232103   -0.489824    1.154709
     30          6           0        8.129491    0.858279    0.829602
     31          6           0        6.882384    1.418011    0.437537
     32          6           0        6.569497    2.763962    0.075719
     33          6           0        5.270984    3.090137   -0.267875
     34          6           0        4.196780    2.146521   -0.288455
     35          6           0        4.485316    0.843825    0.054736
     36          6           0        5.814432    0.511680    0.409720
     37          1           0       -6.603012    2.950981    2.049017
     38          1           0       -7.480117    3.883240    0.825693
     39          1           0       -6.976988    4.650826    2.338574
     40          1           0       -4.561299    4.397908    1.681778
     41          1           0       -5.453268    5.378338    0.532606
     42          1           0       -4.018375    3.902991   -0.730539
     43          1           0       -5.681878    3.387637   -0.993509
     44          1           0       -3.669343    2.077843    0.928737
     45          1           0       -5.333570    1.525992    0.696845
     46          1           0       -4.725095    0.826435   -1.522830
     47          1           0       -1.629635    0.469860   -2.776979
     48          1           0       -3.142818   -0.990060   -4.068773
     49          1           0       -4.372877   -0.890718   -2.803712
     50          1           0       -3.868723    0.573244   -3.671852
     51          1           0       -1.873427   -3.300945   -1.210833
     52          1           0       -3.237620   -2.754691   -2.187364
     53          1           0       -1.683324   -1.758245    1.120407
     54          1           0       -3.027491   -1.424013    3.199804
     55          1           0       -6.611552   -2.387830    1.056859
     56          1           0       -5.276833   -2.722811   -1.028608
     57          1           0        0.161124    0.651268   -1.507593
     58          1           0        0.414716   -0.142022   -3.061316
     59          1           0        2.341586   -1.455318   -2.035197
     60          1           0        2.580893    0.291477   -2.141956
     61          1           0        1.778249    0.402236    0.336470
     62          1           0        1.954450   -1.363314    0.345999
     63          1           0        7.231712   -2.419806    1.379862
     64          1           0        9.200190   -0.884665    1.451120
     65          1           0        9.013263    1.490186    0.877620
     66          1           0        7.344968    3.525024    0.072632
     67          1           0        5.043054    4.117783   -0.539048
     68          1           0        3.198022    2.469960   -0.564334
 ---------------------------------------------------------------------

 The electronic state is 1-A.
 Alpha  occ. eigenvalues --  -24.70365 -19.11798 -19.11419 -19.11165 -14.37121
 Alpha  occ. eigenvalues --  -14.36646 -14.36378 -10.29382 -10.28511 -10.28195
 Alpha  occ. eigenvalues --  -10.27252 -10.25013 -10.22698 -10.22427 -10.22277
 Alpha  occ. eigenvalues --  -10.20884 -10.20881 -10.20328 -10.20114 -10.20071
 Alpha  occ. eigenvalues --  -10.20038 -10.19936 -10.19925 -10.19719 -10.19640
 Alpha  occ. eigenvalues --  -10.19561 -10.19513 -10.19373 -10.19195 -10.19178
 Alpha  occ. eigenvalues --  -10.19124 -10.19050 -10.18784 -10.18193 -10.18145
 Alpha  occ. eigenvalues --  -10.18091  -1.21492  -1.04006  -1.03042  -1.02978
 Alpha  occ. eigenvalues --   -0.95452  -0.93557  -0.92983  -0.86880  -0.86382
 Alpha  occ. eigenvalues --   -0.82094  -0.80423  -0.80042  -0.78784  -0.77415
 Alpha  occ. eigenvalues --   -0.76119  -0.75688  -0.74634  -0.72816  -0.72362
 Alpha  occ. eigenvalues --   -0.70884  -0.68760  -0.66891  -0.65083  -0.64347
 Alpha  occ. eigenvalues --   -0.62707  -0.62384  -0.60802  -0.59549  -0.59353
 Alpha  occ. eigenvalues --   -0.58587  -0.58309  -0.56793  -0.55554  -0.54055
 Alpha  occ. eigenvalues --   -0.52967  -0.51697  -0.50884  -0.50495  -0.49445
 Alpha  occ. eigenvalues --   -0.49176  -0.48135  -0.47721  -0.47404  -0.47076
 Alpha  occ. eigenvalues --   -0.46115  -0.45718  -0.45499  -0.45174  -0.44749
 Alpha  occ. eigenvalues --   -0.44433  -0.44154  -0.43667  -0.43231  -0.42724
 Alpha  occ. eigenvalues --   -0.42510  -0.41990  -0.41647  -0.41535  -0.41440
 Alpha  occ. eigenvalues --   -0.41030  -0.40560  -0.40068  -0.39872  -0.39332
 Alpha  occ. eigenvalues --   -0.38624  -0.38394  -0.38031  -0.37900  -0.37568
 Alpha  occ. eigenvalues --   -0.37314  -0.36574  -0.36392  -0.35733  -0.35138
 Alpha  occ. eigenvalues --   -0.34866  -0.34556  -0.34219  -0.34192  -0.33879
 Alpha  occ. eigenvalues --   -0.33783  -0.33639  -0.33255  -0.32955  -0.29661
 Alpha  occ. eigenvalues --   -0.26832  -0.26396  -0.25620  -0.25170  -0.24926
 Alpha  occ. eigenvalues --   -0.24761  -0.24341  -0.23991  -0.23335  -0.19920
 Alpha virt. eigenvalues --   -0.05951  -0.01246  -0.00868  -0.00782   0.01650
 Alpha virt. eigenvalues --    0.03161   0.03419   0.05775   0.06084   0.07963
 Alpha virt. eigenvalues --    0.08600   0.08932   0.09996   0.10660   0.11130

 Mulliken charges:
               1
     1  C   -0.448313
     2  C   -0.255089
     3  C   -0.250658
     4  C   -0.140204
     5  N   -0.603111
     6  C    0.634141
     7  O   -0.531666
     8  C   -0.062534
     9  C   -0.501309
    10  N   -0.427127
    11  C   -0.247269
    12  C    0.152783
    13  C   -0.162915
    14  C   -0.196033
    15  C    0.376248
    16  F   -0.299293
    17  C   -0.199576
    18  C   -0.202233
    19  C    0.629875
    20  O   -0.519977
    21  C   -0.407266
    22  C   -0.256057
    23  C   -0.162205
    24  N   -0.608966
    25  C    0.552918
    26  O   -0.496199
    27  C    0.084987
    28  C   -0.212996
    29  C   -0.126395
    30  C   -0.208612
    31  C    0.194678
    32  C   -0.213589
    33  C   -0.134433
    34  C   -0.200931
    35  C    0.391445
    36  C   -0.076507
    37  H    0.150005
    38  H    0.140793
    39  H    0.149450
    40  H    0.141135
    41  H    0.138379
    42  H    0.146274
    43  H    0.121857
    44  H    0.190789
    45  H    0.154257
    46  H    0.330691
    47  H    0.178953
    48  H    0.175194
    49  H    0.158550
    50  H    0.161914
    51  H    0.213009
    52  H    0.144993
    53  H    0.171878
    54  H    0.152458
    55  H    0.143292
    56  H    0.127068
    57  H    0.196675
    58  H    0.155310
    59  H    0.169792
    60  H    0.135344
    61  H    0.152512
    62  H    0.212036
    63  H    0.156171
    64  H    0.135120
    65  H    0.135758
    66  H    0.127584
    67  H    0.129765
    68  H    0.137383
 Sum of Mulliken charges =  -0.00000

 Dipole moment (field-independent basis, Debye):
    X=             -4.5026    Y=              4.6632    Z=             -4.1573  Tot=              7.7008
 Quadrupole moment (field-independent basis, Debye-Ang):
   XX=           -173.0875   YY=           -215.6177   ZZ=           -203.2141
   XY=              7.6458   XZ=             16.8794   YZ=              2.2500

 Normal termination of Gaussian 16 at Fri Nov  4 22:02:21 2022.
