 Gaussian 16, Revision B.01,
 Gaussian 16:  ES64L-G16RevB.01 20-Dec-2017

 -------------------------------------------------------------------
 #p b3lyp/6-31g(d) 6D 10F nosymm GFInput td=(50-50,nstate=2) SCF=XQC
 -------------------------------------------------------------------

 ------------------------------
 Gaussian input prepared by ASE
 ------------------------------
 Symbolic Z-matrix:
 Charge =  0 Multiplicity = 1

                          Input orientation:
 ---------------------------------------------------------------------
 Center     Atomic      Atomic             Coordinates (Angstroms)
 Number     Number       Type             X           Y           Z
 ---------------------------------------------------------------------
      1          6           0       -6.608560   -1.871965   -2.668770
      2          6           0       -5.388649   -2.675303   -2.200001
      3          6           0       -4.847543   -2.268973   -0.819078
      4          6           0       -4.234799   -0.862063   -0.787300
      5          7           0       -3.703633   -0.509685    0.526983
      6          6           0       -2.374766   -0.370272    0.770795
      7          8           0       -1.510332   -0.579600   -0.076337
      8          6           0       -1.945524    0.034455    2.212016
      9          6           0       -3.065049    0.130831    3.257196
     10          7           0       -1.103939    1.237461    2.175246
     11          6           0       -1.747995    2.560348    2.151035
     12          6           0       -2.535004    2.874860    0.890935
     13          6           0       -1.916199    2.832240   -0.368018
     14          6           0       -2.626873    3.141842   -1.525053
     15          6           0       -3.966080    3.503880   -1.413355
     16          9           0       -4.659899    3.803108   -2.533184
     17          6           0       -4.609917    3.567831   -0.184811
     18          6           0       -3.881425    3.249222    0.963982
     19          6           0        0.264346    1.196363    1.950580
     20          8           0        0.902639    2.228015    1.758869
     21          6           0        0.965139   -0.163002    1.991989
     22          6           0        2.474676   -0.070765    1.735202
     23          6           0        2.824719    0.323689    0.289454
     24          7           0        4.224078    0.088978   -0.034582
     25          6           0        5.194025    1.119719   -0.081690
     26          8           0        4.970213    2.299592    0.119517
     27          6           0        6.481567    0.434865   -0.426475
     28          6           0        7.776953    0.865352   -0.625297
     29          6           0        8.750121   -0.114815   -0.954990
     30          6           0        8.439762   -1.464188   -1.083347
     31          6           0        7.109407   -1.925617   -0.884529
     32          6           0        6.589952   -3.253100   -0.975905
     33          6           0        5.244645   -3.472855   -0.746908
     34          6           0        4.318569   -2.435454   -0.413840
     35          6           0        4.806905   -1.150729   -0.318673
     36          6           0        6.183807   -0.926343   -0.556738
     37          1           0       -6.376355   -0.809838   -2.805999
     38          1           0       -7.429725   -1.942359   -1.944170
     39          1           0       -6.980188   -2.249703   -3.627794
     40          1           0       -4.582994   -2.588129   -2.942353
     41          1           0       -5.654931   -3.739623   -2.166169
     42          1           0       -4.075614   -2.982252   -0.503866
     43          1           0       -5.656446   -2.334360   -0.075855
     44          1           0       -3.396664   -0.795338   -1.484999
     45          1           0       -4.971621   -0.103230   -1.074561
     46          1           0       -4.361725   -0.254010    1.247478
     47          1           0       -1.302535   -0.789840    2.526602
     48          1           0       -2.641013    0.387957    4.232795
     49          1           0       -3.818412    0.886810    3.012888
     50          1           0       -3.568473   -0.836747    3.356257
     51          1           0       -0.931655    3.275490    2.268203
     52          1           0       -2.400284    2.656513    3.025188
     53          1           0       -0.869584    2.553552   -0.438400
     54          1           0       -2.159708    3.111627   -2.503956
     55          1           0       -5.652900    3.864064   -0.137927
     56          1           0       -4.372262    3.306162    1.933684
     57          1           0        0.494628   -0.821333    1.253699
     58          1           0        0.795172   -0.617061    2.978698
     59          1           0        2.933243    0.650220    2.419106
     60          1           0        2.912278   -1.053248    1.952507
     61          1           0        2.206572   -0.239606   -0.422164
     62          1           0        2.636938    1.387572    0.139424
     63          1           0        8.050205    1.912596   -0.535436
     64          1           0        9.776753    0.203748   -1.114665
     65          1           0        9.223891   -2.172664   -1.339996
     66          1           0        7.246167   -4.082432   -1.225241
     67          1           0        4.859085   -4.486420   -0.821559
     68          1           0        3.272821   -2.676045   -0.250233
 ---------------------------------------------------------------------

 SCF Done:  E(RB3LYP) =  -1614.18883603     A.U. after   15 cycles

 Excitation energies and oscillator strengths:

 Excited state symmetry could not be determined.
 Excited State   1:      Triplet-?Sym    2.1921 eV  565.59 nm  f=0.0000  <S**2>=2.000
     125 ->131         0.10287
     130 ->131         0.67938
 This state for optimization and/or second-order correction.
 Total Energy, E(TD-HF/TD-DFT) =  -1614.10827729
 Copying the excited state density for this state as the 1-particle RhoCI density.

 Excited state symmetry could not be determined.
 Excited State   2:      Singlet-?Sym    3.3077 eV  374.83 nm  f=0.0679  <S**2>=0.000
     127 ->131         0.14805
     130 ->131         0.68093

 Excited state symmetry could not be determined.
 Excited State   3:      Triplet-?Sym    3.3926 eV  365.45 nm  f=0.0000  <S**2>=2.000
     124 ->131         0.11339
     125 ->131        -0.37772
     126 ->131         0.16576
     127 ->131         0.47352
     127 ->133        -0.12039
     130 ->131         0.15230
     130 ->133        -0.10098

 Excited state symmetry could not be determined.
 Excited State   4:      Singlet-?Sym    3.9574 eV  313.29 nm  f=0.0003  <S**2>=0.000
     125 ->131         0.21737
     126 ->131         0.65670

 Alpha  occ. eigenvalues --  -24.70365 -19.11798 -19.11419 -19.11165 -14.37121
 Alpha  occ. eigenvalues --  -14.36645 -14.36378 -10.29382 -10.28511 -10.28195
 Alpha  occ. eigenvalues --  -10.27252 -10.25013 -10.22698 -10.22427 -10.22277
 Alpha  occ. eigenvalues --  -10.20884 -10.20881 -10.20328 -10.20114 -10.20071
 Alpha  occ. eigenvalues --  -10.20038 -10.19936 -10.19925 -10.19719 -10.19640
 Alpha  occ. eigenvalues --  -10.19561 -10.19513 -10.19373 -10.19195 -10.19178
 Alpha  occ. eigenvalues --  -10.19124 -10.19050 -10.18784 -10.18193 -10.18145
 Alpha  occ. eigenvalues --  -10.18091  -1.21492  -1.04006  -1.03042  -1.02978
 Alpha  occ. eigenvalues --   -0.95452  -0.93557  -0.92983  -0.86880  -0.86382
 Alpha  occ. eigenvalues --   -0.82094  -0.80423  -0.80042  -0.78784  -0.77415
 Alpha  occ. eigenvalues --   -0.76119  -0.75688  -0.74634  -0.72816  -0.72362
 Alpha  occ. eigenvalues --   -0.70884  -0.68760  -0.66891  -0.65083  -0.64347
 Alpha  occ. eigenvalues --   -0.62707  -0.62384  -0.60802  -0.59549  -0.59353
 Alpha  occ. eigenvalues --   -0.58587  -0.58309  -0.56793  -0.55554  -0.54055
 Alpha  occ. eigenvalues --   -0.52967  -0.51697  -0.50884  -0.50495  -0.49445
 Alpha  occ. eigenvalues --   -0.49176  -0.48135  -0.47721  -0.47404  -0.47076
 Alpha  occ. eigenvalues --   -0.46115  -0.45718  -0.45499  -0.45174  -0.44749
 Alpha  occ. eigenvalues --   -0.44433  -0.44154  -0.43667  -0.43231  -0.42724
 Alpha  occ. eigenvalues --   -0.42510  -0.41990  -0.41647  -0.41535  -0.41440
 Alpha  occ. eigenvalues --   -0.41030  -0.40560  -0.40068  -0.39872  -0.39332
 Alpha  occ. eigenvalues --   -0.38624  -0.38394  -0.38031  -0.37900  -0.37568
 Alpha  occ. eigenvalues --   -0.37314  -0.36574  -0.36392  -0.35733  -0.35137
 Alpha  occ. eigenvalues --   -0.34866  -0.34556  -0.34219  -0.34192  -0.33879
 Alpha  occ. eigenvalues --   -0.33783  -0.33639  -0.33255  -0.32955  -0.29661
 Alpha  occ. eigenvalues --   -0.26832  -0.26396  -0.25620  -0.25170  -0.24926
 Alpha  occ. eigenvalues --   -0.24761  -0.24341  -0.23991  -0.23335  -0.19920
 Alpha virt. eigenvalues --   -0.05951  -0.01246  -0.00868  -0.00782   0.01650
 Alpha virt. eigenvalues --    0.03161   0.03419   0.05775   0.06084   0.07963
 Alpha virt. eigenvalues --    0.08600   0.08932   0.09996   0.10660   0.11130

 Mulliken charges:
               1
     1  C   -0.448301
     2  C   -0.255100
     3  C   -0.250646
     4  C   -0.140192
     5  N   -0.603105
     6  C    0.634085
     7  O   -0.531651
     8  C   -0.062513
     9  C   -0.501316
    10  N   -0.427143
    11  C   -0.247241
    12  C    0.152765
    13  C   -0.162918
    14  C   -0.196023
    15  C    0.376244
    16  F   -0.299293
    17  C   -0.199580
    18  C   -0.202230
    19  C    0.629869
    20  O   -0.519961
    21  C   -0.407271
    22  C   -0.256052
    23  C   -0.162217
    24  N   -0.608963
    25  C    0.552917
    26  O   -0.496202
    27  C    0.084985
    28  C   -0.212988
    29  C   -0.126397
    30  C   -0.208620
    31  C    0.194679
    32  C   -0.213585
    33  C   -0.134424
    34  C   -0.200940
    35  C    0.391455
    36  C   -0.076507
    37  H    0.150003
    38  H    0.140791
    39  H    0.149448
    40  H    0.141134
    41  H    0.138379
    42  H    0.146274
    43  H    0.121854
    44  H    0.190787
    45  H    0.154255
    46  H    0.330692
    47  H    0.178952
    48  H    0.175196
    49  H    0.158552
    50  H    0.161915
    51  H    0.213005
    52  H    0.144988
    53  H    0.171886
    54  H    0.152456
    55  H    0.143292
    56  H    0.127067
    57  H    0.196677
    58  H    0.155313
    59  H    0.169795
    60  H    0.135342
    61  H    0.152515
    62  H    0.212036
    63  H    0.156170
    64  H    0.135121
    65  H    0.135760
    66  H    0.127583
    67  H    0.129763
    68  H    0.137380
 Sum of Mulliken charges =  -0.00000

 Dipole moment (field-independent basis, Debye):
    X=             -5.3008    Y=             -5.0172    Z=              2.4558  Tot=              7.7008
 Quadrupole moment (field-independent basis, Debye-Ang):
   XX=           -180.0771   YY=           -217.1768   ZZ=           -202.6680
   XY=            -12.0463   XZ=            -17.7553   YZ=              1.3530

 Normal termination of Gaussian 16 at Sat Nov  5 09:33:29 2022.
