 Gaussian 16, Revision B.01,
 Gaussian 16:  ES64L-G16RevB.01 20-Dec-2017

 -------------------------------------------------------------------
 #p b3lyp/6-31g(d) 6D 10F nosymm GFInput td=(50-50,nstate=2) SCF=XQC
 -------------------------------------------------------------------

 ------------------------------
 Gaussian input prepared by ASE
 ------------------------------
 Symbolic Z-matrix:
 Charge =  0 Multiplicity = 1

                          Input orientation:
 ---------------------------------------------------------------------
 Center     Atomic      Atomic             Coordinates (Angstroms)
 Number     Number       Type             X           Y           Z
 ---------------------------------------------------------------------
      1          6           0      -10.908460   -0.447637   -0.490656
      2          6           0       -9.401195   -0.477993   -0.405962
      3          6           0       -8.678156   -1.590247   -0.867444
      4          6           0       -7.292538   -1.634061   -0.793018
      5          6           0       -6.572857   -0.553913   -0.248306
      6          6           0       -5.109185   -0.624427   -0.181616
      7          7           0       -4.417051   -1.650933   -0.600258
      8          7           0       -3.068762   -1.509404   -0.442427
      9          6           0       -2.753163   -0.363089    0.101992
     10          7           0       -1.430893   -0.041462    0.329428
     11          6           0       -0.969074    1.077253    0.981754
     12          8           0       -1.704803    1.977596    1.350955
     13          6           0        0.566001    1.172962    1.079376
     14          6           0        1.000263    2.140862    2.183580
     15          7           0        1.215674   -0.174005    1.077779
     16          6           0        2.444639   -0.297934    0.322275
     17          6           0        3.691389    0.090733    0.829695
     18          6           0        4.839840   -0.016323    0.046790
     19          6           0        4.745237   -0.502154   -1.261755
     20          8           0        5.822587   -0.679378   -2.092954
     21          6           0        7.021552   -0.021182   -1.847197
     22          6           0        8.165352   -0.798929   -1.676033
     23          6           0        9.401080   -0.169344   -1.516728
     24          6           0        9.488410    1.223924   -1.522218
     25          6           0        8.333535    1.990829   -1.695913
     26          6           0        7.094023    1.373385   -1.864480
     27          6           0        3.504611   -0.893497   -1.778379
     28          6           0        2.366885   -0.797644   -0.985411
     29         16           0        1.117166   -1.061750    2.551716
     30          6           0        1.007453   -2.752095    1.934179
     31          8           0       -0.167091   -0.679860    3.145661
     32          8           0        2.352090   -0.955997    3.336087
     33         16           0       -4.102555    0.676352    0.483514
     34          6           0       -7.288673    0.559312    0.213659
     35          6           0       -8.679749    0.592158    0.133943
     36          1           0      -11.311686    0.500037   -0.120499
     37          1           0      -11.357570   -1.255532    0.100799
     38          1           0      -11.253263   -0.578087   -1.523963
     39          1           0       -9.213970   -2.436364   -1.292443
     40          1           0       -6.744163   -2.498122   -1.152215
     41          1           0       -0.761214   -0.768751    0.108648
     42          1           0        0.876469    1.594814    0.114905
     43          1           0        0.510456    3.104505    2.026002
     44          1           0        0.711574    1.771495    3.169538
     45          1           0        2.083947    2.285070    2.153214
     46          1           0        3.768576    0.446869    1.849989
     47          1           0        5.802203    0.273080    0.453409
     48          1           0        8.074552   -1.880482   -1.676843
     49          1           0       10.295537   -0.771882   -1.385515
     50          1           0       10.451162    1.710491   -1.395770
     51          1           0        8.396262    3.075439   -1.709627
     52          1           0        6.192097    1.958717   -2.014377
     53          1           0        3.453832   -1.273564   -2.793415
     54          1           0        1.403315   -1.101597   -1.384942
     55          1           0        0.068046   -2.875392    1.392929
     56          1           0        1.029257   -3.398895    2.814104
     57          1           0        1.867457   -2.957055    1.294611
     58          1           0       -6.764128    1.410421    0.640610
     59          1           0       -9.212328    1.466903    0.499225
 ---------------------------------------------------------------------

 SCF Done:  E(RB3LYP) =  -2283.32142759     A.U. after   15 cycles

 Excitation energies and oscillator strengths:

 Excited state symmetry could not be determined.
 Excited State   1:      Triplet-?Sym    2.7920 eV  444.08 nm  f=0.0000  <S**2>=2.000
     131 ->140        -0.13816
     133 ->134         0.66833
     133 ->138         0.10989
 This state for optimization and/or second-order correction.
 Total Energy, E(TD-HF/TD-DFT) =  -2283.21882480
 Copying the excited state density for this state as the 1-particle RhoCI density.

 Excited state symmetry could not be determined.
 Excited State   2:      Triplet-?Sym    3.6286 eV  341.69 nm  f=0.0000  <S**2>=2.000
     125 ->135        -0.28687
     125 ->137        -0.16087
     126 ->135         0.10557
     127 ->135        -0.12946
     129 ->136        -0.14702
     129 ->139         0.17123
     132 ->136         0.52301

 Excited state symmetry could not be determined.
 Excited State   3:      Singlet-?Sym    4.1138 eV  301.39 nm  f=0.8561  <S**2>=0.000
     133 ->134         0.69967

 Excited state symmetry could not be determined.
 Excited State   4:      Singlet-?Sym    4.5131 eV  274.72 nm  f=0.0006  <S**2>=0.000
     130 ->134         0.67670
     132 ->134         0.13911

 Alpha  occ. eigenvalues --  -89.12282 -88.91817 -19.20382 -19.15338 -19.15332
 Alpha  occ. eigenvalues --  -19.14103 -14.39492 -14.39053 -14.35395 -14.35359
 Alpha  occ. eigenvalues --  -10.31177 -10.29152 -10.27378 -10.26298 -10.26044
 Alpha  occ. eigenvalues --  -10.25012 -10.24554 -10.23711 -10.21754 -10.21348
 Alpha  occ. eigenvalues --  -10.20953 -10.20953 -10.20753 -10.20682 -10.20627
 Alpha  occ. eigenvalues --  -10.20577 -10.20427 -10.20258 -10.20082 -10.19519
 Alpha  occ. eigenvalues --  -10.18971 -10.18946 -10.18785 -10.18620 -10.18610
 Alpha  occ. eigenvalues --   -8.14870  -7.97887  -6.11373  -6.11267  -6.11162
 Alpha  occ. eigenvalues --   -5.94283  -5.93949  -5.93559  -1.12072  -1.09333
 Alpha  occ. eigenvalues --   -1.06322  -1.02607  -1.01080  -0.96356  -0.95011
 Alpha  occ. eigenvalues --   -0.87567  -0.86434  -0.86105  -0.82313  -0.80680
 Alpha  occ. eigenvalues --   -0.79346  -0.78397  -0.77242  -0.76800  -0.76289
 Alpha  occ. eigenvalues --   -0.76035  -0.74540  -0.73254  -0.69829  -0.68346
 Alpha  occ. eigenvalues --   -0.66002  -0.64686  -0.63511  -0.62547  -0.61762
 Alpha  occ. eigenvalues --   -0.61191  -0.59938  -0.59125  -0.58667  -0.56375
 Alpha  occ. eigenvalues --   -0.56241  -0.54990  -0.53342  -0.52327  -0.51357
 Alpha  occ. eigenvalues --   -0.50522  -0.49068  -0.48648  -0.48234  -0.48075
 Alpha  occ. eigenvalues --   -0.47793  -0.46574  -0.46036  -0.45983  -0.45629
 Alpha  occ. eigenvalues --   -0.45446  -0.44644  -0.44326  -0.43982  -0.43896
 Alpha  occ. eigenvalues --   -0.43585  -0.43317  -0.42230  -0.42112  -0.42068
 Alpha  occ. eigenvalues --   -0.41953  -0.41472  -0.41043  -0.40739  -0.40328
 Alpha  occ. eigenvalues --   -0.38758  -0.38477  -0.38201  -0.37934  -0.37758
 Alpha  occ. eigenvalues --   -0.37052  -0.36348  -0.35483  -0.35258  -0.35194
 Alpha  occ. eigenvalues --   -0.34348  -0.34023  -0.33081  -0.32909  -0.31643
 Alpha  occ. eigenvalues --   -0.31045  -0.30022  -0.29141  -0.28868  -0.27579
 Alpha  occ. eigenvalues --   -0.26766  -0.26595  -0.26498  -0.26065  -0.25475
 Alpha  occ. eigenvalues --   -0.25129  -0.23692  -0.21537
 Alpha virt. eigenvalues --   -0.04940  -0.02899  -0.02595  -0.01381  -0.00974
 Alpha virt. eigenvalues --   -0.00833  -0.00053   0.02089   0.03570   0.04163
 Alpha virt. eigenvalues --    0.05087   0.06446   0.06907   0.07638   0.07899

 Mulliken charges:
               1
     1  C   -0.532634
     2  C    0.186915
     3  C   -0.182810
     4  C   -0.151562
     5  C    0.131697
     6  C    0.034549
     7  N   -0.308211
     8  N   -0.327599
     9  C    0.345484
    10  N   -0.675683
    11  C    0.653098
    12  O   -0.494696
    13  C   -0.061010
    14  C   -0.457172
    15  N   -0.701256
    16  C    0.221508
    17  C   -0.137614
    18  C   -0.194633
    19  C    0.367554
    20  O   -0.573651
    21  C    0.329995
    22  C   -0.162291
    23  C   -0.139362
    24  C   -0.123662
    25  C   -0.138722
    26  C   -0.154276
    27  C   -0.183167
    28  C   -0.158814
    29  S    1.231785
    30  C   -0.642321
    31  O   -0.538793
    32  O   -0.523294
    33  S    0.286325
    34  C   -0.192302
    35  C   -0.192189
    36  H    0.157158
    37  H    0.166435
    38  H    0.165128
    39  H    0.127798
    40  H    0.165970
    41  H    0.367294
    42  H    0.192472
    43  H    0.179795
    44  H    0.201156
    45  H    0.151734
    46  H    0.180088
    47  H    0.162896
    48  H    0.146816
    49  H    0.141009
    50  H    0.136970
    51  H    0.140915
    52  H    0.147230
    53  H    0.154949
    54  H    0.143070
    55  H    0.214786
    56  H    0.224402
    57  H    0.214790
    58  H    0.147870
    59  H    0.128083
 Sum of Mulliken charges =  -0.00000

 Dipole moment (field-independent basis, Debye):
    X=              3.8648    Y=              0.1968    Z=             -2.7268  Tot=              4.7340
 Quadrupole moment (field-independent basis, Debye-Ang):
   XX=           -161.2014   YY=           -206.3746   ZZ=           -233.6379
   XY=              1.4849   XZ=             -2.0361   YZ=             -3.2663

 Normal termination of Gaussian 16 at Sat Nov  5 09:42:13 2022.
