 Gaussian 16, Revision B.01,
 Gaussian 16:  ES64L-G16RevB.01 20-Dec-2017

 -----------------------------
 #p b3lyp/6-31g(d) opt SCF=XQC
 -----------------------------

 ------------------------------
 Gaussian input prepared by ASE
 ------------------------------
 Symbolic Z-matrix:
 Charge =  0 Multiplicity = 1

 SCF Done:  E(RB3LYP) =  -2283.28414649     A.U. after   16 cycles
 SCF Done:  E(RB3LYP) =  -2283.29948140     A.U. after   15 cycles
 SCF Done:  E(RB3LYP) =  -2283.30217377     A.U. after   13 cycles
 SCF Done:  E(RB3LYP) =  -2283.30405800     A.U. after   15 cycles
 SCF Done:  E(RB3LYP) =  -2283.30520795     A.U. after   14 cycles
 SCF Done:  E(RB3LYP) =  -2283.30585768     A.U. after   14 cycles
 SCF Done:  E(RB3LYP) =  -2283.30615054     A.U. after   13 cycles
 SCF Done:  E(RB3LYP) =  -2283.30628730     A.U. after   12 cycles
 SCF Done:  E(RB3LYP) =  -2283.30643690     A.U. after   12 cycles
 SCF Done:  E(RB3LYP) =  -2283.30648762     A.U. after   11 cycles
 SCF Done:  E(RB3LYP) =  -2283.32143310     A.U. after    7 cycles
 SCF Done:  E(RB3LYP) =  -2283.32143304     A.U. after    7 cycles
 SCF Done:  E(RB3LYP) =  -2283.32143327     A.U. after    7 cycles
 SCF Done:  E(RB3LYP) =  -2283.32143340     A.U. after    7 cycles
 SCF Done:  E(RB3LYP) =  -2283.32143350     A.U. after    7 cycles
 SCF Done:  E(RB3LYP) =  -2283.32143365     A.U. after    7 cycles
 SCF Done:  E(RB3LYP) =  -2283.32143375     A.U. after    7 cycles
 SCF Done:  E(RB3LYP) =  -2283.32143382     A.U. after    7 cycles
 SCF Done:  E(RB3LYP) =  -2283.32143383     A.U. after    7 cycles
 SCF Done:  E(RB3LYP) =  -2283.32143380     A.U. after    6 cycles
 Optimization completed.
    -- Stationary point found.

                         Standard orientation:
 ---------------------------------------------------------------------
 Center     Atomic      Atomic             Coordinates (Angstroms)
 Number     Number       Type             X           Y           Z
 ---------------------------------------------------------------------
      1          6           0      -10.792232   -1.264902   -0.211718
      2          6           0       -9.294945   -1.096311   -0.113479
      3          6           0       -8.593642   -1.550056    1.015745
      4          6           0       -7.217664   -1.398983    1.121845
      5          6           0       -6.486050   -0.781801    0.089759
      6          6           0       -5.032887   -0.634864    0.225701
      7          7           0       -4.361293   -1.044979    1.269153
      8          7           0       -3.019609   -0.807114    1.190882
      9          6           0       -2.688268   -0.210991    0.075138
     10          7           0       -1.369020    0.100371   -0.182164
     11          6           0       -0.899205    0.811582   -1.260952
     12          8           0       -1.616707    1.166044   -2.181697
     13          6           0        0.630347    0.998495   -1.287036
     14          6           0        1.040320    2.154490   -2.203701
     15          7           0        1.222148    0.992378    0.086329
     16          6           0        2.486363    0.303948    0.242287
     17          6           0        3.716947    0.892508   -0.077376
     18          6           0        4.903138    0.172707    0.057460
     19          6           0        4.863895   -1.153324    0.501727
     20          8           0        5.979016   -1.927471    0.702186
     21          6           0        7.188288   -1.594495    0.103920
     22          6           0        8.286801   -1.382948    0.935174
     23          6           0        9.536531   -1.135046    0.364648
     24          6           0        9.682206   -1.093026   -1.023108
     25          6           0        8.572339   -1.308056   -1.844088
     26          6           0        7.319877   -1.565043   -1.286111
     27          6           0        3.639839   -1.750804    0.824069
     28          6           0        2.463297   -1.020699    0.701171
     29         16           0        1.001808    2.430599    1.010049
     30          6           0        0.857301    1.756494    2.675989
     31          8           0       -0.297460    2.962567    0.589529
     32          8           0        2.192802    3.286227    0.980195
     33         16           0       -4.012771    0.125412   -1.010856
     34          6           0       -7.180137   -0.327138   -1.040107
     35          6           0       -8.561712   -0.484133   -1.135641
     36          1           0      -11.176152   -0.889288   -1.165246
     37          1           0      -11.308074   -0.724678    0.592196
     38          1           0      -11.082048   -2.319512   -0.125495
     39          1           0       -9.138970   -2.030250    1.825476
     40          1           0       -6.686100   -1.752919    1.998491
     41          1           0       -0.718721   -0.104413    0.567061
     42          1           0        1.013262    0.066408   -1.721943
     43          1           0        0.601129    1.999060   -3.191782
     44          1           0        0.680085    3.110852   -1.819657
     45          1           0        2.129033    2.189705   -2.301448
     46          1           0        3.750012    1.925935   -0.400986
     47          1           0        5.851718    0.641602   -0.178274
     48          1           0        8.151060   -1.421925    2.011304
     49          1           0       10.395962   -0.972074    1.008962
     50          1           0       10.655568   -0.897678   -1.463602
     51          1           0        8.681043   -1.285063   -2.924900
     52          1           0        6.453354   -1.747607   -1.914092
     53          1           0        3.631811   -2.778228    1.172873
     54          1           0        1.512497   -1.483035    0.951581
     55          1           0       -0.053675    1.159616    2.743051
     56          1           0        0.801285    2.616073    3.347614
     57          1           0        1.743421    1.160478    2.900085
     58          1           0       -6.645951    0.154521   -1.855259
     59          1           0       -9.077425   -0.122908   -2.022098
 ---------------------------------------------------------------------

 The electronic state is 1-A.
 Alpha  occ. eigenvalues --  -89.12282 -88.91817 -19.20382 -19.15339 -19.15332
 Alpha  occ. eigenvalues --  -19.14103 -14.39492 -14.39053 -14.35395 -14.35359
 Alpha  occ. eigenvalues --  -10.31177 -10.29152 -10.27378 -10.26298 -10.26044
 Alpha  occ. eigenvalues --  -10.25012 -10.24554 -10.23711 -10.21754 -10.21348
 Alpha  occ. eigenvalues --  -10.20953 -10.20953 -10.20753 -10.20682 -10.20627
 Alpha  occ. eigenvalues --  -10.20577 -10.20427 -10.20258 -10.20082 -10.19519
 Alpha  occ. eigenvalues --  -10.18971 -10.18946 -10.18785 -10.18620 -10.18610
 Alpha  occ. eigenvalues --   -8.14870  -7.97888  -6.11373  -6.11267  -6.11162
 Alpha  occ. eigenvalues --   -5.94283  -5.93949  -5.93559  -1.12073  -1.09333
 Alpha  occ. eigenvalues --   -1.06322  -1.02607  -1.01080  -0.96356  -0.95011
 Alpha  occ. eigenvalues --   -0.87567  -0.86434  -0.86105  -0.82313  -0.80680
 Alpha  occ. eigenvalues --   -0.79346  -0.78397  -0.77242  -0.76800  -0.76289
 Alpha  occ. eigenvalues --   -0.76035  -0.74540  -0.73254  -0.69829  -0.68346
 Alpha  occ. eigenvalues --   -0.66002  -0.64686  -0.63511  -0.62547  -0.61762
 Alpha  occ. eigenvalues --   -0.61191  -0.59938  -0.59125  -0.58667  -0.56375
 Alpha  occ. eigenvalues --   -0.56241  -0.54990  -0.53342  -0.52327  -0.51357
 Alpha  occ. eigenvalues --   -0.50522  -0.49068  -0.48648  -0.48234  -0.48075
 Alpha  occ. eigenvalues --   -0.47793  -0.46574  -0.46036  -0.45983  -0.45629
 Alpha  occ. eigenvalues --   -0.45446  -0.44644  -0.44326  -0.43982  -0.43896
 Alpha  occ. eigenvalues --   -0.43585  -0.43317  -0.42230  -0.42112  -0.42068
 Alpha  occ. eigenvalues --   -0.41953  -0.41472  -0.41043  -0.40739  -0.40328
 Alpha  occ. eigenvalues --   -0.38758  -0.38477  -0.38201  -0.37934  -0.37758
 Alpha  occ. eigenvalues --   -0.37052  -0.36348  -0.35483  -0.35258  -0.35194
 Alpha  occ. eigenvalues --   -0.34348  -0.34023  -0.33081  -0.32909  -0.31643
 Alpha  occ. eigenvalues --   -0.31045  -0.30022  -0.29141  -0.28868  -0.27579
 Alpha  occ. eigenvalues --   -0.26766  -0.26595  -0.26498  -0.26065  -0.25475
 Alpha  occ. eigenvalues --   -0.25129  -0.23692  -0.21537
 Alpha virt. eigenvalues --   -0.04940  -0.02899  -0.02595  -0.01381  -0.00974
 Alpha virt. eigenvalues --   -0.00833  -0.00053   0.02089   0.03570   0.04163
 Alpha virt. eigenvalues --    0.05087   0.06446   0.06907   0.07638   0.07899

 Mulliken charges:
               1
     1  C   -0.532636
     2  C    0.186917
     3  C   -0.182817
     4  C   -0.151553
     5  C    0.131695
     6  C    0.034549
     7  N   -0.308210
     8  N   -0.327598
     9  C    0.345487
    10  N   -0.675686
    11  C    0.653094
    12  O   -0.494699
    13  C   -0.061009
    14  C   -0.457176
    15  N   -0.701237
    16  C    0.221509
    17  C   -0.137626
    18  C   -0.194641
    19  C    0.367571
    20  O   -0.573656
    21  C    0.329985
    22  C   -0.162277
    23  C   -0.139365
    24  C   -0.123663
    25  C   -0.138717
    26  C   -0.154281
    27  C   -0.183164
    28  C   -0.158819
    29  S    1.231782
    30  C   -0.642325
    31  O   -0.538793
    32  O   -0.523292
    33  S    0.286322
    34  C   -0.192308
    35  C   -0.192185
    36  H    0.157158
    37  H    0.166435
    38  H    0.165129
    39  H    0.127798
    40  H    0.165969
    41  H    0.367294
    42  H    0.192471
    43  H    0.179796
    44  H    0.201158
    45  H    0.151735
    46  H    0.180088
    47  H    0.162897
    48  H    0.146814
    49  H    0.141009
    50  H    0.136971
    51  H    0.140915
    52  H    0.147231
    53  H    0.154949
    54  H    0.143071
    55  H    0.214786
    56  H    0.224402
    57  H    0.214789
    58  H    0.147871
    59  H    0.128084
 Sum of Mulliken charges =  -0.00000

 Dipole moment (field-independent basis, Debye):
    X=              4.0205    Y=             -2.4973    Z=             -0.1051  Tot=              4.7341
 Quadrupole moment (field-independent basis, Debye-Ang):
   XX=           -160.5116   YY=           -233.0741   ZZ=           -206.2254
   XY=              1.2216   XZ=             -0.4112   YZ=              2.8664

 Normal termination of Gaussian 16 at Fri Nov  4 23:00:59 2022.
