 Gaussian 16, Revision B.01,
 Gaussian 16:  ES64L-G16RevB.01 20-Dec-2017

 -----------------------------
 #p b3lyp/6-31g(d) opt SCF=XQC
 -----------------------------

 ------------------------------
 Gaussian input prepared by ASE
 ------------------------------
 Symbolic Z-matrix:
 Charge =  0 Multiplicity = 1

 SCF Done:  E(RB3LYP) =  -1139.59998779     A.U. after   15 cycles
 SCF Done:  E(RB3LYP) =  -1139.60569935     A.U. after   13 cycles
 SCF Done:  E(RB3LYP) =  -1139.60675876     A.U. after   12 cycles
 SCF Done:  E(RB3LYP) =  -1139.60731499     A.U. after   12 cycles
 SCF Done:  E(RB3LYP) =  -1139.60753247     A.U. after   12 cycles
 SCF Done:  E(RB3LYP) =  -1139.60762983     A.U. after   12 cycles
 SCF Done:  E(RB3LYP) =  -1139.60767593     A.U. after   11 cycles
 SCF Done:  E(RB3LYP) =  -1139.60770364     A.U. after   11 cycles
 SCF Done:  E(RB3LYP) =  -1139.60770700     A.U. after    9 cycles
 SCF Done:  E(RB3LYP) =  -1139.60770879     A.U. after    9 cycles
 SCF Done:  E(RB3LYP) =  -1139.60771229     A.U. after    9 cycles
 SCF Done:  E(RB3LYP) =  -1139.60771259     A.U. after    8 cycles
 SCF Done:  E(RB3LYP) =  -1139.60771356     A.U. after    8 cycles
 SCF Done:  E(RB3LYP) =  -1139.60771425     A.U. after    9 cycles
 SCF Done:  E(RB3LYP) =  -1139.60771459     A.U. after    7 cycles
 SCF Done:  E(RB3LYP) =  -1139.60771493     A.U. after    8 cycles
 SCF Done:  E(RB3LYP) =  -1139.60771505     A.U. after    7 cycles
 SCF Done:  E(RB3LYP) =  -1139.60771513     A.U. after    7 cycles
 SCF Done:  E(RB3LYP) =  -1139.60771514     A.U. after    7 cycles
 SCF Done:  E(RB3LYP) =  -1139.60771515     A.U. after    6 cycles
 Optimization completed.
    -- Stationary point found.

                         Standard orientation:
 ---------------------------------------------------------------------
 Center     Atomic      Atomic             Coordinates (Angstroms)
 Number     Number       Type             X           Y           Z
 ---------------------------------------------------------------------
      1          7           0        0.042129   -3.848414   -0.162728
      2          6           0        0.072353   -2.489037   -0.122771
      3          7           0       -1.160012   -1.895491   -0.087909
      4          6           0       -1.145838   -0.581931   -0.031378
      5          7           0       -2.303832    0.137493    0.005197
      6          6           0       -3.656465   -0.273672   -0.004632
      7          6           0       -4.088298   -1.605535    0.069601
      8          6           0       -5.456203   -1.882273    0.064478
      9          6           0       -6.403896   -0.861899   -0.010038
     10          6           0       -5.969485    0.463097   -0.080775
     11          6           0       -4.609593    0.756229   -0.078995
     12          7           0        0.021945    0.147256   -0.006367
     13          6           0        0.018375    1.586885    0.050144
     14          6           0        0.034769    2.232990    1.289373
     15          6           0        0.004758    3.626562    1.341041
     16          6           0       -0.043405    4.371668    0.160739
     17          6           0       -0.060636    3.721617   -1.075100
     18          6           0       -0.029566    2.328023   -1.134111
     19          6           0        1.294657   -0.541549   -0.036503
     20          7           0        2.319334    0.233013   -0.029265
     21          6           0        3.648171   -0.208235   -0.009888
     22          6           0        4.115478   -1.393376    0.593655
     23          6           0        5.478169   -1.688553    0.606601
     24          6           0        6.406036   -0.826321    0.018651
     25          6           0        5.954016    0.354045   -0.576555
     26          6           0        4.596728    0.663118   -0.579762
     27          7           0        1.251197   -1.902769   -0.097506
     28          1           0       -0.828255   -4.296768   -0.404109
     29          1           0        0.906872   -4.322586   -0.376789
     30          1           0       -2.173154    1.140487    0.023395
     31          1           0       -3.357376   -2.398070    0.127505
     32          1           0       -5.779251   -2.918436    0.122532
     33          1           0       -7.464923   -1.093711   -0.012288
     34          1           0       -6.689174    1.275047   -0.138998
     35          1           0       -4.279747    1.791826   -0.137324
     36          1           0        0.084256    1.641142    2.198084
     37          1           0        0.023324    4.129224    2.303802
     38          1           0       -0.065165    5.456978    0.204013
     39          1           0       -0.092881    4.298121   -1.995246
     40          1           0       -0.028013    1.809067   -2.087783
     41          1           0        3.405730   -2.075450    1.044450
     42          1           0        5.817596   -2.606427    1.081895
     43          1           0        7.465851   -1.067262    0.030070
     44          1           0        6.662815    1.041840   -1.031985
     45          1           0        4.235419    1.586243   -1.023834
 ---------------------------------------------------------------------

 The electronic state is 1-A.
 Alpha  occ. eigenvalues --  -14.39420 -14.39314 -14.35604 -14.32358 -14.30617
 Alpha  occ. eigenvalues --  -14.28692 -10.32582 -10.29662 -10.28045 -10.24710
 Alpha  occ. eigenvalues --  -10.24512 -10.20821 -10.20778 -10.20693 -10.20652
 Alpha  occ. eigenvalues --  -10.20604 -10.20019 -10.19845 -10.19557 -10.19311
 Alpha  occ. eigenvalues --  -10.19168 -10.18946 -10.16226 -10.16216 -10.15958
 Alpha  occ. eigenvalues --  -10.15511 -10.15463  -1.04511  -0.97958  -0.95914
 Alpha  occ. eigenvalues --   -0.90778  -0.89313  -0.85966  -0.85778  -0.84894
 Alpha  occ. eigenvalues --   -0.81023  -0.76257  -0.76219  -0.75328  -0.75115
 Alpha  occ. eigenvalues --   -0.71602  -0.71240  -0.67735  -0.65305  -0.63104
 Alpha  occ. eigenvalues --   -0.62504  -0.61429  -0.60850  -0.58879  -0.57794
 Alpha  occ. eigenvalues --   -0.56413  -0.55403  -0.54596  -0.53172  -0.50489
 Alpha  occ. eigenvalues --   -0.50100  -0.49182  -0.48854  -0.48662  -0.47707
 Alpha  occ. eigenvalues --   -0.45416  -0.45350  -0.45176  -0.44460  -0.43854
 Alpha  occ. eigenvalues --   -0.43727  -0.42724  -0.42111  -0.41165  -0.40245
 Alpha  occ. eigenvalues --   -0.38978  -0.38171  -0.37841  -0.37687  -0.36959
 Alpha  occ. eigenvalues --   -0.36543  -0.35927  -0.35300  -0.33778  -0.33185
 Alpha  occ. eigenvalues --   -0.32105  -0.31139  -0.30437  -0.27880  -0.26768
 Alpha  occ. eigenvalues --   -0.26463  -0.25834  -0.25584  -0.24680  -0.22861
 Alpha  occ. eigenvalues --   -0.22300  -0.21991  -0.18061
 Alpha virt. eigenvalues --   -0.02734  -0.02245  -0.01619  -0.00720  -0.00054
 Alpha virt. eigenvalues --    0.02478   0.03081   0.06509   0.07554   0.07916
 Alpha virt. eigenvalues --    0.08458   0.09945   0.11922   0.12926   0.13051

 Mulliken charges:
               1
     1  N   -0.763844
     2  C    0.640203
     3  N   -0.583414
     4  C    0.825708
     5  N   -0.799388
     6  C    0.355932
     7  C   -0.143797
     8  C   -0.144524
     9  C   -0.126755
    10  C   -0.132024
    11  C   -0.205232
    12  N   -0.642226
    13  C    0.210617
    14  C   -0.111124
    15  C   -0.143515
    16  C   -0.117530
    17  C   -0.143980
    18  C   -0.116543
    19  C    0.678198
    20  N   -0.620940
    21  C    0.275707
    22  C   -0.141231
    23  C   -0.146568
    24  C   -0.133226
    25  C   -0.136400
    26  C   -0.160413
    27  N   -0.543831
    28  H    0.343159
    29  H    0.348521
    30  H    0.352921
    31  H    0.174034
    32  H    0.133027
    33  H    0.130530
    34  H    0.133883
    35  H    0.130290
    36  H    0.151542
    37  H    0.143528
    38  H    0.139668
    39  H    0.142605
    40  H    0.150487
    41  H    0.136208
    42  H    0.113878
    43  H    0.112949
    44  H    0.114741
    45  H    0.118172
 Sum of Mulliken charges =  -0.00000

 Dipole moment (field-independent basis, Debye):
    X=             -5.1577    Y=              0.9715    Z=             -0.5185  Tot=              5.2739
 Quadrupole moment (field-independent basis, Debye-Ang):
   XX=           -159.1036   YY=           -125.6244   ZZ=           -153.2070
   XY=             -1.7872   XZ=             -0.0087   YZ=              1.0075

 1\1\GINC-NODE57\FOpt\RB3LYP\6-31G(d)\C21H18N6\WYKGROUP\04-Nov-2022\0\\
 #p b3lyp/6-31g(d) opt SCF=XQC\\Gaussian input prepared by ASE\\0,1\N,0
 .6630205084,3.426639158,-1.8321369737\C,0.4935129831,2.2416796677,-1.1
 85952375\N,-0.8094904648,1.9274115304,-0.9108990194\C,-0.9897206435,0.
 7761157059,-0.3019073598\N,-2.2377108127,0.3409350947,0.0342431337\C,-
 3.5105605319,0.9265791652,-0.1545499178\C,-3.751118082,2.1000540761,-0
 .8832055723\C,-5.0587930159,2.571251646,-1.0086340939\C,-6.1327998145,
 1.898222452,-0.4269305646\C,-5.8890305871,0.7284479016,0.2952433523\C,

 Normal termination of Gaussian 16 at Fri Nov  4 21:35:39 2022.
