 Gaussian 16, Revision B.01,
 Gaussian 16:  ES64L-G16RevB.01 20-Dec-2017

 -------------------------------------------------------------------
 #p b3lyp/6-31g(d) 6D 10F nosymm GFInput td=(50-50,nstate=2) SCF=XQC
 -------------------------------------------------------------------

 ------------------------------
 Gaussian input prepared by ASE
 ------------------------------
 Symbolic Z-matrix:
 Charge =  0 Multiplicity = 1

                          Input orientation:
 ---------------------------------------------------------------------
 Center     Atomic      Atomic             Coordinates (Angstroms)
 Number     Number       Type             X           Y           Z
 ---------------------------------------------------------------------
      1          7           0        0.663021    3.426639   -1.832137
      2          6           0        0.493513    2.241680   -1.185952
      3          7           0       -0.809490    1.927412   -0.910899
      4          6           0       -0.989721    0.776116   -0.301907
      5          7           0       -2.237711    0.340935    0.034243
      6          6           0       -3.510561    0.926579   -0.154550
      7          6           0       -3.751118    2.100054   -0.883206
      8          6           0       -5.058793    2.571252   -1.008634
      9          6           0       -6.132800    1.898222   -0.426931
     10          6           0       -5.889031    0.728448    0.295243
     11          6           0       -4.591309    0.246269    0.431829
     12          7           0        0.053820   -0.057001    0.034239
     13          6           0       -0.162040   -1.312863    0.706515
     14          6           0       -0.351173   -2.477640   -0.042438
     15          6           0       -0.586021   -3.687314    0.611128
     16          6           0       -0.633786   -3.733474    2.006192
     17          6           0       -0.445217   -2.566857    2.750239
     18          6           0       -0.208658   -1.353726    2.103012
     19          6           0        1.409866    0.329378   -0.292881
     20          7           0        2.307466   -0.509383    0.082295
     21          6           0        3.678698   -0.368212   -0.164027
     22          6           0        4.255100    0.266424   -1.283042
     23          6           0        5.639250    0.280348   -1.450843
     24          6           0        6.482761   -0.323521   -0.516018
     25          6           0        5.921355   -0.960789    0.593293
     26          6           0        4.539646   -0.992289    0.759590
     27          7           0        1.568502    1.528529   -0.921689
     28          1           0       -0.108273    4.076145   -1.842250
     29          1           0        1.602812    3.789807   -1.889946
     30          1           0       -2.254958   -0.546229    0.520092
     31          1           0       -2.922014    2.623667   -1.335011
     32          1           0       -5.233248    3.481849   -1.575859
     33          1           0       -7.144796    2.277505   -0.534307
     34          1           0       -6.709830    0.186515    0.756979
     35          1           0       -4.410049   -0.664865    0.998964
     36          1           0       -0.299554   -2.428685   -1.125685
     37          1           0       -0.727316   -4.593823    0.029578
     38          1           0       -0.815372   -4.677335    2.512549
     39          1           0       -0.476601   -2.600014    3.835587
     40          1           0       -0.046016   -0.441209    2.668404
     41          1           0        3.613025    0.747046   -2.010315
     42          1           0        6.062785    0.771815   -2.324162
     43          1           0        7.560780   -0.303653   -0.653388
     44          1           0        6.562091   -1.443849    1.327449
     45          1           0        4.090964   -1.499902    1.608659
 ---------------------------------------------------------------------

 SCF Done:  E(RB3LYP) =  -1139.60771605     A.U. after   15 cycles

 Excitation energies and oscillator strengths:

 Excited state symmetry could not be determined.
 Excited State   1:      Triplet-?Sym    3.1057 eV  399.22 nm  f=0.0000  <S**2>=2.000
      92 ->100         0.17928
      93 -> 94         0.17590
      93 -> 95        -0.11571
      93 -> 96        -0.18921
      93 -> 97        -0.19455
      93 -> 98         0.55471
      93 -> 99        -0.14649
 This state for optimization and/or second-order correction.
 Total Energy, E(TD-HF/TD-DFT) =  -1139.49358446
 Copying the excited state density for this state as the 1-particle RhoCI density.

 Excited state symmetry could not be determined.
 Excited State   2:      Triplet-?Sym    3.3449 eV  370.66 nm  f=0.0000  <S**2>=2.000
      91 -> 94        -0.10893
      93 -> 94         0.63808
      93 -> 98        -0.12199
      93 -> 99         0.17650

 Excited state symmetry could not be determined.
 Excited State   3:      Singlet-?Sym    3.5622 eV  348.05 nm  f=0.0061  <S**2>=0.000
      93 -> 94         0.69786

 Excited state symmetry could not be determined.
 Excited State   4:      Singlet-?Sym    3.6669 eV  338.12 nm  f=0.0040  <S**2>=0.000
      93 -> 95         0.70203

 Alpha  occ. eigenvalues --  -14.39420 -14.39314 -14.35604 -14.32358 -14.30617
 Alpha  occ. eigenvalues --  -14.28692 -10.32582 -10.29662 -10.28045 -10.24710
 Alpha  occ. eigenvalues --  -10.24512 -10.20821 -10.20778 -10.20693 -10.20652
 Alpha  occ. eigenvalues --  -10.20604 -10.20019 -10.19845 -10.19557 -10.19311
 Alpha  occ. eigenvalues --  -10.19168 -10.18946 -10.16226 -10.16216 -10.15958
 Alpha  occ. eigenvalues --  -10.15511 -10.15463  -1.04511  -0.97958  -0.95914
 Alpha  occ. eigenvalues --   -0.90778  -0.89313  -0.85966  -0.85778  -0.84894
 Alpha  occ. eigenvalues --   -0.81022  -0.76257  -0.76219  -0.75328  -0.75115
 Alpha  occ. eigenvalues --   -0.71602  -0.71240  -0.67735  -0.65305  -0.63104
 Alpha  occ. eigenvalues --   -0.62504  -0.61429  -0.60850  -0.58879  -0.57794
 Alpha  occ. eigenvalues --   -0.56413  -0.55403  -0.54596  -0.53172  -0.50489
 Alpha  occ. eigenvalues --   -0.50100  -0.49182  -0.48854  -0.48662  -0.47707
 Alpha  occ. eigenvalues --   -0.45416  -0.45350  -0.45176  -0.44460  -0.43854
 Alpha  occ. eigenvalues --   -0.43727  -0.42724  -0.42111  -0.41165  -0.40245
 Alpha  occ. eigenvalues --   -0.38978  -0.38171  -0.37841  -0.37687  -0.36959
 Alpha  occ. eigenvalues --   -0.36543  -0.35927  -0.35300  -0.33778  -0.33185
 Alpha  occ. eigenvalues --   -0.32105  -0.31139  -0.30437  -0.27880  -0.26768
 Alpha  occ. eigenvalues --   -0.26463  -0.25834  -0.25584  -0.24680  -0.22861
 Alpha  occ. eigenvalues --   -0.22300  -0.21991  -0.18061
 Alpha virt. eigenvalues --   -0.02734  -0.02245  -0.01619  -0.00720  -0.00054
 Alpha virt. eigenvalues --    0.02478   0.03081   0.06509   0.07554   0.07916
 Alpha virt. eigenvalues --    0.08458   0.09945   0.11922   0.12926   0.13051

 Mulliken charges:
               1
     1  N   -0.763850
     2  C    0.640212
     3  N   -0.583415
     4  C    0.825683
     5  N   -0.799367
     6  C    0.355927
     7  C   -0.143801
     8  C   -0.144523
     9  C   -0.126750
    10  C   -0.132033
    11  C   -0.205223
    12  N   -0.642213
    13  C    0.210617
    14  C   -0.111122
    15  C   -0.143518
    16  C   -0.117533
    17  C   -0.143984
    18  C   -0.116536
    19  C    0.678195
    20  N   -0.620939
    21  C    0.275735
    22  C   -0.141256
    23  C   -0.146567
    24  C   -0.133219
    25  C   -0.136399
    26  C   -0.160422
    27  N   -0.543842
    28  H    0.343160
    29  H    0.348522
    30  H    0.352921
    31  H    0.174033
    32  H    0.133027
    33  H    0.130530
    34  H    0.133884
    35  H    0.130289
    36  H    0.151544
    37  H    0.143528
    38  H    0.139668
    39  H    0.142606
    40  H    0.150486
    41  H    0.136210
    42  H    0.113878
    43  H    0.112948
    44  H    0.114740
    45  H    0.118170
 Sum of Mulliken charges =  -0.00000

 Dipole moment (field-independent basis, Debye):
    X=             -5.1754    Y=              0.3030    Z=              0.9684  Tot=              5.2739
 Quadrupole moment (field-independent basis, Debye-Ang):
   XX=           -158.3732   YY=           -132.9184   ZZ=           -147.2349
   XY=              5.6462   XZ=             -2.4648   YZ=            -11.1083

 Normal termination of Gaussian 16 at Sat Nov  5 09:31:44 2022.
