 Gaussian 16, Revision B.01,
 Gaussian 16:  ES64L-G16RevB.01 20-Dec-2017

 -------------------------------------------------------------------
 #p b3lyp/6-31g(d) 6D 10F nosymm GFInput td=(50-50,nstate=2) SCF=XQC
 -------------------------------------------------------------------

 ------------------------------
 Gaussian input prepared by ASE
 ------------------------------
 Symbolic Z-matrix:
 Charge =  0 Multiplicity = 1

                          Input orientation:
 ---------------------------------------------------------------------
 Center     Atomic      Atomic             Coordinates (Angstroms)
 Number     Number       Type             X           Y           Z
 ---------------------------------------------------------------------
      1          6           0        3.466393   -0.378814   -1.320423
      2          6           0        3.110882   -0.266760    0.133912
      3          6           0        1.893793   -0.493001    0.701617
      4          6           0        0.669389   -0.953972   -0.057031
      5          6           0       -0.455567    0.101653   -0.121015
      6          6           0       -0.133997    1.264398   -1.062553
      7          8           0        0.992873    1.480818   -1.492185
      8          6           0       -1.286243    2.128364   -1.398247
      9          6           0       -1.098635    3.356306   -2.056565
     10          6           0       -2.170671    4.202645   -2.295139
     11          6           0       -3.455354    3.822724   -1.873304
     12          6           0       -3.669044    2.606154   -1.236679
     13          6           0       -2.583878    1.750035   -1.004556
     14          8           0       -2.841821    0.562993   -0.398508
     15          6           0       -1.826527   -0.469916   -0.545127
     16          6           0       -2.336721   -1.677063    0.209815
     17          6           0       -2.265587   -1.760686    1.607400
     18          6           0       -2.795802   -2.867620    2.269924
     19          6           0       -3.403740   -3.898857    1.550170
     20          6           0       -3.476243   -3.823311    0.158874
     21          6           0       -2.944977   -2.716423   -0.504155
     22          6           0        1.699999   -0.323209    2.164994
     23          8           0        0.603055   -0.507531    2.692083
     24          7           0        2.801393    0.055882    2.936969
     25          6           0        3.921278    0.254965    2.336680
     26         16           0        5.408989    0.746721    3.167593
     27          6           0        6.271577    0.762623    1.639942
     28          6           0        5.482281    0.419059    0.606774
     29          7           0        4.164107    0.127605    0.977163
     30          1           0        3.789258    0.591933   -1.714011
     31          1           0        4.276068   -1.103257   -1.475863
     32          1           0        2.607719   -0.684735   -1.911068
     33          1           0        0.922352   -1.279993   -1.069016
     34          1           0        0.272767   -1.823470    0.475734
     35          1           0       -0.581945    0.524722    0.884538
     36          1           0       -0.087971    3.620657   -2.352350
     37          1           0       -2.019988    5.153802   -2.796821
     38          1           0       -4.300010    4.482675   -2.053562
     39          1           0       -4.658898    2.291689   -0.922105
     40          1           0       -1.786848   -0.719724   -1.617155
     41          1           0       -1.764925   -0.985825    2.177610
     42          1           0       -2.726459   -2.925567    3.352649
     43          1           0       -3.814106   -4.759684    2.071712
     44          1           0       -3.944816   -4.622089   -0.409913
     45          1           0       -3.008384   -2.655129   -1.588498
     46          1           0        7.317048    1.029685    1.591507
     47          1           0        5.767935    0.358531   -0.431808
 ---------------------------------------------------------------------

 SCF Done:  E(RB3LYP) =  -1620.65212198     A.U. after   17 cycles

 Excitation energies and oscillator strengths:

 Excited state symmetry could not be determined.
 Excited State   1:      Triplet-?Sym    3.1025 eV  399.63 nm  f=0.0000  <S**2>=2.000
     105 ->106        -0.13223
     105 ->107         0.65722
 This state for optimization and/or second-order correction.
 Total Energy, E(TD-HF/TD-DFT) =  -1620.53810846
 Copying the excited state density for this state as the 1-particle RhoCI density.

 Excited state symmetry could not be determined.
 Excited State   2:      Triplet-?Sym    3.2216 eV  384.85 nm  f=0.0000  <S**2>=2.000
      99 ->106        -0.29950
     102 ->106        -0.11827
     104 ->106         0.57167
     104 ->111         0.10995
     104 ->112         0.11643
     105 ->106         0.11644

 Excited state symmetry could not be determined.
 Excited State   3:      Singlet-?Sym    3.7115 eV  334.06 nm  f=0.0007  <S**2>=0.000
      98 ->106        -0.16914
     101 ->106         0.20763
     102 ->106         0.44204
     103 ->106        -0.22252
     105 ->106        -0.39382

 Excited state symmetry could not be determined.
 Excited State   4:      Singlet-?Sym    3.9886 eV  310.85 nm  f=0.0017  <S**2>=0.000
      98 ->106        -0.13834
     102 ->106         0.25883
     103 ->106        -0.16515
     104 ->106         0.26870
     105 ->106         0.54389

 Alpha  occ. eigenvalues --  -88.92825 -19.18052 -19.13568 -19.09980 -14.43091
 Alpha  occ. eigenvalues --  -14.32480 -10.30733 -10.27493 -10.27281 -10.26203
 Alpha  occ. eigenvalues --  -10.26022 -10.25724 -10.25629 -10.24438 -10.20626
 Alpha  occ. eigenvalues --  -10.20605 -10.20233 -10.19890 -10.19727 -10.19507
 Alpha  occ. eigenvalues --  -10.19392 -10.19332 -10.19165 -10.19014 -10.18904
 Alpha  occ. eigenvalues --  -10.18748 -10.18685 -10.18380 -10.18110  -7.98981
 Alpha  occ. eigenvalues --   -5.95423  -5.95068  -5.94563  -1.06973  -1.04364
 Alpha  occ. eigenvalues --   -1.03331  -1.00927  -0.91493  -0.87055  -0.86036
 Alpha  occ. eigenvalues --   -0.85038  -0.82026  -0.79394  -0.76915  -0.75923
 Alpha  occ. eigenvalues --   -0.75695  -0.74029  -0.73943  -0.72991  -0.69311
 Alpha  occ. eigenvalues --   -0.65409  -0.63832  -0.62868  -0.61743  -0.60479
 Alpha  occ. eigenvalues --   -0.60021  -0.59730  -0.57974  -0.55485  -0.54338
 Alpha  occ. eigenvalues --   -0.52451  -0.51780  -0.51149  -0.49466  -0.48886
 Alpha  occ. eigenvalues --   -0.48575  -0.47917  -0.46369  -0.45968  -0.45396
 Alpha  occ. eigenvalues --   -0.44546  -0.43939  -0.43359  -0.43179  -0.42543
 Alpha  occ. eigenvalues --   -0.42151  -0.41834  -0.41560  -0.41190  -0.40927
 Alpha  occ. eigenvalues --   -0.40169  -0.39471  -0.38939  -0.38443  -0.37813
 Alpha  occ. eigenvalues --   -0.37477  -0.36650  -0.36408  -0.35524  -0.34793
 Alpha  occ. eigenvalues --   -0.34400  -0.33735  -0.33214  -0.32728  -0.31560
 Alpha  occ. eigenvalues --   -0.30993  -0.27747  -0.26336  -0.25710  -0.24657
 Alpha  occ. eigenvalues --   -0.24540  -0.24262  -0.23471  -0.22635  -0.21682
 Alpha virt. eigenvalues --   -0.05364  -0.03705  -0.01839  -0.00567  -0.00120
 Alpha virt. eigenvalues --    0.00225   0.00677   0.01166   0.04349   0.07626
 Alpha virt. eigenvalues --    0.08158   0.09570   0.09742   0.10585   0.10755

 Mulliken charges:
               1
     1  C   -0.529267
     2  C    0.337399
     3  C    0.009651
     4  C   -0.346728
     5  C   -0.216496
     6  C    0.397232
     7  O   -0.499786
     8  C    0.054239
     9  C   -0.170256
    10  C   -0.140034
    11  C   -0.123068
    12  C   -0.187236
    13  C    0.340834
    14  O   -0.531725
    15  C    0.032667
    16  C    0.140741
    17  C   -0.165420
    18  C   -0.140517
    19  C   -0.123668
    20  C   -0.133277
    21  C   -0.179623
    22  C    0.512683
    23  O   -0.518800
    24  N   -0.497555
    25  C    0.291861
    26  S    0.291814
    27  C   -0.388427
    28  C    0.112642
    29  N   -0.507513
    30  H    0.188324
    31  H    0.160899
    32  H    0.195098
    33  H    0.139664
    34  H    0.183905
    35  H    0.207428
    36  H    0.156092
    37  H    0.133232
    38  H    0.138565
    39  H    0.147315
    40  H    0.132527
    41  H    0.185295
    42  H    0.139664
    43  H    0.130391
    44  H    0.129050
    45  H    0.126354
    46  H    0.194780
    47  H    0.189047
 Sum of Mulliken charges =  -0.00000

 Dipole moment (field-independent basis, Debye):
    X=              3.6448    Y=             -0.2192    Z=             -4.4662  Tot=              5.7688
 Quadrupole moment (field-independent basis, Debye-Ang):
   XX=           -131.6074   YY=           -161.6763   ZZ=           -183.5729
   XY=              1.8243   XZ=             -1.8936   YZ=             -0.2976

 Normal termination of Gaussian 16 at Sat Nov  5 09:35:05 2022.
