 Gaussian 16, Revision B.01,
 Gaussian 16:  ES64L-G16RevB.01 20-Dec-2017

 -----------------------------
 #p b3lyp/6-31g(d) opt SCF=XQC
 -----------------------------

 ------------------------------
 Gaussian input prepared by ASE
 ------------------------------
 Symbolic Z-matrix:
 Charge =  0 Multiplicity = 1

 SCF Done:  E(RB3LYP) =  -1281.21117472     A.U. after   15 cycles
 SCF Done:  E(RB3LYP) =  -1281.21822673     A.U. after   14 cycles
 SCF Done:  E(RB3LYP) =  -1281.21910042     A.U. after   14 cycles
 SCF Done:  E(RB3LYP) =  -1281.22156418     A.U. after   13 cycles
 SCF Done:  E(RB3LYP) =  -1281.22186937     A.U. after   13 cycles
 SCF Done:  E(RB3LYP) =  -1281.22146305     A.U. after   13 cycles
 SCF Done:  E(RB3LYP) =  -1281.22211838     A.U. after   12 cycles
 SCF Done:  E(RB3LYP) =  -1281.22215830     A.U. after   12 cycles
 SCF Done:  E(RB3LYP) =  -1281.22216611     A.U. after   11 cycles
 SCF Done:  E(RB3LYP) =  -1281.22217607     A.U. after   11 cycles
 SCF Done:  E(RB3LYP) =  -1281.22220817     A.U. after   10 cycles
 SCF Done:  E(RB3LYP) =  -1281.22220852     A.U. after    8 cycles
 SCF Done:  E(RB3LYP) =  -1281.22220511     A.U. after   10 cycles
 SCF Done:  E(RB3LYP) =  -1281.20665712     A.U. after   14 cycles
 SCF Done:  E(RB3LYP) =  -1281.22218362     A.U. after   12 cycles
 SCF Done:  E(RB3LYP) =  -1281.22221152     A.U. after    9 cycles
 SCF Done:  E(RB3LYP) =  -1281.22220933     A.U. after   10 cycles
 SCF Done:  E(RB3LYP) =  -1281.22221169     A.U. after   10 cycles
 SCF Done:  E(RB3LYP) =  -1281.22221226     A.U. after    9 cycles
 SCF Done:  E(RB3LYP) =  -1281.22221230     A.U. after    6 cycles
 Optimization completed on the basis of negligible forces.
    -- Stationary point found.

                         Standard orientation:
 ---------------------------------------------------------------------
 Center     Atomic      Atomic             Coordinates (Angstroms)
 Number     Number       Type             X           Y           Z
 ---------------------------------------------------------------------
      1          6           0        2.322879   -3.824968   -0.294298
      2          6           0        1.419474   -2.800864   -0.936349
      3          8           0        0.458123   -3.091465   -1.624088
      4          6           0        1.840672   -1.348899   -0.830507
      5          6           0        1.380346   -0.366295   -0.043311
      6          6           0        1.762296    1.058248   -0.213676
      7          6           0        1.686344    1.630633   -1.495691
      8          6           0        2.077648    2.951048   -1.709589
      9          6           0        2.544850    3.722483   -0.644216
     10          6           0        2.616001    3.165632    0.634215
     11          6           0        2.226746    1.845151    0.854339
     12         16           0        0.173590   -0.794040    1.255425
     13          8           0        0.147367   -2.265616    1.340267
     14          8           0        0.476212    0.003510    2.456479
     15          6           0       -1.392883   -0.224059    0.590148
     16          6           0       -1.955949   -0.883491   -0.507098
     17          6           0       -3.181640   -0.440506   -0.994708
     18          6           0       -3.855705    0.640020   -0.402524
     19          6           0       -5.199309    1.085725   -0.928066
     20          6           0       -3.262693    1.279156    0.693623
     21          6           0       -2.032107    0.856271    1.195768
     22          1           0        2.004715   -4.829593   -0.581988
     23          1           0        2.266133   -3.713313    0.793321
     24          1           0        3.366393   -3.662054   -0.592506
     25          1           0        2.603380   -1.075066   -1.562329
     26          1           0        1.302353    1.036369   -2.320127
     27          1           0        2.008968    3.378384   -2.706301
     28          1           0        2.847956    4.753025   -0.808520
     29          1           0        2.980570    3.760412    1.467296
     30          1           0        2.280522    1.418321    1.848466
     31          1           0       -1.439399   -1.716344   -0.976356
     32          1           0       -3.625966   -0.944260   -1.849805
     33          1           0       -5.996808    0.412253   -0.587794
     34          1           0       -5.450965    2.093730   -0.584266
     35          1           0       -5.221383    1.083373   -2.023430
     36          1           0       -3.768660    2.119869    1.161679
     37          1           0       -1.570684    1.346389    2.046231
 ---------------------------------------------------------------------

 The electronic state is 1-A.
 Alpha  occ. eigenvalues --  -89.09377 -19.14795 -19.13987 -19.13906 -10.29295
 Alpha  occ. eigenvalues --  -10.24005 -10.22605 -10.22242 -10.21506 -10.21506
 Alpha  occ. eigenvalues --  -10.20848 -10.20658 -10.20212 -10.20138 -10.20060
 Alpha  occ. eigenvalues --  -10.20021 -10.19921 -10.19744 -10.19644 -10.19462
 Alpha  occ. eigenvalues --  -10.18896  -8.12246  -6.08685  -6.08616  -6.08560
 Alpha  occ. eigenvalues --   -1.09661  -1.04756  -0.99387  -0.87408  -0.86999
 Alpha  occ. eigenvalues --   -0.82572  -0.79416  -0.76250  -0.75914  -0.75282
 Alpha  occ. eigenvalues --   -0.73711  -0.71755  -0.67398  -0.63404  -0.62194
 Alpha  occ. eigenvalues --   -0.61411  -0.59713  -0.57726  -0.54951  -0.53038
 Alpha  occ. eigenvalues --   -0.51248  -0.48926  -0.48042  -0.47736  -0.46685
 Alpha  occ. eigenvalues --   -0.46085  -0.45459  -0.44688  -0.44564  -0.43900
 Alpha  occ. eigenvalues --   -0.43338  -0.43152  -0.42951  -0.42707  -0.42101
 Alpha  occ. eigenvalues --   -0.39680  -0.39438  -0.37635  -0.37230  -0.36847
 Alpha  occ. eigenvalues --   -0.36642  -0.35867  -0.35376  -0.35110  -0.32524
 Alpha  occ. eigenvalues --   -0.31506  -0.30771  -0.29835  -0.28884  -0.26414
 Alpha  occ. eigenvalues --   -0.26063  -0.25916  -0.25602  -0.24452
 Alpha virt. eigenvalues --   -0.05461  -0.03027  -0.01897  -0.01475  -0.00668
 Alpha virt. eigenvalues --    0.00319   0.06762   0.08388   0.08634   0.10045
 Alpha virt. eigenvalues --    0.10422   0.11761   0.12194   0.12944   0.13828

 Mulliken charges:
               1
     1  C   -0.532249
     2  C    0.454652
     3  O   -0.429448
     4  C   -0.198287
     5  C   -0.197707
     6  C    0.079910
     7  C   -0.161803
     8  C   -0.133753
     9  C   -0.121123
    10  C   -0.137190
    11  C   -0.154979
    12  S    1.165973
    13  O   -0.561901
    14  O   -0.548014
    15  C   -0.164265
    16  C   -0.144174
    17  C   -0.181505
    18  C    0.183180
    19  C   -0.530895
    20  C   -0.179942
    21  C   -0.135185
    22  H    0.180224
    23  H    0.211426
    24  H    0.162398
    25  H    0.184131
    26  H    0.141082
    27  H    0.135939
    28  H    0.135540
    29  H    0.138580
    30  H    0.178198
    31  H    0.204675
    32  H    0.138745
    33  H    0.174934
    34  H    0.161086
    35  H    0.165322
    36  H    0.135633
    37  H    0.180794
 Sum of Mulliken charges =  -0.00000

 Dipole moment (field-independent basis, Debye):
    X=              0.0770    Y=              3.2137    Z=             -2.8849  Tot=              4.3193
 Quadrupole moment (field-independent basis, Debye-Ang):
   XX=           -108.0926   YY=           -125.0481   ZZ=           -132.5160
   XY=             -5.9963   XZ=             -0.7559   YZ=              1.4348

 Normal termination of Gaussian 16 at Fri Nov  4 21:35:18 2022.
