 Gaussian 16, Revision B.01,
 Gaussian 16:  ES64L-G16RevB.01 20-Dec-2017

 -----------------------------
 #p b3lyp/6-31g(d) opt SCF=XQC
 -----------------------------

 ------------------------------
 Gaussian input prepared by ASE
 ------------------------------
 Symbolic Z-matrix:
 Charge =  0 Multiplicity = 1

 SCF Done:  E(RB3LYP) =  -1620.64315789     A.U. after   17 cycles
 SCF Done:  E(RB3LYP) =  -1620.65022272     A.U. after   13 cycles
 SCF Done:  E(RB3LYP) =  -1620.65106117     A.U. after   13 cycles
 SCF Done:  E(RB3LYP) =  -1620.65130524     A.U. after   13 cycles
 SCF Done:  E(RB3LYP) =  -1620.65179313     A.U. after   12 cycles
 SCF Done:  E(RB3LYP) =  -1620.65182032     A.U. after   12 cycles
 SCF Done:  E(RB3LYP) =  -1620.65197841     A.U. after   11 cycles
 SCF Done:  E(RB3LYP) =  -1620.65203071     A.U. after   12 cycles
 SCF Done:  E(RB3LYP) =  -1620.65206636     A.U. after   12 cycles
 SCF Done:  E(RB3LYP) =  -1620.65208665     A.U. after   12 cycles
 SCF Done:  E(RB3LYP) =  -1620.65209766     A.U. after   11 cycles
 SCF Done:  E(RB3LYP) =  -1620.65211274     A.U. after   12 cycles
 SCF Done:  E(RB3LYP) =  -1620.65211822     A.U. after   11 cycles
 SCF Done:  E(RB3LYP) =  -1620.65212025     A.U. after    9 cycles
 SCF Done:  E(RB3LYP) =  -1620.65212048     A.U. after    8 cycles
 SCF Done:  E(RB3LYP) =  -1620.65212077     A.U. after    7 cycles
 SCF Done:  E(RB3LYP) =  -1620.65212096     A.U. after    7 cycles
 SCF Done:  E(RB3LYP) =  -1620.65212102     A.U. after    7 cycles
 Optimization completed.
    -- Stationary point found.

                         Standard orientation:
 ---------------------------------------------------------------------
 Center     Atomic      Atomic             Coordinates (Angstroms)
 Number     Number       Type             X           Y           Z
 ---------------------------------------------------------------------
      1          6           0       -2.456780    0.748147    2.469974
      2          6           0       -2.543735    0.094054    1.121406
      3          6           0       -1.538253   -0.524503    0.442309
      4          6           0       -0.132350   -0.701054    0.970960
      5          6           0        0.929233    0.108021    0.194814
      6          6           0        0.859851    1.611095    0.473796
      7          8           0       -0.099259    2.143064    1.020031
      8          6           0        2.032572    2.383413    0.010061
      9          6           0        2.006805    3.788847   -0.012576
     10          6           0        3.075102    4.508265   -0.526046
     11          6           0        4.192445    3.819673   -1.026126
     12          6           0        4.249114    2.431505   -0.998282
     13          6           0        3.170445    1.708348   -0.471099
     14          8           0        3.277415    0.355294   -0.444674
     15          6           0        2.381300   -0.344752    0.464245
     16          6           0        2.686741   -1.818046    0.310793
     17          6           0        2.214421   -2.562470   -0.779182
     18          6           0        2.562807   -3.906472   -0.912052
     19          6           0        3.385603   -4.521154    0.034657
     20          6           0        3.857651   -3.786945    1.123131
     21          6           0        3.508408   -2.442611    1.256721
     22          6           0       -1.784260   -1.113604   -0.899443
     23          8           0       -0.883132   -1.661670   -1.534011
     24          7           0       -3.073887   -1.029170   -1.430910
     25          6           0       -3.976096   -0.429926   -0.737333
     26         16           0       -5.655761   -0.230274   -1.270615
     27          6           0       -6.036281    0.631196    0.209623
     28          6           0       -4.970132    0.742230    1.021693
     29          7           0       -3.808528    0.151197    0.510742
     30          1           0       -2.680981    1.818427    2.394225
     31          1           0       -3.163275    0.294517    3.176824
     32          1           0       -1.454295    0.667890    2.880284
     33          1           0       -0.069497   -0.459820    2.035033
     34          1           0        0.118720   -1.760396    0.861722
     35          1           0        0.744209   -0.030904   -0.878761
     36          1           0        1.118355    4.283122    0.368425
     37          1           0        3.047614    5.593534   -0.548939
     38          1           0        5.032121    4.376794   -1.433597
     39          1           0        5.113748    1.887231   -1.364109
     40          1           0        2.663209   -0.033995    1.482665
     41          1           0        1.545681   -2.109645   -1.503025
     42          1           0        2.183074   -4.475559   -1.756091
     43          1           0        3.652813   -5.569182   -0.073350
     44          1           0        4.496034   -4.257295    1.866343
     45          1           0        3.882833   -1.869126    2.102001
     46          1           0       -7.030110    1.011539    0.394879
     47          1           0       -4.939020    1.230020    1.983466
 ---------------------------------------------------------------------

 The electronic state is 1-A.
 Alpha  occ. eigenvalues --  -88.92825 -19.18052 -19.13568 -19.09980 -14.43091
 Alpha  occ. eigenvalues --  -14.32479 -10.30733 -10.27493 -10.27281 -10.26203
 Alpha  occ. eigenvalues --  -10.26022 -10.25724 -10.25629 -10.24438 -10.20626
 Alpha  occ. eigenvalues --  -10.20605 -10.20233 -10.19890 -10.19727 -10.19507
 Alpha  occ. eigenvalues --  -10.19392 -10.19332 -10.19165 -10.19014 -10.18904
 Alpha  occ. eigenvalues --  -10.18748 -10.18685 -10.18380 -10.18110  -7.98981
 Alpha  occ. eigenvalues --   -5.95423  -5.95068  -5.94563  -1.06973  -1.04364
 Alpha  occ. eigenvalues --   -1.03330  -1.00927  -0.91493  -0.87055  -0.86036
 Alpha  occ. eigenvalues --   -0.85038  -0.82026  -0.79394  -0.76915  -0.75923
 Alpha  occ. eigenvalues --   -0.75695  -0.74029  -0.73943  -0.72991  -0.69311
 Alpha  occ. eigenvalues --   -0.65409  -0.63832  -0.62868  -0.61743  -0.60479
 Alpha  occ. eigenvalues --   -0.60021  -0.59730  -0.57974  -0.55485  -0.54338
 Alpha  occ. eigenvalues --   -0.52451  -0.51780  -0.51149  -0.49466  -0.48886
 Alpha  occ. eigenvalues --   -0.48575  -0.47917  -0.46369  -0.45968  -0.45396
 Alpha  occ. eigenvalues --   -0.44546  -0.43939  -0.43359  -0.43179  -0.42543
 Alpha  occ. eigenvalues --   -0.42151  -0.41834  -0.41560  -0.41190  -0.40927
 Alpha  occ. eigenvalues --   -0.40169  -0.39471  -0.38939  -0.38443  -0.37813
 Alpha  occ. eigenvalues --   -0.37477  -0.36650  -0.36408  -0.35524  -0.34793
 Alpha  occ. eigenvalues --   -0.34400  -0.33735  -0.33214  -0.32728  -0.31560
 Alpha  occ. eigenvalues --   -0.30993  -0.27747  -0.26336  -0.25710  -0.24657
 Alpha  occ. eigenvalues --   -0.24540  -0.24262  -0.23471  -0.22635  -0.21682
 Alpha virt. eigenvalues --   -0.05364  -0.03705  -0.01839  -0.00567  -0.00120
 Alpha virt. eigenvalues --    0.00225   0.00678   0.01166   0.04349   0.07626
 Alpha virt. eigenvalues --    0.08158   0.09570   0.09742   0.10585   0.10755

 Mulliken charges:
               1
     1  C   -0.529254
     2  C    0.337411
     3  C    0.009591
     4  C   -0.346701
     5  C   -0.216505
     6  C    0.397249
     7  O   -0.499784
     8  C    0.054241
     9  C   -0.170271
    10  C   -0.140030
    11  C   -0.123063
    12  C   -0.187242
    13  C    0.340830
    14  O   -0.531720
    15  C    0.032673
    16  C    0.140713
    17  C   -0.165402
    18  C   -0.140519
    19  C   -0.123667
    20  C   -0.133280
    21  C   -0.179617
    22  C    0.512725
    23  O   -0.518799
    24  N   -0.497582
    25  C    0.291890
    26  S    0.291810
    27  C   -0.388420
    28  C    0.112637
    29  N   -0.507538
    30  H    0.188325
    31  H    0.160899
    32  H    0.195096
    33  H    0.139663
    34  H    0.183902
    35  H    0.207426
    36  H    0.156093
    37  H    0.133233
    38  H    0.138565
    39  H    0.147315
    40  H    0.132529
    41  H    0.185294
    42  H    0.139664
    43  H    0.130392
    44  H    0.129050
    45  H    0.126353
    46  H    0.194780
    47  H    0.189047
 Sum of Mulliken charges =  -0.00000

 Dipole moment (field-independent basis, Debye):
    X=             -2.1781    Y=              2.4237    Z=              4.7604  Tot=              5.7688
 Quadrupole moment (field-independent basis, Debye-Ang):
   XX=           -139.0028   YY=           -165.5053   ZZ=           -171.7329
   XY=             -7.7389   XZ=            -11.8470   YZ=             -6.2066

 Normal termination of Gaussian 16 at Fri Nov  4 21:33:28 2022.
