 Gaussian 16, Revision B.01,
 Gaussian 16:  ES64L-G16RevB.01 20-Dec-2017

 -------------------------------------------------------------------
 #p b3lyp/6-31g(d) 6D 10F nosymm GFInput td=(50-50,nstate=2) SCF=XQC
 -------------------------------------------------------------------

 ------------------------------
 Gaussian input prepared by ASE
 ------------------------------
 Symbolic Z-matrix:
 Charge =  0 Multiplicity = 1

                          Input orientation:
 ---------------------------------------------------------------------
 Center     Atomic      Atomic             Coordinates (Angstroms)
 Number     Number       Type             X           Y           Z
 ---------------------------------------------------------------------
      1          6           0       -1.215151    4.264164   -1.712210
      2          6           0       -0.414110    2.986811   -1.774357
      3          8           0        0.773141    2.951683   -2.040497
      4          6           0       -1.181532    1.686293   -1.645799
      5          6           0       -1.297613    0.845340   -0.608296
      6          6           0       -1.920840   -0.497848   -0.716317
      7          6           0       -1.515684   -1.350070   -1.758679
      8          6           0       -2.106033   -2.601608   -1.924533
      9          6           0       -3.106121   -3.024022   -1.047151
     10          6           0       -3.509392   -2.188315   -0.003842
     11          6           0       -2.923173   -0.934966    0.166770
     12         16           0       -0.593461    1.351122    0.996166
     13          8           0       -0.246222    2.778719    0.874461
     14          8           0       -1.502538    0.907232    2.067025
     15          6           0        0.920473    0.395205    1.120799
     16          6           0        1.991320    0.687083    0.269956
     17          6           0        3.164418   -0.050542    0.396719
     18          6           0        3.288680   -1.064867    1.360195
     19          6           0        4.580932   -1.833121    1.501577
     20          6           0        2.196281   -1.332576    2.194877
     21          6           0        1.008555   -0.610149    2.082050
     22          1           0       -0.580699    5.111049   -1.983362
     23          1           0       -1.594335    4.393835   -0.693384
     24          1           0       -2.079828    4.212215   -2.386023
     25          1           0       -1.660415    1.383429   -2.579189
     26          1           0       -0.722289   -1.029486   -2.428040
     27          1           0       -1.778140   -3.248800   -2.733482
     28          1           0       -3.565790   -4.000589   -1.173279
     29          1           0       -4.288697   -2.510638    0.681352
     30          1           0       -3.236864   -0.291301    0.979579
     31          1           0        1.902988    1.465513   -0.482982
     32          1           0        4.001444    0.166270   -0.262646
     33          1           0        5.332601   -1.240975    2.039825
     34          1           0        4.435919   -2.764446    2.057640
     35          1           0        5.007299   -2.082464    0.523643
     36          1           0        2.273670   -2.117079    2.943504
     37          1           0        0.161203   -0.812101    2.728288
 ---------------------------------------------------------------------

 SCF Done:  E(RB3LYP) =  -1281.22221179     A.U. after   15 cycles

 Excitation energies and oscillator strengths:

 Excited state symmetry could not be determined.
 Excited State   1:      Triplet-?Sym    3.2469 eV  381.85 nm  f=0.0000  <S**2>=2.000
      72 -> 80         0.17718
      72 -> 85        -0.13454
      74 -> 80        -0.11699
      77 -> 84         0.11127
      79 -> 80         0.56446
      79 -> 81        -0.17124
 This state for optimization and/or second-order correction.
 Total Energy, E(TD-HF/TD-DFT) =  -1281.10288878
 Copying the excited state density for this state as the 1-particle RhoCI density.

 Excited state symmetry could not be determined.
 Excited State   2:      Triplet-?Sym    3.6338 eV  341.19 nm  f=0.0000  <S**2>=2.000
      75 -> 83        -0.33592
      76 -> 83        -0.11659
      77 -> 80        -0.25322
      77 -> 81        -0.26992
      77 -> 85        -0.10359
      78 -> 80         0.25173
      78 -> 81         0.24369
      78 -> 82         0.12359
      79 -> 81        -0.16053

 Excited state symmetry could not be determined.
 Excited State   3:      Singlet-?Sym    4.7232 eV  262.50 nm  f=0.0707  <S**2>=0.000
      75 -> 80        -0.13268
      76 -> 80         0.33966
      78 -> 80         0.33038
      79 -> 80         0.48645
      79 -> 82         0.10900

 Excited state symmetry could not be determined.
 Excited State   4:      Singlet-?Sym    4.9442 eV  250.76 nm  f=0.0067  <S**2>=0.000
      76 -> 80        -0.22219
      77 -> 80         0.22719
      78 -> 80         0.34664
      79 -> 81         0.38408
      79 -> 82        -0.35431

 Alpha  occ. eigenvalues --  -89.09377 -19.14795 -19.13987 -19.13906 -10.29295
 Alpha  occ. eigenvalues --  -10.24005 -10.22605 -10.22242 -10.21506 -10.21506
 Alpha  occ. eigenvalues --  -10.20848 -10.20658 -10.20212 -10.20138 -10.20060
 Alpha  occ. eigenvalues --  -10.20021 -10.19921 -10.19744 -10.19644 -10.19462
 Alpha  occ. eigenvalues --  -10.18896  -8.12246  -6.08685  -6.08616  -6.08560
 Alpha  occ. eigenvalues --   -1.09661  -1.04756  -0.99387  -0.87408  -0.86999
 Alpha  occ. eigenvalues --   -0.82572  -0.79416  -0.76250  -0.75914  -0.75282
 Alpha  occ. eigenvalues --   -0.73711  -0.71755  -0.67398  -0.63404  -0.62194
 Alpha  occ. eigenvalues --   -0.61411  -0.59713  -0.57726  -0.54951  -0.53038
 Alpha  occ. eigenvalues --   -0.51248  -0.48926  -0.48042  -0.47736  -0.46685
 Alpha  occ. eigenvalues --   -0.46085  -0.45459  -0.44688  -0.44564  -0.43900
 Alpha  occ. eigenvalues --   -0.43338  -0.43152  -0.42951  -0.42707  -0.42101
 Alpha  occ. eigenvalues --   -0.39680  -0.39438  -0.37635  -0.37230  -0.36847
 Alpha  occ. eigenvalues --   -0.36642  -0.35867  -0.35376  -0.35110  -0.32524
 Alpha  occ. eigenvalues --   -0.31506  -0.30771  -0.29835  -0.28884  -0.26414
 Alpha  occ. eigenvalues --   -0.26063  -0.25916  -0.25602  -0.24452
 Alpha virt. eigenvalues --   -0.05461  -0.03027  -0.01897  -0.01474  -0.00669
 Alpha virt. eigenvalues --    0.00319   0.06762   0.08388   0.08634   0.10044
 Alpha virt. eigenvalues --    0.10422   0.11761   0.12194   0.12944   0.13828

 Mulliken charges:
               1
     1  C   -0.532254
     2  C    0.454660
     3  O   -0.429450
     4  C   -0.198281
     5  C   -0.197683
     6  C    0.079934
     7  C   -0.161827
     8  C   -0.133756
     9  C   -0.121117
    10  C   -0.137178
    11  C   -0.155016
    12  S    1.165964
    13  O   -0.561884
    14  O   -0.548015
    15  C   -0.164276
    16  C   -0.144175
    17  C   -0.181515
    18  C    0.183192
    19  C   -0.530894
    20  C   -0.179944
    21  C   -0.135195
    22  H    0.180224
    23  H    0.211428
    24  H    0.162399
    25  H    0.184130
    26  H    0.141084
    27  H    0.135940
    28  H    0.135539
    29  H    0.138580
    30  H    0.178202
    31  H    0.204674
    32  H    0.138746
    33  H    0.174933
    34  H    0.161086
    35  H    0.165321
    36  H    0.135631
    37  H    0.180794
 Sum of Mulliken charges =  -0.00000

 Dipole moment (field-independent basis, Debye):
    X=              0.2246    Y=             -3.7255    Z=             -2.1741  Tot=              4.3193
 Quadrupole moment (field-independent basis, Debye-Ang):
   XX=           -115.3512   YY=           -125.8100   ZZ=           -126.8404
   XY=             -5.4983   XZ=              9.3806   YZ=             -7.1930

 Normal termination of Gaussian 16 at Sat Nov  5 09:31:38 2022.
