 Gaussian 16, Revision B.01,
 Gaussian 16:  ES64L-G16RevB.01 20-Dec-2017

 -------------------------------------------------------------------
 #p b3lyp/6-31g(d) 6D 10F nosymm GFInput td=(50-50,nstate=2) SCF=XQC
 -------------------------------------------------------------------

 ------------------------------
 Gaussian input prepared by ASE
 ------------------------------
 Symbolic Z-matrix:
 Charge =  0 Multiplicity = 1

                          Input orientation:
 ---------------------------------------------------------------------
 Center     Atomic      Atomic             Coordinates (Angstroms)
 Number     Number       Type             X           Y           Z
 ---------------------------------------------------------------------
      1          6           0        2.913850    1.384758    3.654234
      2          6           0        3.941884    0.489987    3.352788
      3          6           0        4.210916    0.153621    2.025981
      4          6           0        3.457255    0.699045    0.973141
      5          6           0        3.809168    0.380940   -0.438863
      6          6           0        5.156444    0.416392   -0.836453
      7          6           0        5.549481    0.147563   -2.144977
      8          6           0        4.582644   -0.164671   -3.101423
      9          6           0        3.240382   -0.214450   -2.738041
     10          6           0        2.845001    0.040674   -1.416137
     11          7           0        1.464316    0.039481   -1.121428
     12          6           0        0.793175   -1.014545   -0.889752
     13         16           0        1.609670   -2.615783   -0.708291
     14          6           0        0.346745   -3.870457   -1.163519
     15          6           0       -1.005992   -3.651897   -0.515626
     16         16           0       -1.852322   -2.143656   -1.131516
     17          6           0       -0.693221   -0.847104   -0.638847
     18          7           0       -1.082880    0.269392   -0.182311
     19          6           0       -2.429717    0.592692    0.088459
     20          6           0       -3.009223    0.208291    1.322235
     21          6           0       -2.286460   -0.627405    2.323025
     22          6           0       -2.924430   -1.745455    2.887366
     23          6           0       -2.285790   -2.526119    3.851832
     24          6           0       -0.994375   -2.203436    4.272275
     25          6           0       -0.348459   -1.095050    3.720021
     26          6           0       -0.986875   -0.315873    2.756046
     27          6           0       -4.326783    0.604130    1.591586
     28          6           0       -5.057242    1.360728    0.680348
     29          6           0       -4.473435    1.731326   -0.526488
     30          6           0       -3.158262    1.363179   -0.849160
     31          6           0       -2.597775    1.766598   -2.171280
     32          6           0       -1.306212    2.304731   -2.305540
     33          6           0       -0.833227    2.718510   -3.550051
     34          6           0       -1.634573    2.601631   -4.687529
     35          6           0       -2.916359    2.062796   -4.570573
     36          6           0       -3.391200    1.650311   -3.325905
     37          6           0        2.417304    1.589519    1.290956
     38          6           0        2.153840    1.931885    2.616917
     39          1           0        2.707553    1.656092    4.686295
     40          1           0        4.536157    0.051413    4.150372
     41          1           0        5.005287   -0.552582    1.799942
     42          1           0        5.903778    0.689180   -0.096519
     43          1           0        6.599834    0.197044   -2.417655
     44          1           0        4.869143   -0.367911   -4.129780
     45          1           0        2.475420   -0.453460   -3.470604
     46          1           0        0.254467   -3.911587   -2.252441
     47          1           0        0.785887   -4.814590   -0.820580
     48          1           0       -1.686653   -4.469749   -0.777992
     49          1           0       -0.932685   -3.604699    0.574509
     50          1           0       -3.923349   -2.011098    2.551928
     51          1           0       -2.797935   -3.388491    4.271452
     52          1           0       -0.494740   -2.811328    5.022109
     53          1           0        0.657202   -0.830611    4.035320
     54          1           0       -0.469944    0.539329    2.334139
     55          1           0       -4.767663    0.324620    2.544233
     56          1           0       -6.070649    1.672807    0.916256
     57          1           0       -5.029784    2.339478   -1.233708
     58          1           0       -0.668857    2.392729   -1.433256
     59          1           0        0.167459    3.135316   -3.628559
     60          1           0       -1.261295    2.922834   -5.656471
     61          1           0       -3.547238    1.956056   -5.449380
     62          1           0       -4.383337    1.214115   -3.247128
     63          1           0        1.818172    2.016495    0.494131
     64          1           0        1.356501    2.636321    2.839888
 ---------------------------------------------------------------------

 SCF Done:  E(RB3LYP) =  -2217.14203377     A.U. after   16 cycles

 Excitation energies and oscillator strengths:

 Excited state symmetry could not be determined.
 Excited State   1:      Triplet-?Sym    2.6641 eV  465.39 nm  f=0.0000  <S**2>=2.000
     130 ->139         0.10076
     138 ->139         0.65627
 This state for optimization and/or second-order correction.
 Total Energy, E(TD-HF/TD-DFT) =  -2217.04412983
 Copying the excited state density for this state as the 1-particle RhoCI density.

 Excited state symmetry could not be determined.
 Excited State   2:      Triplet-?Sym    2.8100 eV  441.23 nm  f=0.0000  <S**2>=2.000
     125 ->139        -0.12350
     135 ->139        -0.20532
     137 ->139         0.61801

 Excited state symmetry could not be determined.
 Excited State   3:      Singlet-?Sym    2.9938 eV  414.13 nm  f=0.0004  <S**2>=0.000
     138 ->139         0.69434

 Excited state symmetry could not be determined.
 Excited State   4:      Singlet-?Sym    3.1534 eV  393.17 nm  f=0.0011  <S**2>=0.000
     137 ->139         0.68791

 Alpha  occ. eigenvalues --  -88.89562 -88.89350 -14.34843 -14.34602 -10.28137
 Alpha  occ. eigenvalues --  -10.28025 -10.24067 -10.23977 -10.22850 -10.22639
 Alpha  occ. eigenvalues --  -10.19722 -10.19671 -10.19664 -10.19466 -10.19441
 Alpha  occ. eigenvalues --  -10.19175 -10.18779 -10.18652 -10.18633 -10.18633
 Alpha  occ. eigenvalues --  -10.18630 -10.18582 -10.18577 -10.18541 -10.18500
 Alpha  occ. eigenvalues --  -10.18489 -10.18465 -10.18463 -10.18342 -10.18293
 Alpha  occ. eigenvalues --  -10.18223 -10.18222 -10.18172 -10.18156 -10.18128
 Alpha  occ. eigenvalues --  -10.18041 -10.17991 -10.17732  -7.95709  -7.95506
 Alpha  occ. eigenvalues --   -5.92218  -5.92007  -5.91808  -5.91632  -5.91208
 Alpha  occ. eigenvalues --   -5.90985  -0.96810  -0.93881  -0.86442  -0.85632
 Alpha  occ. eigenvalues --   -0.84924  -0.84372  -0.83666  -0.83348  -0.77873
 Alpha  occ. eigenvalues --   -0.77242  -0.77052  -0.76602  -0.74798  -0.73815
 Alpha  occ. eigenvalues --   -0.73735  -0.73438  -0.72675  -0.71588  -0.70822
 Alpha  occ. eigenvalues --   -0.70733  -0.65329  -0.63381  -0.62340  -0.61847
 Alpha  occ. eigenvalues --   -0.61231  -0.60204  -0.59584  -0.59405  -0.58861
 Alpha  occ. eigenvalues --   -0.57739  -0.56576  -0.56318  -0.53817  -0.52592
 Alpha  occ. eigenvalues --   -0.50977  -0.50399  -0.50169  -0.49589  -0.47857
 Alpha  occ. eigenvalues --   -0.47557  -0.47221  -0.47088  -0.46487  -0.45977
 Alpha  occ. eigenvalues --   -0.44959  -0.44640  -0.44542  -0.43988  -0.43684
 Alpha  occ. eigenvalues --   -0.43074  -0.42843  -0.42226  -0.41681  -0.41563
 Alpha  occ. eigenvalues --   -0.41485  -0.41294  -0.41230  -0.41069  -0.40864
 Alpha  occ. eigenvalues --   -0.38612  -0.38013  -0.37626  -0.36708  -0.36256
 Alpha  occ. eigenvalues --   -0.36173  -0.35768  -0.35531  -0.35373  -0.35300
 Alpha  occ. eigenvalues --   -0.34722  -0.34173  -0.33955  -0.33557  -0.33445
 Alpha  occ. eigenvalues --   -0.33274  -0.32929  -0.32659  -0.30493  -0.30246
 Alpha  occ. eigenvalues --   -0.28473  -0.26947  -0.26615  -0.25386  -0.24826
 Alpha  occ. eigenvalues --   -0.24703  -0.24293  -0.24170  -0.23843  -0.23028
 Alpha  occ. eigenvalues --   -0.21742  -0.21084  -0.20729
 Alpha virt. eigenvalues --   -0.06235  -0.02397  -0.02071  -0.01460  -0.00809
 Alpha virt. eigenvalues --    0.00140   0.00491   0.00686   0.01094   0.01850
 Alpha virt. eigenvalues --    0.02718   0.03741   0.03795   0.05191   0.07292

 Mulliken charges:
               1
     1  C   -0.130967
     2  C   -0.137612
     3  C   -0.165548
     4  C    0.070256
     5  C    0.075355
     6  C   -0.193829
     7  C   -0.127922
     8  C   -0.138025
     9  C   -0.132164
    10  C    0.176146
    11  N   -0.429497
    12  C    0.096459
    13  S    0.164077
    14  C   -0.426299
    15  C   -0.434541
    16  S    0.156667
    17  C    0.099203
    18  N   -0.432785
    19  C    0.137054
    20  C    0.095233
    21  C    0.062682
    22  C   -0.168560
    23  C   -0.141314
    24  C   -0.130158
    25  C   -0.142531
    26  C   -0.171127
    27  C   -0.196157
    28  C   -0.128225
    29  C   -0.196504
    30  C    0.084791
    31  C    0.064175
    32  C   -0.159305
    33  C   -0.139264
    34  C   -0.127006
    35  C   -0.136017
    36  C   -0.167722
    37  C   -0.157342
    38  C   -0.142305
    39  H    0.129178
    40  H    0.127971
    41  H    0.132135
    42  H    0.135201
    43  H    0.127352
    44  H    0.130402
    45  H    0.136941
    46  H    0.200037
    47  H    0.190400
    48  H    0.189981
    49  H    0.214816
    50  H    0.131654
    51  H    0.125770
    52  H    0.126206
    53  H    0.141219
    54  H    0.157503
    55  H    0.134994
    56  H    0.128045
    57  H    0.135901
    58  H    0.164739
    59  H    0.131681
    60  H    0.125546
    61  H    0.125949
    62  H    0.129906
    63  H    0.162793
    64  H    0.134307
 Sum of Mulliken charges =  -0.00000

 Dipole moment (field-independent basis, Debye):
    X=             -0.1280    Y=             -3.5402    Z=             -0.1384  Tot=              3.5453
 Quadrupole moment (field-independent basis, Debye-Ang):
   XX=           -219.3452   YY=           -216.7512   ZZ=           -218.0576
   XY=              1.4651   XZ=              0.1896   YZ=             -0.2507

 Normal termination of Gaussian 16 at Sat Nov  5 09:48:48 2022.
