 Gaussian 16, Revision B.01,
 Gaussian 16:  ES64L-G16RevB.01 20-Dec-2017

 -----------------------------
 #p b3lyp/6-31g(d) opt SCF=XQC
 -----------------------------

 ------------------------------
 Gaussian input prepared by ASE
 ------------------------------
 Symbolic Z-matrix:
 Charge =  0 Multiplicity = 1

 SCF Done:  E(RB3LYP) =  -2217.12227078     A.U. after   16 cycles
 SCF Done:  E(RB3LYP) =  -2217.13115184     A.U. after   16 cycles
 SCF Done:  E(RB3LYP) =  -2217.13496614     A.U. after   15 cycles
 SCF Done:  E(RB3LYP) =  -2217.13749832     A.U. after   15 cycles
 SCF Done:  E(RB3LYP) =  -2217.13912026     A.U. after   14 cycles
 SCF Done:  E(RB3LYP) =  -2217.14023937     A.U. after   13 cycles
 SCF Done:  E(RB3LYP) =  -2217.14070637     A.U. after   13 cycles
 SCF Done:  E(RB3LYP) =  -2217.14151222     A.U. after   13 cycles
 SCF Done:  E(RB3LYP) =  -2217.14179442     A.U. after   13 cycles
 SCF Done:  E(RB3LYP) =  -2217.14189880     A.U. after   12 cycles
 SCF Done:  E(RB3LYP) =  -2217.14195266     A.U. after   12 cycles
 SCF Done:  E(RB3LYP) =  -2217.14198459     A.U. after   12 cycles
 SCF Done:  E(RB3LYP) =  -2217.14200805     A.U. after   11 cycles
 SCF Done:  E(RB3LYP) =  -2217.14202420     A.U. after   11 cycles
 SCF Done:  E(RB3LYP) =  -2217.14203517     A.U. after   11 cycles
 SCF Done:  E(RB3LYP) =  -2217.14203815     A.U. after   10 cycles
 SCF Done:  E(RB3LYP) =  -2217.14203881     A.U. after    8 cycles
 SCF Done:  E(RB3LYP) =  -2217.14203920     A.U. after    7 cycles
 SCF Done:  E(RB3LYP) =  -2217.14203924     A.U. after    7 cycles
 SCF Done:  E(RB3LYP) =  -2217.14203928     A.U. after    6 cycles
 Optimization completed.
    -- Stationary point found.

                         Standard orientation:
 ---------------------------------------------------------------------
 Center     Atomic      Atomic             Coordinates (Angstroms)
 Number     Number       Type             X           Y           Z
 ---------------------------------------------------------------------
      1          6           0       -3.066109   -2.756515   -2.824711
      2          6           0       -4.131898   -2.694082   -1.925526
      3          6           0       -4.337813   -1.544728   -1.162295
      4          6           0       -3.482389   -0.436079   -1.276795
      5          6           0       -3.764096    0.806218   -0.504703
      6          6           0       -5.077445    1.303591   -0.457582
      7          6           0       -5.403334    2.469344    0.230748
      8          6           0       -4.400961    3.176543    0.895707
      9          6           0       -3.091396    2.706708    0.873645
     10          6           0       -2.764975    1.523547    0.193626
     11          7           0       -1.409406    1.131376    0.151446
     12          6           0       -0.828732    0.497695    1.087577
     13         16           0       -1.763575   -0.151229    2.490619
     14          6           0       -0.563514   -0.260328    3.877836
     15          6           0        0.756720   -0.905551    3.506220
     16         16           0        1.742721    0.115658    2.342038
     17          6           0        0.646508    0.195321    0.907027
     18          7           0        1.082088    0.117171   -0.280822
     19          6           0        2.427854   -0.138771   -0.620255
     20          6           0        2.899167   -1.473637   -0.662583
     21          6           0        2.057841   -2.635442   -0.256711
     22          6           0        2.579742   -3.599588    0.622814
     23          6           0        1.828287   -4.715639    0.993270
     24          6           0        0.537875   -4.890345    0.490315
     25          6           0        0.006622   -3.940150   -0.384676
     26          6           0        0.757720   -2.825048   -0.753919
     27          6           0        4.220876   -1.700983   -1.070751
     28          6           0        5.058670   -0.650691   -1.433179
     29          6           0        4.580397    0.654602   -1.387428
     30          6           0        3.266392    0.941123   -0.986644
     31          6           0        2.820990    2.363581   -0.930740
     32          6           0        1.580854    2.781741   -1.443530
     33          6           0        1.218302    4.127757   -1.420485
     34          6           0        2.080991    5.085100   -0.882960
     35          6           0        3.312455    4.683717   -0.363937
     36          6           0        3.676934    3.337841   -0.388170
     37          6           0       -2.406082   -0.516302   -2.177115
     38          6           0       -2.205242   -1.662344   -2.945914
     39          1           0       -2.908226   -3.646979   -3.427601
     40          1           0       -4.804907   -3.540668   -1.815988
     41          1           0       -5.162821   -1.508000   -0.455997
     42          1           0       -5.850122    0.767111   -1.001257
     43          1           0       -6.428124    2.829673    0.234103
     44          1           0       -4.634234    4.093564    1.430086
     45          1           0       -2.299314    3.246361    1.383864
     46          1           0       -0.404639    0.737018    4.297382
     47          1           0       -1.087758   -0.867330    4.625203
     48          1           0        1.394832   -0.996865    4.392501
     49          1           0        0.617072   -1.903549    3.081374
     50          1           0        3.577435   -3.460372    1.030430
     51          1           0        2.251822   -5.446324    1.677943
     52          1           0       -0.049522   -5.758097    0.779094
     53          1           0       -0.996575   -4.060363   -0.784477
     54          1           0        0.329073   -2.094273   -1.431283
     55          1           0        4.579438   -2.725216   -1.119928
     56          1           0        6.073950   -0.849844   -1.764213
     57          1           0        5.221539    1.477795   -1.688793
     58          1           0        0.896446    2.048953   -1.855177
     59          1           0        0.255815    4.427815   -1.826499
     60          1           0        1.793650    6.133167   -0.864338
     61          1           0        3.989542    5.416743    0.067258
     62          1           0        4.629557    3.031616    0.035559
     63          1           0       -1.729083    0.325199   -2.275839
     64          1           0       -1.377205   -1.697054   -3.649365
 ---------------------------------------------------------------------

 The electronic state is 1-A.
 Alpha  occ. eigenvalues --  -88.89562 -88.89350 -14.34843 -14.34602 -10.28137
 Alpha  occ. eigenvalues --  -10.28025 -10.24067 -10.23977 -10.22850 -10.22639
 Alpha  occ. eigenvalues --  -10.19722 -10.19671 -10.19664 -10.19466 -10.19441
 Alpha  occ. eigenvalues --  -10.19175 -10.18778 -10.18652 -10.18633 -10.18633
 Alpha  occ. eigenvalues --  -10.18630 -10.18582 -10.18577 -10.18541 -10.18500
 Alpha  occ. eigenvalues --  -10.18489 -10.18465 -10.18463 -10.18342 -10.18293
 Alpha  occ. eigenvalues --  -10.18223 -10.18222 -10.18172 -10.18156 -10.18128
 Alpha  occ. eigenvalues --  -10.18041 -10.17991 -10.17732  -7.95709  -7.95506
 Alpha  occ. eigenvalues --   -5.92218  -5.92007  -5.91808  -5.91633  -5.91208
 Alpha  occ. eigenvalues --   -5.90986  -0.96810  -0.93881  -0.86442  -0.85632
 Alpha  occ. eigenvalues --   -0.84924  -0.84372  -0.83666  -0.83348  -0.77873
 Alpha  occ. eigenvalues --   -0.77242  -0.77052  -0.76602  -0.74798  -0.73815
 Alpha  occ. eigenvalues --   -0.73735  -0.73438  -0.72675  -0.71588  -0.70822
 Alpha  occ. eigenvalues --   -0.70733  -0.65329  -0.63381  -0.62340  -0.61847
 Alpha  occ. eigenvalues --   -0.61231  -0.60204  -0.59584  -0.59405  -0.58861
 Alpha  occ. eigenvalues --   -0.57739  -0.56576  -0.56318  -0.53817  -0.52592
 Alpha  occ. eigenvalues --   -0.50977  -0.50399  -0.50169  -0.49589  -0.47857
 Alpha  occ. eigenvalues --   -0.47557  -0.47221  -0.47088  -0.46487  -0.45977
 Alpha  occ. eigenvalues --   -0.44959  -0.44640  -0.44542  -0.43988  -0.43684
 Alpha  occ. eigenvalues --   -0.43074  -0.42843  -0.42226  -0.41681  -0.41563
 Alpha  occ. eigenvalues --   -0.41485  -0.41294  -0.41230  -0.41069  -0.40864
 Alpha  occ. eigenvalues --   -0.38612  -0.38013  -0.37626  -0.36708  -0.36256
 Alpha  occ. eigenvalues --   -0.36173  -0.35768  -0.35531  -0.35372  -0.35300
 Alpha  occ. eigenvalues --   -0.34722  -0.34173  -0.33955  -0.33557  -0.33445
 Alpha  occ. eigenvalues --   -0.33274  -0.32929  -0.32659  -0.30493  -0.30246
 Alpha  occ. eigenvalues --   -0.28473  -0.26947  -0.26615  -0.25386  -0.24826
 Alpha  occ. eigenvalues --   -0.24703  -0.24293  -0.24170  -0.23843  -0.23028
 Alpha  occ. eigenvalues --   -0.21742  -0.21084  -0.20729
 Alpha virt. eigenvalues --   -0.06235  -0.02397  -0.02071  -0.01460  -0.00809
 Alpha virt. eigenvalues --    0.00140   0.00491   0.00686   0.01094   0.01850
 Alpha virt. eigenvalues --    0.02718   0.03741   0.03795   0.05191   0.07292

 Mulliken charges:
               1
     1  C   -0.130957
     2  C   -0.137611
     3  C   -0.165572
     4  C    0.070306
     5  C    0.075391
     6  C   -0.193842
     7  C   -0.127918
     8  C   -0.138027
     9  C   -0.132155
    10  C    0.176107
    11  N   -0.429450
    12  C    0.096406
    13  S    0.164077
    14  C   -0.426298
    15  C   -0.434534
    16  S    0.156656
    17  C    0.099219
    18  N   -0.432798
    19  C    0.137098
    20  C    0.095212
    21  C    0.062668
    22  C   -0.168562
    23  C   -0.141312
    24  C   -0.130154
    25  C   -0.142540
    26  C   -0.171113
    27  C   -0.196147
    28  C   -0.128227
    29  C   -0.196511
    30  C    0.084771
    31  C    0.064225
    32  C   -0.159329
    33  C   -0.139261
    34  C   -0.126999
    35  C   -0.136026
    36  C   -0.167735
    37  C   -0.157376
    38  C   -0.142302
    39  H    0.129177
    40  H    0.127972
    41  H    0.132135
    42  H    0.135201
    43  H    0.127351
    44  H    0.130402
    45  H    0.136941
    46  H    0.200038
    47  H    0.190400
    48  H    0.189982
    49  H    0.214814
    50  H    0.131652
    51  H    0.125770
    52  H    0.126206
    53  H    0.141220
    54  H    0.157500
    55  H    0.134994
    56  H    0.128045
    57  H    0.135901
    58  H    0.164741
    59  H    0.131680
    60  H    0.125545
    61  H    0.125950
    62  H    0.129907
    63  H    0.162790
    64  H    0.134308
 Sum of Mulliken charges =  -0.00000

 Dipole moment (field-independent basis, Debye):
    X=             -0.1076    Y=             -1.0922    Z=              3.3712  Tot=              3.5453
 Quadrupole moment (field-independent basis, Debye-Ang):
   XX=           -219.4968   YY=           -217.5797   ZZ=           -217.8802
   XY=             -0.1199   XZ=              1.2069   YZ=             -0.7730

 Normal termination of Gaussian 16 at Fri Nov  4 22:14:16 2022.
