 Gaussian 16, Revision B.01,
 Gaussian 16:  ES64L-G16RevB.01 20-Dec-2017

 -------------------------------------------------------------------
 #p b3lyp/6-31g(d) 6D 10F nosymm GFInput td=(50-50,nstate=2) SCF=XQC
 -------------------------------------------------------------------

 ------------------------------
 Gaussian input prepared by ASE
 ------------------------------
 Symbolic Z-matrix:
 Charge =  0 Multiplicity = 1

                          Input orientation:
 ---------------------------------------------------------------------
 Center     Atomic      Atomic             Coordinates (Angstroms)
 Number     Number       Type             X           Y           Z
 ---------------------------------------------------------------------
      1          6           0       -2.671897   -2.189937   -1.129994
      2          6           0       -4.027430   -1.453146   -1.247127
      3          6           0       -4.212965   -0.953023   -2.699532
      4          6           0       -5.147793   -2.467757   -0.947549
      5          6           0       -4.045479   -0.250341   -0.280835
      6          6           0       -4.997682   -0.134291    0.761001
      7          6           0       -5.023201    0.943836    1.640003
      8          6           0       -4.063869    1.942711    1.470801
      9          7           0       -3.833848    3.113079    2.169862
     10          6           0       -2.757657    3.771513    1.608714
     11          6           0       -2.264220    3.051536    0.545618
     12          6           0       -1.118018    3.434116   -0.343471
     13          6           0        0.191194    2.631164   -0.213734
     14          8           0        1.026195    2.651687   -1.108286
     15          7           0        0.336887    1.962172    0.975540
     16          6           0        1.414642    1.171739    1.421485
     17          6           0        1.298684    0.566758    2.682376
     18          6           0        2.327962   -0.221584    3.189192
     19          6           0        3.471878   -0.403559    2.425442
     20          9           0        4.476789   -1.160877    2.921486
     21          6           0        3.622617    0.181192    1.167980
     22          6           0        4.875576   -0.047042    0.369684
     23          8           0        4.785622   -1.363711   -0.224239
     24          6           0        5.842531   -1.783883   -0.943602
     25          6           0        5.763819   -3.078484   -1.507703
     26          7           0        6.754418   -3.574830   -2.233248
     27          6           0        7.835084   -2.788588   -2.405269
     28          6           0        7.903725   -1.520052   -1.847683
     29          7           0        6.904165   -1.005281   -1.110099
     30          6           0        2.582589    0.970328    0.669267
     31          6           0       -3.091091    1.867907    0.440391
     32          6           0       -3.094710    0.763751   -0.425258
     33          1           0       -2.640220   -3.045036   -1.816477
     34          1           0       -2.516956   -2.565684   -0.112060
     35          1           0       -1.829124   -1.535453   -1.375241
     36          1           0       -4.197799   -1.797284   -3.399842
     37          1           0       -5.170413   -0.432128   -2.815282
     38          1           0       -3.418472   -0.260768   -2.996945
     39          1           0       -6.143164   -2.018753   -1.042916
     40          1           0       -5.057576   -2.892036    0.059044
     41          1           0       -5.091726   -3.298240   -1.660259
     42          1           0       -5.743826   -0.909172    0.891919
     43          1           0       -5.769435    0.999050    2.428468
     44          1           0       -4.381766    3.449930    2.945913
     45          1           0       -2.429924    4.724175    2.003711
     46          1           0       -1.395006    3.362069   -1.401323
     47          1           0       -0.846970    4.485082   -0.177225
     48          1           0       -0.459865    2.019361    1.598879
     49          1           0        0.397305    0.713991    3.272925
     50          1           0        2.252345   -0.692982    4.163314
     51          1           0        5.770035   -0.003841    0.997291
     52          1           0        4.979831    0.699932   -0.422424
     53          1           0        4.877776   -3.688762   -1.349895
     54          1           0        8.651116   -3.190705   -3.000003
     55          1           0        8.778423   -0.888336   -1.989153
     56          1           0        2.667912    1.434255   -0.304223
     57          1           0       -2.347017    0.704230   -1.211581
 ---------------------------------------------------------------------

 SCF Done:  E(RB3LYP) =  -1437.02851331     A.U. after   15 cycles

 Excitation energies and oscillator strengths:

 Excited state symmetry could not be determined.
 Excited State   1:      Triplet-?Sym    3.1977 eV  387.73 nm  f=0.0000  <S**2>=2.000
     107 ->122        -0.10588
     109 ->116         0.12356
     112 ->120        -0.16606
     114 ->116         0.62095
     114 ->117        -0.18991
 This state for optimization and/or second-order correction.
 Total Energy, E(TD-HF/TD-DFT) =  -1436.91099870
 Copying the excited state density for this state as the 1-particle RhoCI density.

 Excited state symmetry could not be determined.
 Excited State   2:      Triplet-?Sym    3.5383 eV  350.40 nm  f=0.0000  <S**2>=2.000
     104 ->115         0.13233
     111 ->115         0.67164
     111 ->119         0.14420

 Excited state symmetry could not be determined.
 Excited State   3:      Singlet-?Sym    4.2865 eV  289.24 nm  f=0.0036  <S**2>=0.000
     108 ->115        -0.13640
     110 ->115         0.62503
     113 ->115        -0.29556

 Excited state symmetry could not be determined.
 Excited State   4:      Singlet-?Sym    4.4249 eV  280.20 nm  f=0.0000  <S**2>=0.000
     114 ->115         0.70487

 Alpha  occ. eigenvalues --  -24.70315 -19.18349 -19.11733 -14.39119 -14.37591
 Alpha  occ. eigenvalues --  -14.34278 -14.34024 -10.29359 -10.28261 -10.26832
 Alpha  occ. eigenvalues --  -10.24378 -10.24049 -10.23332 -10.22862 -10.22566
 Alpha  occ. eigenvalues --  -10.22427 -10.21716 -10.20464 -10.20437 -10.20304
 Alpha  occ. eigenvalues --  -10.20132 -10.20034 -10.19556 -10.19472 -10.19255
 Alpha  occ. eigenvalues --  -10.19108 -10.18978 -10.18684 -10.18671 -10.17286
 Alpha  occ. eigenvalues --  -10.17101 -10.17017  -1.21357  -1.07792  -1.03696
 Alpha  occ. eigenvalues --   -0.98921  -0.96861  -0.94292  -0.89988  -0.86121
 Alpha  occ. eigenvalues --   -0.85209  -0.81446  -0.80456  -0.79131  -0.75880
 Alpha  occ. eigenvalues --   -0.75816  -0.73641  -0.73053  -0.71215  -0.70369
 Alpha  occ. eigenvalues --   -0.68180  -0.67980  -0.65794  -0.64021  -0.63327
 Alpha  occ. eigenvalues --   -0.63071  -0.60858  -0.60263  -0.58590  -0.57118
 Alpha  occ. eigenvalues --   -0.54879  -0.54185  -0.53884  -0.53665  -0.53314
 Alpha  occ. eigenvalues --   -0.51851  -0.49973  -0.49518  -0.49097  -0.47639
 Alpha  occ. eigenvalues --   -0.46952  -0.46191  -0.45749  -0.45578  -0.44847
 Alpha  occ. eigenvalues --   -0.44722  -0.44272  -0.43796  -0.43494  -0.43129
 Alpha  occ. eigenvalues --   -0.42912  -0.42141  -0.41930  -0.41136  -0.40888
 Alpha  occ. eigenvalues --   -0.40535  -0.40105  -0.39642  -0.39116  -0.38925
 Alpha  occ. eigenvalues --   -0.38862  -0.38652  -0.37244  -0.36254  -0.36108
 Alpha  occ. eigenvalues --   -0.35687  -0.34346  -0.34080  -0.34001  -0.33838
 Alpha  occ. eigenvalues --   -0.32200  -0.32061  -0.31359  -0.31270  -0.30355
 Alpha  occ. eigenvalues --   -0.29909  -0.28551  -0.26267  -0.25184  -0.24498
 Alpha  occ. eigenvalues --   -0.23582  -0.22567  -0.21648  -0.20932
 Alpha virt. eigenvalues --   -0.03703  -0.01941  -0.01686  -0.01051  -0.00184
 Alpha virt. eigenvalues --    0.02046   0.04424   0.05230   0.06747   0.08115
 Alpha virt. eigenvalues --    0.08394   0.10403   0.11219   0.11702   0.12211

 Mulliken charges:
               1
     1  C   -0.438102
     2  C    0.020536
     3  C   -0.437650
     4  C   -0.458428
     5  C    0.170637
     6  C   -0.214611
     7  C   -0.166392
     8  C    0.317277
     9  N   -0.691160
    10  C   -0.001714
    11  C    0.020356
    12  C   -0.452575
    13  C    0.612382
    14  O   -0.507472
    15  N   -0.726994
    16  C    0.365309
    17  C   -0.194680
    18  C   -0.200047
    19  C    0.343656
    20  F   -0.294031
    21  C    0.061733
    22  C   -0.111477
    23  O   -0.497763
    24  C    0.553184
    25  C   -0.000927
    26  N   -0.375233
    27  C    0.010578
    28  C    0.039928
    29  N   -0.477331
    30  C   -0.220066
    31  C    0.095803
    32  C   -0.278821
    33  H    0.138039
    34  H    0.144711
    35  H    0.147753
    36  H    0.137881
    37  H    0.144780
    38  H    0.144381
    39  H    0.143657
    40  H    0.143619
    41  H    0.142023
    42  H    0.125788
    43  H    0.123620
    44  H    0.330292
    45  H    0.155405
    46  H    0.185964
    47  H    0.177669
    48  H    0.343460
    49  H    0.135006
    50  H    0.148167
    51  H    0.171786
    52  H    0.167843
    53  H    0.159179
    54  H    0.145508
    55  H    0.147926
    56  H    0.195540
    57  H    0.134101
 Sum of Mulliken charges =  -0.00000

 Dipole moment (field-independent basis, Debye):
    X=             -4.9590    Y=              3.1965    Z=              4.1186  Tot=              7.1953
 Quadrupole moment (field-independent basis, Debye-Ang):
   XX=           -175.3256   YY=           -180.9667   ZZ=           -175.1035
   XY=             -0.7797   XZ=            -12.7008   YZ=             12.3180

 Normal termination of Gaussian 16 at Sat Nov  5 09:38:26 2022.
