 Gaussian 16, Revision B.01,
 Gaussian 16:  ES64L-G16RevB.01 20-Dec-2017

 -----------------------------
 #p b3lyp/6-31g(d) opt SCF=XQC
 -----------------------------

 ------------------------------
 Gaussian input prepared by ASE
 ------------------------------
 Symbolic Z-matrix:
 Charge =  0 Multiplicity = 1

 SCF Done:  E(RB3LYP) =  -1437.01970297     A.U. after   15 cycles
 SCF Done:  E(RB3LYP) =  -1437.02581701     A.U. after   13 cycles
 SCF Done:  E(RB3LYP) =  -1437.02722772     A.U. after   12 cycles
 SCF Done:  E(RB3LYP) =  -1437.02773241     A.U. after   12 cycles
 SCF Done:  E(RB3LYP) =  -1437.02789720     A.U. after   12 cycles
 SCF Done:  E(RB3LYP) =  -1437.02804993     A.U. after   12 cycles
 SCF Done:  E(RB3LYP) =  -1437.02816751     A.U. after   12 cycles
 SCF Done:  E(RB3LYP) =  -1437.02826741     A.U. after   13 cycles
 SCF Done:  E(RB3LYP) =  -1437.02834998     A.U. after   11 cycles
 SCF Done:  E(RB3LYP) =  -1437.02840375     A.U. after   11 cycles
 SCF Done:  E(RB3LYP) =  -1436.98768262     A.U. after   13 cycles
 SCF Done:  E(RB3LYP) =  -1437.02850201     A.U. after   11 cycles
 SCF Done:  E(RB3LYP) =  -1437.02849950     A.U. after   12 cycles
 SCF Done:  E(RB3LYP) =  -1437.02851385     A.U. after   12 cycles
 SCF Done:  E(RB3LYP) =  -1437.02851593     A.U. after    9 cycles
 SCF Done:  E(RB3LYP) =  -1437.02851747     A.U. after   10 cycles
 SCF Done:  E(RB3LYP) =  -1437.02851793     A.U. after    9 cycles
 SCF Done:  E(RB3LYP) =  -1437.02851797     A.U. after    7 cycles
 SCF Done:  E(RB3LYP) =  -1437.02851799     A.U. after    7 cycles
 SCF Done:  E(RB3LYP) =  -1437.02851800     A.U. after    6 cycles
 Optimization completed.
    -- Stationary point found.

                         Standard orientation:
 ---------------------------------------------------------------------
 Center     Atomic      Atomic             Coordinates (Angstroms)
 Number     Number       Type             X           Y           Z
 ---------------------------------------------------------------------
      1          6           0        2.525912   -3.304822   -0.623294
      2          6           0        4.003279   -3.140257   -0.193927
      3          6           0        4.179339   -3.677473    1.246360
      4          6           0        4.870082   -4.002660   -1.131642
      5          6           0        4.389779   -1.647139   -0.238688
      6          6           0        5.426765   -1.161309   -1.071881
      7          6           0        5.783326    0.182531   -1.122968
      8          6           0        5.079571    1.072602   -0.311058
      9          7           0        5.195741    2.439993   -0.143409
     10          6           0        4.264467    2.863110    0.784119
     11          6           0        3.525228    1.794007    1.234189
     12          6           0        2.432596    1.826593    2.261670
     13          6           0        0.985300    1.608059    1.778781
     14          8           0        0.106773    1.286644    2.567929
     15          7           0        0.785187    1.848783    0.442684
     16          6           0       -0.408463    1.774260   -0.302201
     17          6           0       -0.334117    2.043843   -1.677371
     18          6           0       -1.475223    1.995854   -2.473194
     19          6           0       -2.689884    1.673203   -1.885431
     20          9           0       -3.800919    1.636505   -2.655944
     21          6           0       -2.802418    1.398643   -0.522412
     22          6           0       -4.136535    1.046220    0.073575
     23          8           0       -4.414251   -0.335674   -0.254602
     24          6           0       -5.597883   -0.834027    0.147568
     25          6           0       -5.878680   -2.178466   -0.190121
     26          7           0       -7.016884   -2.754527    0.165838
     27          6           0       -7.889040   -1.998928    0.861555
     28          6           0       -7.605278   -0.680688    1.187927
     29          7           0       -6.452986   -0.085507    0.832789
     30          6           0       -1.650038    1.449521    0.266600
     31          6           0        4.033500    0.630018    0.539526
     32          6           0        3.700038   -0.732633    0.562022
     33          1           0        2.232950   -4.361488   -0.590356
     34          1           0        2.372399   -2.941532   -1.645956
     35          1           0        1.846219   -2.750895    0.032409
     36          1           0        3.903769   -4.738175    1.295501
     37          1           0        5.220163   -3.580728    1.576150
     38          1           0        3.550960   -3.137770    1.962426
     39          1           0        5.932144   -3.957550   -0.864340
     40          1           0        4.766629   -3.698743   -2.179646
     41          1           0        4.557188   -5.050479   -1.061114
     42          1           0        5.974553   -1.852458   -1.701607
     43          1           0        6.585100    0.519201   -1.775199
     44          1           0        5.871889    3.031478   -0.600472
     45          1           0        4.208391    3.905293    1.069963
     46          1           0        2.593840    1.068794    3.036722
     47          1           0        2.435481    2.792437    2.783945
     48          1           0        1.622331    2.075484   -0.081180
     49          1           0        0.622972    2.294233   -2.129250
     50          1           0       -1.432256    2.204432   -3.536912
     51          1           0       -4.938388    1.671893   -0.328143
     52          1           0       -4.125985    1.163938    1.160914
     53          1           0       -5.153968   -2.761721   -0.753169
     54          1           0       -8.824801   -2.466547    1.156511
     55          1           0       -8.312512   -0.074006    1.750006
     56          1           0       -1.704125    1.237969    1.326086
     57          1           0        2.896006   -1.070945    1.210073
 ---------------------------------------------------------------------

 The electronic state is 1-A.
 Alpha  occ. eigenvalues --  -24.70315 -19.18349 -19.11733 -14.39119 -14.37591
 Alpha  occ. eigenvalues --  -14.34278 -14.34024 -10.29359 -10.28261 -10.26832
 Alpha  occ. eigenvalues --  -10.24378 -10.24049 -10.23332 -10.22862 -10.22566
 Alpha  occ. eigenvalues --  -10.22427 -10.21716 -10.20464 -10.20437 -10.20304
 Alpha  occ. eigenvalues --  -10.20132 -10.20034 -10.19556 -10.19472 -10.19255
 Alpha  occ. eigenvalues --  -10.19108 -10.18978 -10.18684 -10.18671 -10.17286
 Alpha  occ. eigenvalues --  -10.17101 -10.17017  -1.21357  -1.07792  -1.03696
 Alpha  occ. eigenvalues --   -0.98921  -0.96861  -0.94292  -0.89988  -0.86121
 Alpha  occ. eigenvalues --   -0.85209  -0.81446  -0.80456  -0.79131  -0.75880
 Alpha  occ. eigenvalues --   -0.75816  -0.73641  -0.73053  -0.71215  -0.70369
 Alpha  occ. eigenvalues --   -0.68180  -0.67980  -0.65794  -0.64021  -0.63327
 Alpha  occ. eigenvalues --   -0.63071  -0.60858  -0.60263  -0.58590  -0.57118
 Alpha  occ. eigenvalues --   -0.54879  -0.54185  -0.53884  -0.53665  -0.53314
 Alpha  occ. eigenvalues --   -0.51851  -0.49973  -0.49518  -0.49097  -0.47639
 Alpha  occ. eigenvalues --   -0.46952  -0.46191  -0.45749  -0.45578  -0.44848
 Alpha  occ. eigenvalues --   -0.44722  -0.44272  -0.43796  -0.43494  -0.43129
 Alpha  occ. eigenvalues --   -0.42912  -0.42141  -0.41930  -0.41136  -0.40888
 Alpha  occ. eigenvalues --   -0.40535  -0.40105  -0.39642  -0.39116  -0.38925
 Alpha  occ. eigenvalues --   -0.38862  -0.38652  -0.37244  -0.36254  -0.36108
 Alpha  occ. eigenvalues --   -0.35687  -0.34346  -0.34080  -0.34001  -0.33838
 Alpha  occ. eigenvalues --   -0.32200  -0.32061  -0.31359  -0.31270  -0.30355
 Alpha  occ. eigenvalues --   -0.29909  -0.28551  -0.26267  -0.25184  -0.24498
 Alpha  occ. eigenvalues --   -0.23582  -0.22568  -0.21648  -0.20932
 Alpha virt. eigenvalues --   -0.03703  -0.01941  -0.01686  -0.01051  -0.00184
 Alpha virt. eigenvalues --    0.02046   0.04424   0.05230   0.06747   0.08115
 Alpha virt. eigenvalues --    0.08394   0.10403   0.11219   0.11702   0.12211

 Mulliken charges:
               1
     1  C   -0.438091
     2  C    0.020486
     3  C   -0.437631
     4  C   -0.458414
     5  C    0.170643
     6  C   -0.214595
     7  C   -0.166410
     8  C    0.317278
     9  N   -0.691155
    10  C   -0.001720
    11  C    0.020357
    12  C   -0.452577
    13  C    0.612391
    14  O   -0.507480
    15  N   -0.727002
    16  C    0.365322
    17  C   -0.194687
    18  C   -0.200045
    19  C    0.343661
    20  F   -0.294036
    21  C    0.061727
    22  C   -0.111478
    23  O   -0.497770
    24  C    0.553196
    25  C   -0.000925
    26  N   -0.375234
    27  C    0.010573
    28  C    0.039935
    29  N   -0.477339
    30  C   -0.220063
    31  C    0.095815
    32  C   -0.278828
    33  H    0.138040
    34  H    0.144712
    35  H    0.147753
    36  H    0.137880
    37  H    0.144779
    38  H    0.144380
    39  H    0.143655
    40  H    0.143617
    41  H    0.142023
    42  H    0.125785
    43  H    0.123620
    44  H    0.330292
    45  H    0.155406
    46  H    0.185966
    47  H    0.177670
    48  H    0.343461
    49  H    0.135005
    50  H    0.148167
    51  H    0.171787
    52  H    0.167843
    53  H    0.159179
    54  H    0.145508
    55  H    0.147925
    56  H    0.195543
    57  H    0.134100
 Sum of Mulliken charges =  -0.00000

 Dipole moment (field-independent basis, Debye):
    X=              5.9091    Y=              3.7186    Z=             -1.7398  Tot=              7.1953
 Quadrupole moment (field-independent basis, Debye-Ang):
   XX=           -166.0923   YY=           -173.5283   ZZ=           -187.5252
   XY=              9.4368   XZ=            -12.8606   YZ=             -3.4428

 Normal termination of Gaussian 16 at Fri Nov  4 08:51:25 2022.
