 Gaussian 16, Revision B.01,
 Gaussian 16:  ES64L-G16RevB.01 20-Dec-2017

 -------------------------------------------------------------------
 #p b3lyp/6-31g(d) 6D 10F nosymm GFInput td=(50-50,nstate=2) SCF=XQC
 -------------------------------------------------------------------

 ------------------------------
 Gaussian input prepared by ASE
 ------------------------------
 Symbolic Z-matrix:
 Charge =  0 Multiplicity = 1

                          Input orientation:
 ---------------------------------------------------------------------
 Center     Atomic      Atomic             Coordinates (Angstroms)
 Number     Number       Type             X           Y           Z
 ---------------------------------------------------------------------
      1          6           0       -3.380465   -1.895816   -0.607089
      2          6           0       -2.299569   -1.628976    0.449210
      3          6           0       -2.330932   -2.649468    1.597338
      4          7           0       -0.950845   -1.531872   -0.144403
      5          6           0       -0.299310   -2.543315   -0.843585
      6          6           0       -0.868582   -3.804550   -1.131276
      7          7           0       -1.318459   -4.852423   -1.379134
      8          6           0        0.986542   -2.115512   -1.133567
      9          6           0        1.163368   -0.831176   -0.571313
     10          6           0        2.436978   -0.083760   -0.578022
     11          6           0        2.869650    0.649274    0.541394
     12          6           0        4.100820    1.302339    0.533160
     13          6           0        4.931297    1.234433   -0.588433
     14          6           0        4.516078    0.506868   -1.704283
     15          6           0        3.281992   -0.143192   -1.698915
     16          6           0       -0.056265   -0.480445    0.029868
     17          7           0       -0.366552    0.700005    0.720886
     18          6           0       -0.855300    1.939070    0.032629
     19          6           0       -2.229873    1.738590   -0.636971
     20          6           0       -0.964123    3.003954    1.135120
     21          6           0        0.161207    2.390642   -1.024646
     22          1           0       -3.331525   -1.158438   -1.413774
     23          1           0       -4.367592   -1.824185   -0.137282
     24          1           0       -3.287653   -2.893732   -1.042472
     25          1           0       -2.486431   -0.638151    0.868802
     26          1           0       -3.308333   -2.619149    2.091529
     27          1           0       -1.561043   -2.424361    2.343177
     28          1           0       -2.169108   -3.667620    1.231790
     29          1           0        1.732968   -2.704702   -1.647539
     30          1           0        2.229120    0.704013    1.415090
     31          1           0        4.417772    1.860069    1.410975
     32          1           0        5.891602    1.743123   -0.591437
     33          1           0        5.150642    0.448224   -2.584916
     34          1           0        2.960317   -0.694215   -2.578867
     35          1           0       -0.908210    0.530232    1.562823
     36          1           0       -3.000163    1.471894    0.096964
     37          1           0       -2.554817    2.659600   -1.134989
     38          1           0       -2.184241    0.949488   -1.395012
     39          1           0        0.007380    3.165797    1.612627
     40          1           0       -1.310988    3.955388    0.718516
     41          1           0       -1.681855    2.702411    1.910003
     42          1           0        1.139802    2.578607   -0.576893
     43          1           0        0.285005    1.637288   -1.808628
     44          1           0       -0.190308    3.313752   -1.498834
 ---------------------------------------------------------------------

 SCF Done:  E(RB3LYP) =  -864.013426025     A.U. after   16 cycles

 Excitation energies and oscillator strengths:

 Excited state symmetry could not be determined.
 Excited State   1:      Triplet-?Sym    3.1084 eV  398.86 nm  f=0.0000  <S**2>=2.000
      73 -> 77         0.12308
      75 -> 77        -0.18031
      75 -> 78         0.16082
      76 -> 77         0.63236
 This state for optimization and/or second-order correction.
 Total Energy, E(TD-HF/TD-DFT) =  -863.899193441
 Copying the excited state density for this state as the 1-particle RhoCI density.

 Excited state symmetry could not be determined.
 Excited State   2:      Triplet-?Sym    3.5006 eV  354.18 nm  f=0.0000  <S**2>=2.000
      72 -> 78         0.15783
      74 -> 79        -0.29116
      75 -> 77         0.19196
      75 -> 78         0.24466
      76 -> 77        -0.10565
      76 -> 78         0.50617

 Excited state symmetry could not be determined.
 Excited State   3:      Singlet-?Sym    4.4850 eV  276.44 nm  f=0.1158  <S**2>=0.000
      73 -> 77        -0.11872
      76 -> 77         0.64990
      76 -> 78         0.19506
      76 -> 79        -0.10404

 Excited state symmetry could not be determined.
 Excited State   4:      Singlet-?Sym    4.5843 eV  270.45 nm  f=0.1785  <S**2>=0.000
      75 -> 77        -0.19771
      76 -> 77        -0.17968
      76 -> 78         0.64402

 Alpha  occ. eigenvalues --  -14.39736 -14.34551 -14.32640 -10.25502 -10.24988
 Alpha  occ. eigenvalues --  -10.23955 -10.23868 -10.22359 -10.19716 -10.19139
 Alpha  occ. eigenvalues --  -10.19100 -10.18942 -10.18908 -10.18641 -10.18610
 Alpha  occ. eigenvalues --  -10.18586 -10.18518 -10.18464 -10.18448 -10.18232
 Alpha  occ. eigenvalues --  -10.17412  -1.00418  -0.92090  -0.89235  -0.85438
 Alpha  occ. eigenvalues --   -0.83347  -0.79870  -0.77431  -0.74520  -0.73889
 Alpha  occ. eigenvalues --   -0.72138  -0.70339  -0.69791  -0.69268  -0.63781
 Alpha  occ. eigenvalues --   -0.62318  -0.60611  -0.59645  -0.56960  -0.55285
 Alpha  occ. eigenvalues --   -0.53373  -0.51798  -0.50009  -0.48541  -0.46468
 Alpha  occ. eigenvalues --   -0.45824  -0.45216  -0.44969  -0.44606  -0.43929
 Alpha  occ. eigenvalues --   -0.43611  -0.41460  -0.41283  -0.40985  -0.40740
 Alpha  occ. eigenvalues --   -0.39877  -0.39420  -0.38924  -0.38788  -0.37743
 Alpha  occ. eigenvalues --   -0.37441  -0.36434  -0.36259  -0.35965  -0.35336
 Alpha  occ. eigenvalues --   -0.34568  -0.34307  -0.33974  -0.33651  -0.33293
 Alpha  occ. eigenvalues --   -0.31857  -0.27224  -0.26072  -0.24535  -0.23129
 Alpha  occ. eigenvalues --   -0.20019
 Alpha virt. eigenvalues --   -0.01985  -0.00948   0.00401   0.02830   0.04992
 Alpha virt. eigenvalues --    0.07337   0.09107   0.09464   0.10092   0.10903
 Alpha virt. eigenvalues --    0.11809   0.12599   0.13105   0.13865   0.14224

 Mulliken charges:
               1
     1  C   -0.466073
     2  C    0.008861
     3  C   -0.451980
     4  N   -0.500301
     5  C    0.329282
     6  C    0.271250
     7  N   -0.532711
     8  C   -0.230670
     9  C    0.013667
    10  C    0.100865
    11  C   -0.164295
    12  C   -0.139228
    13  C   -0.127568
    14  C   -0.135280
    15  C   -0.176311
    16  C    0.440285
    17  N   -0.677247
    18  C    0.208155
    19  C   -0.451908
    20  C   -0.453625
    21  C   -0.447649
    22  H    0.161865
    23  H    0.151491
    24  H    0.188356
    25  H    0.134091
    26  H    0.152623
    27  H    0.152990
    28  H    0.184551
    29  H    0.151864
    30  H    0.138205
    31  H    0.126336
    32  H    0.126710
    33  H    0.128265
    34  H    0.128605
    35  H    0.307856
    36  H    0.135207
    37  H    0.147594
    38  H    0.157902
    39  H    0.160805
    40  H    0.150897
    41  H    0.131270
    42  H    0.169212
    43  H    0.156754
    44  H    0.139031
 Sum of Mulliken charges =  -0.00000

 Dipole moment (field-independent basis, Debye):
    X=             -1.2247    Y=              4.6749    Z=              2.0208  Tot=              5.2381
 Quadrupole moment (field-independent basis, Debye-Ang):
   XX=           -118.3171   YY=           -149.4505   ZZ=           -123.2166
   XY=             -4.7208   XZ=             -6.9139   YZ=             -6.4883

 Normal termination of Gaussian 16 at Sat Nov  5 09:31:27 2022.
