 Gaussian 16, Revision B.01,
 Gaussian 16:  ES64L-G16RevB.01 20-Dec-2017

 -----------------------------
 #p b3lyp/6-31g(d) opt SCF=XQC
 -----------------------------

 ------------------------------
 Gaussian input prepared by ASE
 ------------------------------
 Symbolic Z-matrix:
 Charge =  0 Multiplicity = 1

 SCF Done:  E(RB3LYP) =  -864.005816937     A.U. after   16 cycles
 SCF Done:  E(RB3LYP) =  -864.010106889     A.U. after   14 cycles
 SCF Done:  E(RB3LYP) =  -864.011374863     A.U. after   13 cycles
 SCF Done:  E(RB3LYP) =  -864.013021114     A.U. after   12 cycles
 SCF Done:  E(RB3LYP) =  -864.013102166     A.U. after   12 cycles
 SCF Done:  E(RB3LYP) =  -864.013221565     A.U. after   11 cycles
 SCF Done:  E(RB3LYP) =  -864.013255228     A.U. after   10 cycles
 SCF Done:  E(RB3LYP) =  -864.013276565     A.U. after   11 cycles
 SCF Done:  E(RB3LYP) =  -864.013288980     A.U. after   10 cycles
 SCF Done:  E(RB3LYP) =  -864.013313892     A.U. after   11 cycles
 SCF Done:  E(RB3LYP) =  -864.013389907     A.U. after   12 cycles
 SCF Done:  E(RB3LYP) =  -864.013393219     A.U. after    9 cycles
 SCF Done:  E(RB3LYP) =  -864.013427877     A.U. after   12 cycles
 SCF Done:  E(RB3LYP) =  -864.013421103     A.U. after   11 cycles
 SCF Done:  E(RB3LYP) =  -864.013428971     A.U. after   11 cycles
 SCF Done:  E(RB3LYP) =  -864.013422449     A.U. after   11 cycles
 SCF Done:  E(RB3LYP) =  -864.013430940     A.U. after   11 cycles
 SCF Done:  E(RB3LYP) =  -864.013431013     A.U. after    7 cycles
 SCF Done:  E(RB3LYP) =  -864.013431042     A.U. after    8 cycles
 SCF Done:  E(RB3LYP) =  -864.013431050     A.U. after    7 cycles
 Optimization completed.
    -- Stationary point found.

                         Standard orientation:
 ---------------------------------------------------------------------
 Center     Atomic      Atomic             Coordinates (Angstroms)
 Number     Number       Type             X           Y           Z
 ---------------------------------------------------------------------
      1          6           0       -3.892493    0.427343   -0.688634
      2          6           0       -2.897497    0.397330    0.479437
      3          6           0       -3.529030   -0.122154    1.780162
      4          7           0       -1.667496   -0.348827    0.145955
      5          6           0       -1.606230   -1.694957   -0.201248
      6          6           0       -2.736130   -2.533338   -0.335379
      7          7           0       -3.654782   -3.243683   -0.450922
      8          6           0       -0.273331   -2.055067   -0.320517
      9          6           0        0.519707   -0.929753   -0.001655
     10          6           0        1.993805   -0.943487    0.085549
     11          6           0        2.680749   -0.250655    1.098331
     12          6           0        4.069266   -0.321805    1.194754
     13          6           0        4.803957   -1.090001    0.287902
     14          6           0        4.134485   -1.785984   -0.719219
     15          6           0        2.745245   -1.711679   -0.819549
     16          6           0       -0.365470    0.124791    0.274627
     17          7           0       -0.047851    1.439696    0.645287
     18          6           0        0.230539    2.520619   -0.355691
     19          6           0       -1.001381    2.854621   -1.221037
     20          6           0        0.633937    3.750962    0.471856
     21          6           0        1.392721    2.107129   -1.268596
     22          1           0       -3.415228    0.795874   -1.601468
     23          1           0       -4.719678    1.100910   -0.438950
     24          1           0       -4.313519   -0.560444   -0.891177
     25          1           0       -2.559041    1.421516    0.650320
     26          1           0       -4.371154    0.519007    2.063353
     27          1           0       -2.801490   -0.116317    2.598898
     28          1           0       -3.906295   -1.142023    1.661908
     29          1           0        0.079816   -3.049304   -0.555554
     30          1           0        2.114833    0.346114    1.805599
     31          1           0        4.580004    0.218409    1.988099
     32          1           0        5.886424   -1.145154    0.366537
     33          1           0        4.693693   -2.384895   -1.433514
     34          1           0        2.234159   -2.244587   -1.617180
     35          1           0       -0.646243    1.793458    1.385459
     36          1           0       -1.838349    3.212289   -0.608917
     37          1           0       -0.762726    3.642768   -1.944734
     38          1           0       -1.333471    1.976059   -1.784271
     39          1           0        1.514976    3.532700    1.083539
     40          1           0        0.865221    4.596976   -0.183788
     41          1           0       -0.179215    4.064842    1.140267
     42          1           0        2.295281    1.898957   -0.689363
     43          1           0        1.147275    1.212494   -1.849010
     44          1           0        1.608541    2.916554   -1.974855
 ---------------------------------------------------------------------

 The electronic state is 1-A.
 Alpha  occ. eigenvalues --  -14.39736 -14.34551 -14.32640 -10.25502 -10.24988
 Alpha  occ. eigenvalues --  -10.23955 -10.23868 -10.22359 -10.19716 -10.19139
 Alpha  occ. eigenvalues --  -10.19100 -10.18943 -10.18908 -10.18641 -10.18610
 Alpha  occ. eigenvalues --  -10.18586 -10.18518 -10.18465 -10.18448 -10.18232
 Alpha  occ. eigenvalues --  -10.17412  -1.00418  -0.92090  -0.89235  -0.85438
 Alpha  occ. eigenvalues --   -0.83347  -0.79870  -0.77431  -0.74520  -0.73889
 Alpha  occ. eigenvalues --   -0.72138  -0.70339  -0.69791  -0.69268  -0.63781
 Alpha  occ. eigenvalues --   -0.62318  -0.60611  -0.59645  -0.56960  -0.55285
 Alpha  occ. eigenvalues --   -0.53373  -0.51798  -0.50009  -0.48541  -0.46468
 Alpha  occ. eigenvalues --   -0.45824  -0.45216  -0.44969  -0.44606  -0.43929
 Alpha  occ. eigenvalues --   -0.43611  -0.41460  -0.41283  -0.40985  -0.40741
 Alpha  occ. eigenvalues --   -0.39877  -0.39420  -0.38924  -0.38788  -0.37743
 Alpha  occ. eigenvalues --   -0.37441  -0.36434  -0.36259  -0.35965  -0.35336
 Alpha  occ. eigenvalues --   -0.34568  -0.34307  -0.33974  -0.33651  -0.33293
 Alpha  occ. eigenvalues --   -0.31857  -0.27224  -0.26072  -0.24535  -0.23129
 Alpha  occ. eigenvalues --   -0.20019
 Alpha virt. eigenvalues --   -0.01985  -0.00948   0.00401   0.02830   0.04992
 Alpha virt. eigenvalues --    0.07337   0.09107   0.09464   0.10092   0.10903
 Alpha virt. eigenvalues --    0.11809   0.12599   0.13105   0.13865   0.14224

 Mulliken charges:
               1
     1  C   -0.466077
     2  C    0.008879
     3  C   -0.451998
     4  N   -0.500264
     5  C    0.329252
     6  C    0.271244
     7  N   -0.532706
     8  C   -0.230660
     9  C    0.013706
    10  C    0.100837
    11  C   -0.164298
    12  C   -0.139233
    13  C   -0.127558
    14  C   -0.135278
    15  C   -0.176325
    16  C    0.440246
    17  N   -0.677238
    18  C    0.208155
    19  C   -0.451910
    20  C   -0.453619
    21  C   -0.447636
    22  H    0.161865
    23  H    0.151490
    24  H    0.188356
    25  H    0.134090
    26  H    0.152624
    27  H    0.152993
    28  H    0.184556
    29  H    0.151865
    30  H    0.138208
    31  H    0.126338
    32  H    0.126709
    33  H    0.128266
    34  H    0.128604
    35  H    0.307857
    36  H    0.135205
    37  H    0.147593
    38  H    0.157902
    39  H    0.160803
    40  H    0.150898
    41  H    0.131269
    42  H    0.169211
    43  H    0.156751
    44  H    0.139029
 Sum of Mulliken charges =  -0.00000

 Dipole moment (field-independent basis, Debye):
    X=              1.3036    Y=              5.0129    Z=              0.7805  Tot=              5.2381
 Quadrupole moment (field-independent basis, Debye-Ang):
   XX=           -130.2504   YY=           -132.2568   ZZ=           -123.5161
   XY=            -17.6144   XZ=             -4.9001   YZ=              1.9547

 1\1\GINC-NODE92\FOpt\RB3LYP\6-31G(d)\C18H23N3\WYKGROUP\04-Nov-2022\0\\
 #p b3lyp/6-31g(d) opt SCF=XQC\\Gaussian input prepared by ASE\\0,1\C,-
 3.3804646849,-1.8958163438,-0.6070887396\C,-2.2995688509,-1.6289763699
 ,0.4492097415\C,-2.3309318384,-2.6494679095,1.5973380956\N,-0.95084457
 04,-1.5318723648,-0.144403141\C,-0.2993101515,-2.5433154979,-0.8435845
 739\C,-0.8685819573,-3.8045501007,-1.1312756857\N,-1.3184591788,-4.852
 4230617,-1.379133536\C,0.9865423743,-2.1155116527,-1.1335668666\C,1.16
 33677115,-0.8311755846,-0.5713126835\C,2.4369777511,-0.0837599346,-0.5

 Normal termination of Gaussian 16 at Fri Nov  4 21:34:46 2022.
