 Gaussian 16, Revision B.01,
 Gaussian 16:  ES64L-G16RevB.01 20-Dec-2017

 -------------------------------------------------------------------
 #p b3lyp/6-31g(d) 6D 10F nosymm GFInput td=(50-50,nstate=2) SCF=XQC
 -------------------------------------------------------------------

 ------------------------------
 Gaussian input prepared by ASE
 ------------------------------
 Symbolic Z-matrix:
 Charge =  0 Multiplicity = 1

                          Input orientation:
 ---------------------------------------------------------------------
 Center     Atomic      Atomic             Coordinates (Angstroms)
 Number     Number       Type             X           Y           Z
 ---------------------------------------------------------------------
      1          6           0        7.781553    0.118840    1.452227
      2          6           0        6.312090    0.040502    1.110528
      3          6           0        5.863646   -0.602182   -0.048050
      4          6           0        4.513990   -0.662233   -0.396031
      5          6           0        3.558303   -0.062693    0.436758
      6          7           0        2.171480   -0.060081    0.195009
      7          6           0        1.406876   -0.571037   -0.819789
      8          7           0        1.981635   -1.226240   -1.843292
      9          6           0        1.152381   -1.688757   -2.783253
     10          6           0       -0.227854   -1.520684   -2.739670
     11          6           0       -0.716604   -0.822931   -1.634183
     12          6           0       -2.212637   -0.601310   -1.500367
     13          8           0       -2.990957   -1.061166   -2.327431
     14          7           0       -2.552551    0.135662   -0.403426
     15          6           0       -3.873728    0.419139    0.048765
     16          6           0       -4.221696    0.011312    1.352896
     17          6           0       -3.235421   -0.734609    2.221052
     18          6           0       -5.502955    0.305651    1.825704
     19          6           0       -6.421223    0.981853    1.024626
     20          6           0       -6.054911    1.386849   -0.255731
     21          6           0       -4.776700    1.128454   -0.766738
     22          6           0       -4.393874    1.629341   -2.136080
     23          7           0        0.079547   -0.348127   -0.674740
     24          6           0        3.993099    0.583374    1.606975
     25          6           0        5.342958    0.630417    1.933409
     26          1           0        8.349278   -0.677145    0.959018
     27          1           0        8.218692    1.075320    1.134592
     28          1           0        7.949029    0.031519    2.531794
     29          1           0        6.588338   -1.076386   -0.706543
     30          1           0        4.196509   -1.167365   -1.296830
     31          1           0        1.609920    0.410835    0.892078
     32          1           0        1.624430   -2.218969   -3.608802
     33          1           0       -0.900838   -1.897221   -3.498484
     34          1           0       -1.772852    0.326380    0.218501
     35          1           0       -2.818697   -1.606252    1.703099
     36          1           0       -3.715243   -1.082782    3.140311
     37          1           0       -2.385386   -0.104267    2.519308
     38          1           0       -5.782292   -0.009787    2.827980
     39          1           0       -7.417245    1.198872    1.401045
     40          1           0       -6.764386    1.929897   -0.875184
     41          1           0       -4.339155    0.805171   -2.854607
     42          1           0       -3.405987    2.105009   -2.121970
     43          1           0       -5.121358    2.363802   -2.494891
     44          1           0        3.263340    1.048733    2.267277
     45          1           0        5.647455    1.135290    2.847591
 ---------------------------------------------------------------------

 SCF Done:  E(RB3LYP) =  -1068.45666328     A.U. after   15 cycles

 Excitation energies and oscillator strengths:

 Excited state symmetry could not be determined.
 Excited State   1:      Triplet-?Sym    2.7754 eV  446.72 nm  f=0.0000  <S**2>=2.000
      83 -> 89         0.19531
      88 -> 89         0.67257
 This state for optimization and/or second-order correction.
 Total Energy, E(TD-HF/TD-DFT) =  -1068.35466807
 Copying the excited state density for this state as the 1-particle RhoCI density.

 Excited state symmetry could not be determined.
 Excited State   2:      Singlet-?Sym    3.2275 eV  384.15 nm  f=0.0111  <S**2>=0.000
      88 -> 89         0.70262

 Excited state symmetry could not be determined.
 Excited State   3:      Triplet-?Sym    3.2489 eV  381.62 nm  f=0.0000  <S**2>=2.000
      84 -> 89        -0.11908
      85 -> 92         0.14095
      87 -> 89        -0.35845
      88 -> 90         0.50209
      88 -> 94        -0.12588

 Excited state symmetry could not be determined.
 Excited State   4:      Singlet-?Sym    3.7217 eV  333.14 nm  f=0.0606  <S**2>=0.000
      84 -> 89         0.39587
      87 -> 89         0.58025

 Alpha  occ. eigenvalues --  -19.12108 -14.38114 -14.36748 -14.35087 -14.34294
 Alpha  occ. eigenvalues --  -10.30616 -10.29490 -10.25347 -10.24765 -10.23705
 Alpha  occ. eigenvalues --  -10.22477 -10.20068 -10.19863 -10.19578 -10.19261
 Alpha  occ. eigenvalues --  -10.19210 -10.18939 -10.18890 -10.18567 -10.18540
 Alpha  occ. eigenvalues --  -10.18444 -10.18316 -10.18245 -10.18144 -10.17088
 Alpha  occ. eigenvalues --   -1.04017  -1.01743  -0.94530  -0.93664  -0.90158
 Alpha  occ. eigenvalues --   -0.85165  -0.84709  -0.79777  -0.78128  -0.76058
 Alpha  occ. eigenvalues --   -0.75434  -0.74455  -0.70696  -0.69306  -0.67968
 Alpha  occ. eigenvalues --   -0.67544  -0.65448  -0.62040  -0.61221  -0.58909
 Alpha  occ. eigenvalues --   -0.58497  -0.56309  -0.55467  -0.55038  -0.52264
 Alpha  occ. eigenvalues --   -0.50961  -0.49352  -0.47717  -0.46842  -0.46510
 Alpha  occ. eigenvalues --   -0.45887  -0.45777  -0.44790  -0.43022  -0.42598
 Alpha  occ. eigenvalues --   -0.42405  -0.42056  -0.41877  -0.41781  -0.41316
 Alpha  occ. eigenvalues --   -0.40683  -0.40244  -0.40152  -0.40027  -0.38277
 Alpha  occ. eigenvalues --   -0.38023  -0.37115  -0.35825  -0.34443  -0.34239
 Alpha  occ. eigenvalues --   -0.34124  -0.34098  -0.33105  -0.32401  -0.32019
 Alpha  occ. eigenvalues --   -0.28370  -0.27314  -0.26924  -0.25324  -0.24937
 Alpha  occ. eigenvalues --   -0.23573  -0.22698  -0.20520
 Alpha virt. eigenvalues --   -0.06566  -0.02728  -0.00075   0.00051   0.00635
 Alpha virt. eigenvalues --    0.02149   0.06252   0.07312   0.09367   0.10068
 Alpha virt. eigenvalues --    0.10183   0.11723   0.12741   0.13218   0.14220

 Mulliken charges:
               1
     1  C   -0.530738
     2  C    0.183675
     3  C   -0.198612
     4  C   -0.152378
     5  C    0.358856
     6  N   -0.763937
     7  C    0.701982
     8  N   -0.472451
     9  C    0.068542
    10  C   -0.189279
    11  C    0.289112
    12  C    0.578811
    13  O   -0.515238
    14  N   -0.731574
    15  C    0.185197
    16  C    0.178024
    17  C   -0.538264
    18  C   -0.210558
    19  C   -0.108434
    20  C   -0.209510
    21  C    0.201565
    22  C   -0.540114
    23  N   -0.605401
    24  C   -0.197656
    25  C   -0.183488
    26  H    0.156142
    27  H    0.163809
    28  H    0.155966
    29  H    0.124015
    30  H    0.175876
    31  H    0.337447
    32  H    0.156453
    33  H    0.176440
    34  H    0.354158
    35  H    0.170987
    36  H    0.160812
    37  H    0.151419
    38  H    0.122044
    39  H    0.127531
    40  H    0.124379
    41  H    0.202946
    42  H    0.152283
    43  H    0.145865
    44  H    0.120168
    45  H    0.123128
 Sum of Mulliken charges =  -0.00000

 Dipole moment (field-independent basis, Debye):
    X=              1.7114    Y=              1.0616    Z=              2.1685  Tot=              2.9594
 Quadrupole moment (field-independent basis, Debye-Ang):
   XX=           -140.3681   YY=           -145.6329   ZZ=           -137.3371
   XY=             -5.0479   XZ=             -5.8613   YZ=              1.6538

 Normal termination of Gaussian 16 at Sat Nov  5 09:32:22 2022.
