 Gaussian 16, Revision B.01,
 Gaussian 16:  ES64L-G16RevB.01 20-Dec-2017

 -----------------------------
 #p b3lyp/6-31g(d) opt SCF=XQC
 -----------------------------

 ------------------------------
 Gaussian input prepared by ASE
 ------------------------------
 Symbolic Z-matrix:
 Charge =  0 Multiplicity = 1

 SCF Done:  E(RB3LYP) =  -1068.45070906     A.U. after   15 cycles
 SCF Done:  E(RB3LYP) =  -1068.45490407     A.U. after   13 cycles
 SCF Done:  E(RB3LYP) =  -1068.45561911     A.U. after   12 cycles
 SCF Done:  E(RB3LYP) =  -1068.45634785     A.U. after   12 cycles
 SCF Done:  E(RB3LYP) =  -1068.45660077     A.U. after   12 cycles
 SCF Done:  E(RB3LYP) =  -1068.45664135     A.U. after   11 cycles
 SCF Done:  E(RB3LYP) =  -1068.45665037     A.U. after   10 cycles
 SCF Done:  E(RB3LYP) =  -1068.45665877     A.U. after    9 cycles
 SCF Done:  E(RB3LYP) =  -1068.45665981     A.U. after    8 cycles
 SCF Done:  E(RB3LYP) =  -1068.45666002     A.U. after    7 cycles
 SCF Done:  E(RB3LYP) =  -1068.45666086     A.U. after    7 cycles
 SCF Done:  E(RB3LYP) =  -1068.45666117     A.U. after    8 cycles
 SCF Done:  E(RB3LYP) =  -1068.45666159     A.U. after    8 cycles
 SCF Done:  E(RB3LYP) =  -1068.45666213     A.U. after    8 cycles
 SCF Done:  E(RB3LYP) =  -1068.45666247     A.U. after    9 cycles
 SCF Done:  E(RB3LYP) =  -1068.45666250     A.U. after    7 cycles
 SCF Done:  E(RB3LYP) =  -1068.45666263     A.U. after    7 cycles
 SCF Done:  E(RB3LYP) =  -1068.45666279     A.U. after    7 cycles
 SCF Done:  E(RB3LYP) =  -1068.45666283     A.U. after    7 cycles
 SCF Done:  E(RB3LYP) =  -1068.45666285     A.U. after    7 cycles
 Optimization completed.
    -- Stationary point found.

                         Standard orientation:
 ---------------------------------------------------------------------
 Center     Atomic      Atomic             Coordinates (Angstroms)
 Number     Number       Type             X           Y           Z
 ---------------------------------------------------------------------
      1          6           0        7.955151   -1.269732    0.348771
      2          6           0        6.473928   -0.986896    0.258215
      3          6           0        5.989952    0.292401   -0.034377
      4          6           0        4.626409    0.580918   -0.095831
      5          6           0        3.693029   -0.438624    0.140094
      6          7           0        2.295680   -0.272079    0.102585
      7          6           0        1.498245    0.815672   -0.134914
      8          7           0        2.042974    2.016487   -0.396655
      9          6           0        1.183149    3.015256   -0.616369
     10          6           0       -0.198866    2.859851   -0.583530
     11          6           0       -0.655122    1.571853   -0.299406
     12          6           0       -2.149731    1.308965   -0.252837
     13          8           0       -2.951339    2.201969   -0.500330
     14          7           0       -2.460905    0.023617    0.083321
     15          6           0       -3.763749   -0.552962    0.105669
     16          6           0       -3.995300   -1.680902   -0.708147
     17          6           0       -2.906388   -2.230162   -1.600007
     18          6           0       -5.257696   -2.278635   -0.678514
     19          6           0       -6.269859   -1.768438    0.132299
     20          6           0       -6.018246   -0.661379    0.937673
     21          6           0       -4.763791   -0.038633    0.953558
     22          6           0       -4.507947    1.123985    1.878437
     23          7           0        0.172280    0.549289   -0.076705
     24          6           0        4.163991   -1.730636    0.431221
     25          6           0        5.527107   -1.994650    0.486933
     26          1           0        8.537985   -0.529289   -0.209089
     27          1           0        8.307320   -1.244657    1.389052
     28          1           0        8.200919   -2.260513   -0.050089
     29          1           0        6.697150    1.097215   -0.223604
     30          1           0        4.281514    1.578662   -0.325926
     31          1           0        1.753733   -1.105190    0.290300
     32          1           0        1.631051    3.984740   -0.828436
     33          1           0       -0.896310    3.666958   -0.764184
     34          1           0       -1.654584   -0.591138    0.138269
     35          1           0       -2.470714   -1.449564   -2.234477
     36          1           0       -3.299221   -3.016955   -2.250490
     37          1           0       -2.080295   -2.670501   -1.023362
     38          1           0       -5.447382   -3.145414   -1.306846
     39          1           0       -7.249857   -2.237874    0.141437
     40          1           0       -6.801625   -0.273073    1.583826
     41          1           0       -4.449382    2.064130    1.320557
     42          1           0       -3.553994    1.007611    2.406462
     43          1           0       -5.303830    1.204649    2.625081
     44          1           0        3.452439   -2.534656    0.611089
     45          1           0        5.860001   -3.005608    0.711629
 ---------------------------------------------------------------------

 The electronic state is 1-A.
 Alpha  occ. eigenvalues --  -19.12108 -14.38114 -14.36748 -14.35087 -14.34294
 Alpha  occ. eigenvalues --  -10.30616 -10.29490 -10.25347 -10.24765 -10.23705
 Alpha  occ. eigenvalues --  -10.22477 -10.20068 -10.19863 -10.19578 -10.19261
 Alpha  occ. eigenvalues --  -10.19210 -10.18939 -10.18890 -10.18567 -10.18540
 Alpha  occ. eigenvalues --  -10.18444 -10.18316 -10.18245 -10.18144 -10.17088
 Alpha  occ. eigenvalues --   -1.04017  -1.01743  -0.94530  -0.93664  -0.90158
 Alpha  occ. eigenvalues --   -0.85165  -0.84709  -0.79777  -0.78128  -0.76058
 Alpha  occ. eigenvalues --   -0.75434  -0.74455  -0.70696  -0.69306  -0.67968
 Alpha  occ. eigenvalues --   -0.67544  -0.65448  -0.62040  -0.61221  -0.58909
 Alpha  occ. eigenvalues --   -0.58497  -0.56309  -0.55467  -0.55038  -0.52264
 Alpha  occ. eigenvalues --   -0.50961  -0.49352  -0.47717  -0.46842  -0.46510
 Alpha  occ. eigenvalues --   -0.45887  -0.45777  -0.44790  -0.43022  -0.42598
 Alpha  occ. eigenvalues --   -0.42405  -0.42056  -0.41877  -0.41781  -0.41316
 Alpha  occ. eigenvalues --   -0.40683  -0.40244  -0.40152  -0.40027  -0.38277
 Alpha  occ. eigenvalues --   -0.38023  -0.37115  -0.35825  -0.34443  -0.34239
 Alpha  occ. eigenvalues --   -0.34124  -0.34098  -0.33105  -0.32401  -0.32019
 Alpha  occ. eigenvalues --   -0.28369  -0.27314  -0.26924  -0.25324  -0.24937
 Alpha  occ. eigenvalues --   -0.23573  -0.22698  -0.20520
 Alpha virt. eigenvalues --   -0.06566  -0.02728  -0.00075   0.00051   0.00635
 Alpha virt. eigenvalues --    0.02149   0.06252   0.07312   0.09367   0.10068
 Alpha virt. eigenvalues --    0.10183   0.11723   0.12741   0.13218   0.14220

 Mulliken charges:
               1
     1  C   -0.530738
     2  C    0.183684
     3  C   -0.198613
     4  C   -0.152386
     5  C    0.358864
     6  N   -0.763938
     7  C    0.702004
     8  N   -0.472467
     9  C    0.068556
    10  C   -0.189293
    11  C    0.289123
    12  C    0.578804
    13  O   -0.515236
    14  N   -0.731571
    15  C    0.185193
    16  C    0.178029
    17  C   -0.538265
    18  C   -0.210558
    19  C   -0.108427
    20  C   -0.209523
    21  C    0.201566
    22  C   -0.540114
    23  N   -0.605412
    24  C   -0.197663
    25  C   -0.183491
    26  H    0.156141
    27  H    0.163809
    28  H    0.155967
    29  H    0.124015
    30  H    0.175875
    31  H    0.337448
    32  H    0.156453
    33  H    0.176441
    34  H    0.354157
    35  H    0.170988
    36  H    0.160811
    37  H    0.151419
    38  H    0.122044
    39  H    0.127532
    40  H    0.124381
    41  H    0.202946
    42  H    0.152284
    43  H    0.145865
    44  H    0.120167
    45  H    0.123128
 Sum of Mulliken charges =  -0.00000

 Dipole moment (field-independent basis, Debye):
    X=              1.7832    Y=             -2.3116    Z=              0.4851  Tot=              2.9594
 Quadrupole moment (field-independent basis, Debye-Ang):
   XX=           -140.1223   YY=           -135.5876   ZZ=           -146.2343
   XY=              6.2299   XZ=             -2.4647   YZ=              1.3502

 Normal termination of Gaussian 16 at Fri Nov  4 21:37:20 2022.
