 Gaussian 16, Revision B.01,
 Gaussian 16:  ES64L-G16RevB.01 20-Dec-2017

 -----------------------------
 #p b3lyp/6-31g(d) opt SCF=XQC
 -----------------------------

 ------------------------------
 Gaussian input prepared by ASE
 ------------------------------
 Symbolic Z-matrix:
 Charge =  0 Multiplicity = 1

 SCF Done:  E(RB3LYP) =  -911.183682850     A.U. after   15 cycles
 SCF Done:  E(RB3LYP) =  -911.188089940     A.U. after   12 cycles
 SCF Done:  E(RB3LYP) =  -911.187807759     A.U. after   13 cycles
 SCF Done:  E(RB3LYP) =  -911.188483196     A.U. after   11 cycles
 SCF Done:  E(RB3LYP) =  -911.188474187     A.U. after   10 cycles
 SCF Done:  E(RB3LYP) =  -911.188507753     A.U. after   10 cycles
 SCF Done:  E(RB3LYP) =  -911.188509234     A.U. after    8 cycles
 SCF Done:  E(RB3LYP) =  -911.188509867     A.U. after    8 cycles
 SCF Done:  E(RB3LYP) =  -911.188510045     A.U. after    7 cycles
 Optimization completed.
    -- Stationary point found.

                         Standard orientation:
 ---------------------------------------------------------------------
 Center     Atomic      Atomic             Coordinates (Angstroms)
 Number     Number       Type             X           Y           Z
 ---------------------------------------------------------------------
      1          6           0       -4.804269    2.016054    0.894484
      2          7           0       -4.464961    0.713098    0.353122
      3          6           0       -5.329086   -0.305737    0.027107
      4          7           0       -4.750613   -1.379883   -0.451178
      5          6           0       -3.401690   -1.069168   -0.450416
      6          6           0       -2.301571   -1.829774   -0.865361
      7          6           0       -1.034405   -1.273175   -0.746804
      8          6           0       -0.843083    0.033289   -0.230377
      9          6           0        0.493994    0.690729   -0.163825
     10          8           0        0.640893    1.887030   -0.352950
     11          7           0        1.614973   -0.118687    0.128992
     12          6           0        1.649935   -1.351662    0.799188
     13          7           0        2.846307   -1.793177    1.032585
     14          6           0        3.701518   -0.821165    0.505603
     15          6           0        5.098387   -0.803897    0.474566
     16          6           0        5.721169    0.296993   -0.107132
     17          6           0        4.970393    1.358628   -0.644911
     18          6           0        3.575953    1.358599   -0.622402
     19          6           0        2.962285    0.248763   -0.041227
     20          6           0       -1.936728    0.818610    0.156402
     21          6           0       -3.197245    0.243121    0.051008
     22          1           0       -5.887938    2.077226    1.015844
     23          1           0       -4.331184    2.164540    1.871024
     24          1           0       -4.479600    2.813018    0.217177
     25          1           0       -6.397101   -0.188525    0.169765
     26          1           0       -2.446313   -2.823450   -1.276804
     27          1           0       -0.175361   -1.837922   -1.093295
     28          1           0        0.735455   -1.840388    1.102598
     29          1           0        5.664386   -1.629329    0.894605
     30          1           0        6.806052    0.341637   -0.145255
     31          1           0        5.488941    2.205701   -1.085364
     32          1           0        2.995245    2.180603   -1.019820
     33          1           0       -1.773009    1.829941    0.513060
 ---------------------------------------------------------------------

 The electronic state is 1-A.
 Alpha  occ. eigenvalues --  -19.14517 -14.41239 -14.40433 -14.33067 -14.32744
 Alpha  occ. eigenvalues --  -10.31777 -10.26896 -10.25958 -10.25652 -10.23970
 Alpha  occ. eigenvalues --  -10.22722 -10.22567 -10.21844 -10.21595 -10.21130
 Alpha  occ. eigenvalues --  -10.20883 -10.20511 -10.19097 -10.18833 -10.18808
 Alpha  occ. eigenvalues --  -10.18693  -1.06633  -1.03733  -1.01228  -0.91065
 Alpha  occ. eigenvalues --   -0.89513  -0.86483  -0.84282  -0.77580  -0.77047
 Alpha  occ. eigenvalues --   -0.74400  -0.73817  -0.73496  -0.67913  -0.64535
 Alpha  occ. eigenvalues --   -0.63062  -0.62631  -0.60109  -0.59794  -0.56263
 Alpha  occ. eigenvalues --   -0.54328  -0.53288  -0.50896  -0.49900  -0.49530
 Alpha  occ. eigenvalues --   -0.48510  -0.47374  -0.46534  -0.45869  -0.44865
 Alpha  occ. eigenvalues --   -0.44048  -0.43762  -0.43225  -0.42745  -0.42385
 Alpha  occ. eigenvalues --   -0.41731  -0.40036  -0.39490  -0.37437  -0.36526
 Alpha  occ. eigenvalues --   -0.36112  -0.35094  -0.33793  -0.31401  -0.30540
 Alpha  occ. eigenvalues --   -0.28622  -0.28504  -0.27195  -0.24909  -0.24120
 Alpha  occ. eigenvalues --   -0.23332  -0.22929
 Alpha virt. eigenvalues --   -0.06177  -0.02256  -0.01568   0.00738   0.03138
 Alpha virt. eigenvalues --    0.04192   0.07024   0.07363   0.10261   0.10430
 Alpha virt. eigenvalues --    0.11110   0.13277   0.13514   0.13695   0.14229

 Mulliken charges:
               1
     1  C   -0.330255
     2  N   -0.495462
     3  C    0.219816
     4  N   -0.497740
     5  C    0.236142
     6  C   -0.177482
     7  C   -0.194508
     8  C    0.042019
     9  C    0.529732
    10  O   -0.472280
    11  N   -0.597451
    12  C    0.211867
    13  N   -0.486041
    14  C    0.198354
    15  C   -0.172957
    16  C   -0.138165
    17  C   -0.151976
    18  C   -0.148089
    19  C    0.337461
    20  C   -0.192583
    21  C    0.330928
    22  H    0.179157
    23  H    0.184867
    24  H    0.187630
    25  H    0.166078
    26  H    0.153981
    27  H    0.156272
    28  H    0.184861
    29  H    0.142914
    30  H    0.129768
    31  H    0.131721
    32  H    0.168941
    33  H    0.162480
 Sum of Mulliken charges =  -0.00000

 Dipole moment (field-independent basis, Debye):
    X=             -3.9619    Y=              2.6921    Z=              0.8178  Tot=              4.8593
 Quadrupole moment (field-independent basis, Debye-Ang):
   XX=            -98.2792   YY=           -121.0121   ZZ=           -120.5902
   XY=            -12.7687   XZ=            -11.3829   YZ=              3.7311

 Normal termination of Gaussian 16 at Fri Nov  4 21:10:14 2022.
