 Gaussian 16, Revision B.01,
 Gaussian 16:  ES64L-G16RevB.01 20-Dec-2017

 -------------------------------------------------------------------
 #p b3lyp/6-31g(d) 6D 10F nosymm GFInput td=(50-50,nstate=2) SCF=XQC
 -------------------------------------------------------------------

 ------------------------------
 Gaussian input prepared by ASE
 ------------------------------
 Symbolic Z-matrix:
 Charge =  0 Multiplicity = 1

                          Input orientation:
 ---------------------------------------------------------------------
 Center     Atomic      Atomic             Coordinates (Angstroms)
 Number     Number       Type             X           Y           Z
 ---------------------------------------------------------------------
      1          6           0       -4.809430    1.465444   -1.337110
      2          7           0       -4.410286    0.328486   -0.528464
      3          6           0       -5.230979   -0.545893    0.144547
      4          7           0       -4.601941   -1.492323    0.797050
      5          6           0       -3.262750   -1.244082    0.549907
      6          6           0       -2.123839   -1.937314    0.978011
      7          6           0       -0.878534   -1.462432    0.586514
      8          6           0       -0.746709   -0.313011   -0.232999
      9          6           0        0.568927    0.176678   -0.736726
     10          8           0        0.698233    0.671260   -1.844494
     11          7           0        1.690413    0.053061    0.114437
     12          6           0        1.716720   -0.046271    1.514457
     13          7           0        2.908205   -0.017049    2.024581
     14          6           0        3.768555    0.114850    0.930824
     15          6           0        5.164206    0.181064    0.914115
     16          6           0        5.792595    0.322642   -0.320093
     17          6           0        5.048397    0.398363   -1.511889
     18          6           0        3.655244    0.334420   -1.514269
     19          6           0        3.036190    0.188122   -0.272714
     20          6           0       -1.878166    0.370261   -0.697037
     21          6           0       -3.117126   -0.103347   -0.282466
     22          1           0       -5.899302    1.536005   -1.334463
     23          1           0       -4.395002    2.394098   -0.930489
     24          1           0       -4.466216    1.345172   -2.370088
     25          1           0       -6.307716   -0.426304    0.111659
     26          1           0       -2.222292   -2.827176    1.591266
     27          1           0        0.011373   -2.006908    0.884111
     28          1           0        0.798398   -0.109069    2.080077
     29          1           0        5.725016    0.122741    1.841594
     30          1           0        6.876585    0.379122   -0.366930
     31          1           0        5.570791    0.515629   -2.457286
     32          1           0        3.078573    0.409028   -2.426813
     33          1           0       -1.758133    1.224733   -1.354509
 ---------------------------------------------------------------------

 SCF Done:  E(RB3LYP) =  -911.188511842     A.U. after   15 cycles

 Excitation energies and oscillator strengths:

 Excited state symmetry could not be determined.
 Excited State   1:      Triplet-?Sym    3.1841 eV  389.38 nm  f=0.0000  <S**2>=2.000
      69 -> 73         0.22461
      70 -> 73         0.52554
      70 -> 74         0.20088
      71 -> 73         0.26376
 This state for optimization and/or second-order correction.
 Total Energy, E(TD-HF/TD-DFT) =  -911.071498162
 Copying the excited state density for this state as the 1-particle RhoCI density.

 Excited state symmetry could not be determined.
 Excited State   2:      Triplet-?Sym    3.3047 eV  375.17 nm  f=0.0000  <S**2>=2.000
      70 -> 73        -0.14663
      71 -> 73         0.17914
      71 -> 76        -0.14915
      72 -> 73         0.39466
      72 -> 74        -0.37237
      72 -> 75         0.28030

 Excited state symmetry could not be determined.
 Excited State   3:      Singlet-?Sym    3.9743 eV  311.96 nm  f=0.0397  <S**2>=0.000
      71 -> 73         0.13778
      72 -> 73         0.68502

 Excited state symmetry could not be determined.
 Excited State   4:      Singlet-?Sym    4.0989 eV  302.48 nm  f=0.2315  <S**2>=0.000
      70 -> 73         0.10880
      71 -> 73         0.66621
      72 -> 73        -0.12872

 Alpha  occ. eigenvalues --  -19.14516 -14.41239 -14.40433 -14.33067 -14.32744
 Alpha  occ. eigenvalues --  -10.31777 -10.26896 -10.25958 -10.25652 -10.23970
 Alpha  occ. eigenvalues --  -10.22722 -10.22567 -10.21844 -10.21595 -10.21130
 Alpha  occ. eigenvalues --  -10.20883 -10.20511 -10.19097 -10.18833 -10.18808
 Alpha  occ. eigenvalues --  -10.18693  -1.06633  -1.03733  -1.01228  -0.91065
 Alpha  occ. eigenvalues --   -0.89513  -0.86483  -0.84282  -0.77580  -0.77047
 Alpha  occ. eigenvalues --   -0.74400  -0.73817  -0.73496  -0.67913  -0.64535
 Alpha  occ. eigenvalues --   -0.63062  -0.62631  -0.60109  -0.59794  -0.56263
 Alpha  occ. eigenvalues --   -0.54328  -0.53288  -0.50896  -0.49900  -0.49530
 Alpha  occ. eigenvalues --   -0.48510  -0.47374  -0.46534  -0.45869  -0.44865
 Alpha  occ. eigenvalues --   -0.44048  -0.43762  -0.43225  -0.42745  -0.42385
 Alpha  occ. eigenvalues --   -0.41731  -0.40036  -0.39490  -0.37437  -0.36526
 Alpha  occ. eigenvalues --   -0.36112  -0.35094  -0.33793  -0.31401  -0.30540
 Alpha  occ. eigenvalues --   -0.28622  -0.28504  -0.27195  -0.24909  -0.24120
 Alpha  occ. eigenvalues --   -0.23332  -0.22929
 Alpha virt. eigenvalues --   -0.06176  -0.02256  -0.01568   0.00738   0.03138
 Alpha virt. eigenvalues --    0.04192   0.07024   0.07363   0.10261   0.10430
 Alpha virt. eigenvalues --    0.11110   0.13277   0.13514   0.13695   0.14229

 Mulliken charges:
               1
     1  C   -0.330255
     2  N   -0.495463
     3  C    0.219819
     4  N   -0.497740
     5  C    0.236133
     6  C   -0.177479
     7  C   -0.194494
     8  C    0.041999
     9  C    0.529724
    10  O   -0.472282
    11  N   -0.597440
    12  C    0.211870
    13  N   -0.486039
    14  C    0.198351
    15  C   -0.172959
    16  C   -0.138166
    17  C   -0.151974
    18  C   -0.148084
    19  C    0.337450
    20  C   -0.192562
    21  C    0.330923
    22  H    0.179157
    23  H    0.184867
    24  H    0.187630
    25  H    0.166077
    26  H    0.153981
    27  H    0.156272
    28  H    0.184864
    29  H    0.142915
    30  H    0.129768
    31  H    0.131721
    32  H    0.168940
    33  H    0.162481
 Sum of Mulliken charges =  -0.00000

 Dipole moment (field-independent basis, Debye):
    X=             -4.0628    Y=              1.9027    Z=             -1.8670  Tot=              4.8593
 Quadrupole moment (field-independent basis, Debye-Ang):
   XX=            -97.1657   YY=           -119.5410   ZZ=           -123.9110
   XY=            -14.7052   XZ=              5.1028   YZ=             -1.2212

 Normal termination of Gaussian 16 at Sat Nov  5 09:29:40 2022.
