 Gaussian 16, Revision B.01,
 Gaussian 16:  ES64L-G16RevB.01 20-Dec-2017

 -------------------------------------------------------------------
 #p b3lyp/6-31g(d) 6D 10F nosymm GFInput td=(50-50,nstate=2) SCF=XQC
 -------------------------------------------------------------------

 ------------------------------
 Gaussian input prepared by ASE
 ------------------------------
 Symbolic Z-matrix:
 Charge =  0 Multiplicity = 1

                          Input orientation:
 ---------------------------------------------------------------------
 Center     Atomic      Atomic             Coordinates (Angstroms)
 Number     Number       Type             X           Y           Z
 ---------------------------------------------------------------------
      1          6           0       -6.351388    0.639557   -0.944136
      2          6           0       -5.586444   -0.496430   -0.295054
      3          8           0       -6.135238   -1.450879    0.219258
      4          7           0       -4.180893   -0.393779   -0.316625
      5          6           0       -3.441933    0.652596   -0.863853
      6          6           0       -2.105716    0.436336   -0.698772
      7          6           0       -1.117569    1.437140   -1.176813
      8          8           0       -1.418980    2.283349   -2.014848
      9          7           0        0.124051    1.344262   -0.588024
     10          6           0        1.265405    2.128046   -0.822905
     11          6           0        1.341837    3.175794   -1.752700
     12          6           0        2.536196    3.879840   -1.905997
     13          6           0        3.660250    3.566615   -1.140598
     14          6           0        3.592227    2.532555   -0.206168
     15          6           0        2.408653    1.817128   -0.060174
     16          8           0        2.261010    0.824182    0.902392
     17          6           0        3.132612   -0.255171    0.937136
     18          6           0        3.258254   -0.898371    2.170728
     19          6           0        4.068678   -2.027695    2.274940
     20          6           0        4.754604   -2.512405    1.158486
     21          6           0        4.618706   -1.859800   -0.067690
     22          6           0        3.806310   -0.730754   -0.190458
     23          6           0       -1.961916   -0.843809   -0.018677
     24          6           0       -0.867644   -1.630302    0.374821
     25          6           0       -1.092392   -2.847035    1.009188
     26          6           0       -2.403607   -3.275393    1.234910
     27          9           0       -2.590218   -4.460301    1.853981
     28          6           0       -3.522262   -2.553035    0.845895
     29          6           0       -3.273356   -1.334288    0.213059
     30          1           0       -6.143606    1.595258   -0.450555
     31          1           0       -6.091512    0.743823   -2.003180
     32          1           0       -7.414180    0.413424   -0.854980
     33          1           0       -3.915612    1.499088   -1.334012
     34          1           0        0.226934    0.698892    0.184087
     35          1           0        0.465546    3.417926   -2.337054
     36          1           0        2.581185    4.686662   -2.631976
     37          1           0        4.583247    4.126173   -1.259955
     38          1           0        4.446980    2.272130    0.410185
     39          1           0        2.720620   -0.503312    3.026984
     40          1           0        4.166999   -2.526367    3.235335
     41          1           0        5.388752   -3.389884    1.243906
     42          1           0        5.143564   -2.231258   -0.943702
     43          1           0        3.698365   -0.226327   -1.144542
     44          1           0        0.153855   -1.324579    0.173070
     45          1           0       -0.268597   -3.477192    1.326403
     46          1           0       -4.521778   -2.922409    1.022131
 ---------------------------------------------------------------------

 SCF Done:  E(RB3LYP) =  -1321.72899689     A.U. after   15 cycles

 Excitation energies and oscillator strengths:

 Excited state symmetry could not be determined.
 Excited State   1:      Triplet-?Sym    2.8985 eV  427.75 nm  f=0.0000  <S**2>=2.000
      93 ->102        -0.11424
     100 ->102         0.55492
     100 ->103        -0.10718
     100 ->104         0.12397
     101 ->102        -0.33407
 This state for optimization and/or second-order correction.
 Total Energy, E(TD-HF/TD-DFT) =  -1321.62247923
 Copying the excited state density for this state as the 1-particle RhoCI density.

 Excited state symmetry could not be determined.
 Excited State   2:      Triplet-?Sym    3.3077 eV  374.84 nm  f=0.0000  <S**2>=2.000
      99 ->102        -0.18032
      99 ->104         0.14192
      99 ->106        -0.11776
     100 ->102         0.23056
     101 ->102         0.41585
     101 ->103        -0.13099
     101 ->104        -0.25035
     101 ->105        -0.18795
     101 ->108        -0.12563

 Excited state symmetry could not be determined.
 Excited State   3:      Singlet-?Sym    3.9451 eV  314.27 nm  f=0.2340  <S**2>=0.000
     101 ->102         0.69501

 Excited state symmetry could not be determined.
 Excited State   4:      Singlet-?Sym    4.1540 eV  298.47 nm  f=0.0668  <S**2>=0.000
     100 ->102         0.67010

 Alpha  occ. eigenvalues --  -24.70418 -19.20148 -19.15320 -19.12094 -14.41540
 Alpha  occ. eigenvalues --  -14.37916 -10.32527 -10.30211 -10.27611 -10.26127
 Alpha  occ. eigenvalues --  -10.25559 -10.24495 -10.24397 -10.24191 -10.21288
 Alpha  occ. eigenvalues --  -10.21225 -10.21021 -10.20919 -10.20156 -10.20129
 Alpha  occ. eigenvalues --  -10.20128 -10.20114 -10.19892 -10.19838 -10.19748
 Alpha  occ. eigenvalues --  -10.19482 -10.19385 -10.19215 -10.18902  -1.21585
 Alpha  occ. eigenvalues --   -1.08774  -1.07371  -1.04056  -0.99899  -0.94525
 Alpha  occ. eigenvalues --   -0.86798  -0.86353  -0.84993  -0.81819  -0.78187
 Alpha  occ. eigenvalues --   -0.77053  -0.75701  -0.75427  -0.74689  -0.73859
 Alpha  occ. eigenvalues --   -0.73123  -0.67676  -0.65321  -0.64582  -0.62752
 Alpha  occ. eigenvalues --   -0.61946  -0.61358  -0.59202  -0.57898  -0.57376
 Alpha  occ. eigenvalues --   -0.55589  -0.53832  -0.53199  -0.51250  -0.51116
 Alpha  occ. eigenvalues --   -0.50448  -0.48803  -0.48554  -0.48038  -0.47702
 Alpha  occ. eigenvalues --   -0.46580  -0.46276  -0.45860  -0.45177  -0.45048
 Alpha  occ. eigenvalues --   -0.44620  -0.44093  -0.43305  -0.43264  -0.43059
 Alpha  occ. eigenvalues --   -0.42564  -0.42341  -0.41797  -0.41300  -0.40173
 Alpha  occ. eigenvalues --   -0.39379  -0.38834  -0.38004  -0.37499  -0.37320
 Alpha  occ. eigenvalues --   -0.36663  -0.36200  -0.35778  -0.34717  -0.34051
 Alpha  occ. eigenvalues --   -0.33535  -0.31240  -0.29045  -0.28235  -0.26220
 Alpha  occ. eigenvalues --   -0.26040  -0.25602  -0.24877  -0.23487  -0.22615
 Alpha  occ. eigenvalues --   -0.21698
 Alpha virt. eigenvalues --   -0.05618  -0.02575  -0.01639  -0.01245  -0.00634
 Alpha virt. eigenvalues --    0.00384   0.01968   0.03765   0.07581   0.08558
 Alpha virt. eigenvalues --    0.08851   0.09386   0.10253   0.11779   0.12982

 Mulliken charges:
               1
     1  C   -0.553446
     2  C    0.587997
     3  O   -0.451475
     4  N   -0.594291
     5  C    0.036066
     6  C   -0.042884
     7  C    0.607533
     8  O   -0.527970
     9  N   -0.772965
    10  C    0.323444
    11  C   -0.174451
    12  C   -0.140852
    13  C   -0.137858
    14  C   -0.163725
    15  C    0.286217
    16  O   -0.610671
    17  C    0.344351
    18  C   -0.174311
    19  C   -0.138092
    20  C   -0.127651
    21  C   -0.139061
    22  C   -0.173763
    23  C    0.061529
    24  C   -0.226071
    25  C   -0.209923
    26  C    0.385212
    27  F   -0.298139
    28  C   -0.229580
    29  C    0.300970
    30  H    0.187857
    31  H    0.190011
    32  H    0.198867
    33  H    0.193106
    34  H    0.364722
    35  H    0.190452
    36  H    0.135146
    37  H    0.134066
    38  H    0.148321
    39  H    0.145454
    40  H    0.137964
    41  H    0.133195
    42  H    0.138702
    43  H    0.155607
    44  H    0.153509
    45  H    0.152443
    46  H    0.194440
 Sum of Mulliken charges =  -0.00000

 Dipole moment (field-independent basis, Debye):
    X=              1.8507    Y=              0.8852    Z=             -0.0094  Tot=              2.0516
 Quadrupole moment (field-independent basis, Debye-Ang):
   XX=           -148.0566   YY=           -168.8792   ZZ=           -163.9182
   XY=            -15.2385   XZ=              5.8935   YZ=              1.4506

 Normal termination of Gaussian 16 at Sat Nov  5 09:47:33 2022.
