 Gaussian 16, Revision B.01,
 Gaussian 16:  ES64L-G16RevB.01 20-Dec-2017

 -----------------------------
 #p b3lyp/6-31g(d) opt SCF=XQC
 -----------------------------

 ------------------------------
 Gaussian input prepared by ASE
 ------------------------------
 Symbolic Z-matrix:
 Charge =  0 Multiplicity = 1

 SCF Done:  E(RB3LYP) =  -1321.72182205     A.U. after   15 cycles
 SCF Done:  E(RB3LYP) =  -1321.72286271     A.U. after   15 cycles
 SCF Done:  E(RB3LYP) =  -1321.72646432     A.U. after   15 cycles
 SCF Done:  E(RB3LYP) =  -1321.72826887     A.U. after   14 cycles
 SCF Done:  E(RB3LYP) =  -1321.72860955     A.U. after   11 cycles
 SCF Done:  E(RB3LYP) =  -1321.72877722     A.U. after   10 cycles
 SCF Done:  E(RB3LYP) =  -1321.72885700     A.U. after   11 cycles
 SCF Done:  E(RB3LYP) =  -1321.72889090     A.U. after   11 cycles
 SCF Done:  E(RB3LYP) =  -1321.72892090     A.U. after   10 cycles
 SCF Done:  E(RB3LYP) =  -1321.72895882     A.U. after   11 cycles
 SCF Done:  E(RB3LYP) =  -1321.72898220     A.U. after   11 cycles
 SCF Done:  E(RB3LYP) =  -1321.72899407     A.U. after   11 cycles
 SCF Done:  E(RB3LYP) =  -1321.72899939     A.U. after   10 cycles
 SCF Done:  E(RB3LYP) =  -1321.72900040     A.U. after    9 cycles
 SCF Done:  E(RB3LYP) =  -1321.72900080     A.U. after    9 cycles
 SCF Done:  E(RB3LYP) =  -1321.72900086     A.U. after    7 cycles
 SCF Done:  E(RB3LYP) =  -1321.72900097     A.U. after    7 cycles
 SCF Done:  E(RB3LYP) =  -1321.72900107     A.U. after    7 cycles
 SCF Done:  E(RB3LYP) =  -1321.72900110     A.U. after    7 cycles
 SCF Done:  E(RB3LYP) =  -1321.72900111     A.U. after    6 cycles
 Optimization completed.
    -- Stationary point found.

                         Standard orientation:
 ---------------------------------------------------------------------
 Center     Atomic      Atomic             Coordinates (Angstroms)
 Number     Number       Type             X           Y           Z
 ---------------------------------------------------------------------
      1          6           0        5.815960   -2.229147    0.162906
      2          6           0        5.305944   -0.802057    0.148393
      3          8           0        6.041215    0.161158    0.239269
      4          7           0        3.911671   -0.639764    0.020950
      5          6           0        2.971309   -1.662581   -0.078974
      6          6           0        1.711185   -1.150442   -0.175407
      7          6           0        0.536486   -2.055553   -0.261551
      8          8           0        0.658659   -3.231602   -0.595023
      9          7           0       -0.663039   -1.473470    0.083757
     10          6           0       -1.943533   -2.049881    0.099891
     11          6           0       -2.232609   -3.372872   -0.266536
     12          6           0       -3.548671   -3.832687   -0.219353
     13          6           0       -4.588071   -2.999942    0.197332
     14          6           0       -4.310212   -1.685147    0.573063
     15          6           0       -3.002140   -1.216797    0.513131
     16          8           0       -2.655742    0.060414    0.940932
     17          6           0       -3.274600    1.175866    0.394414
     18          6           0       -3.273733    2.324674    1.189070
     19          6           0       -3.822934    3.504071    0.688647
     20          6           0       -4.374581    3.539583   -0.594447
     21          6           0       -4.367551    2.384107   -1.377196
     22          6           0       -3.816138    1.196059   -0.893160
     23          6           0        1.838360    0.300601   -0.158626
     24          6           0        0.934581    1.367954   -0.280221
     25          6           0        1.408506    2.674382   -0.235334
     26          6           0        2.778367    2.906313   -0.082320
     27          9           0        3.208383    4.185163   -0.040993
     28          6           0        3.719721    1.892187    0.017301
     29          6           0        3.221755    0.589205   -0.027976
     30          1           0        5.401074   -2.793738    1.005086
     31          1           0        5.552681   -2.758003   -0.759578
     32          1           0        6.901341   -2.189405    0.257670
     33          1           0        3.257131   -2.701872   -0.066721
     34          1           0       -0.633843   -0.539056    0.470101
     35          1           0       -1.422021   -4.014612   -0.581335
     36          1           0       -3.757612   -4.858628   -0.508869
     37          1           0       -5.608443   -3.369134    0.239911
     38          1           0       -5.096218   -1.016820    0.910476
     39          1           0       -2.844381    2.275040    2.184806
     40          1           0       -3.823201    4.396745    1.308190
     41          1           0       -4.805709    4.458839   -0.979812
     42          1           0       -4.789274    2.401791   -2.378540
     43          1           0       -3.807792    0.299497   -1.503473
     44          1           0       -0.126258    1.199675   -0.434924
     45          1           0        0.736067    3.520612   -0.325234
     46          1           0        4.773125    2.108110    0.118521
 ---------------------------------------------------------------------

 The electronic state is 1-A.
 Alpha  occ. eigenvalues --  -24.70418 -19.20148 -19.15320 -19.12094 -14.41540
 Alpha  occ. eigenvalues --  -14.37916 -10.32528 -10.30211 -10.27611 -10.26127
 Alpha  occ. eigenvalues --  -10.25559 -10.24495 -10.24397 -10.24191 -10.21288
 Alpha  occ. eigenvalues --  -10.21226 -10.21021 -10.20919 -10.20156 -10.20129
 Alpha  occ. eigenvalues --  -10.20128 -10.20114 -10.19892 -10.19838 -10.19748
 Alpha  occ. eigenvalues --  -10.19482 -10.19385 -10.19215 -10.18902  -1.21585
 Alpha  occ. eigenvalues --   -1.08774  -1.07371  -1.04056  -0.99900  -0.94525
 Alpha  occ. eigenvalues --   -0.86798  -0.86353  -0.84993  -0.81819  -0.78187
 Alpha  occ. eigenvalues --   -0.77053  -0.75701  -0.75427  -0.74689  -0.73859
 Alpha  occ. eigenvalues --   -0.73123  -0.67676  -0.65321  -0.64582  -0.62752
 Alpha  occ. eigenvalues --   -0.61946  -0.61358  -0.59202  -0.57898  -0.57376
 Alpha  occ. eigenvalues --   -0.55589  -0.53832  -0.53199  -0.51250  -0.51116
 Alpha  occ. eigenvalues --   -0.50448  -0.48803  -0.48554  -0.48038  -0.47702
 Alpha  occ. eigenvalues --   -0.46580  -0.46276  -0.45860  -0.45177  -0.45048
 Alpha  occ. eigenvalues --   -0.44620  -0.44093  -0.43305  -0.43264  -0.43059
 Alpha  occ. eigenvalues --   -0.42564  -0.42341  -0.41797  -0.41300  -0.40173
 Alpha  occ. eigenvalues --   -0.39379  -0.38834  -0.38004  -0.37499  -0.37320
 Alpha  occ. eigenvalues --   -0.36663  -0.36200  -0.35778  -0.34717  -0.34051
 Alpha  occ. eigenvalues --   -0.33535  -0.31240  -0.29045  -0.28235  -0.26220
 Alpha  occ. eigenvalues --   -0.26040  -0.25602  -0.24877  -0.23487  -0.22615
 Alpha  occ. eigenvalues --   -0.21698
 Alpha virt. eigenvalues --   -0.05618  -0.02575  -0.01639  -0.01245  -0.00634
 Alpha virt. eigenvalues --    0.00384   0.01968   0.03765   0.07581   0.08558
 Alpha virt. eigenvalues --    0.08851   0.09386   0.10253   0.11779   0.12982

 Mulliken charges:
               1
     1  C   -0.553447
     2  C    0.587982
     3  O   -0.451471
     4  N   -0.594262
     5  C    0.036066
     6  C   -0.042888
     7  C    0.607528
     8  O   -0.527975
     9  N   -0.772951
    10  C    0.323448
    11  C   -0.174454
    12  C   -0.140852
    13  C   -0.137855
    14  C   -0.163729
    15  C    0.286217
    16  O   -0.610666
    17  C    0.344351
    18  C   -0.174320
    19  C   -0.138093
    20  C   -0.127643
    21  C   -0.139060
    22  C   -0.173771
    23  C    0.061530
    24  C   -0.226059
    25  C   -0.209919
    26  C    0.385215
    27  F   -0.298137
    28  C   -0.229573
    29  C    0.300942
    30  H    0.187858
    31  H    0.190011
    32  H    0.198868
    33  H    0.193106
    34  H    0.364718
    35  H    0.190451
    36  H    0.135147
    37  H    0.134066
    38  H    0.148321
    39  H    0.145456
    40  H    0.137964
    41  H    0.133193
    42  H    0.138703
    43  H    0.155608
    44  H    0.153494
    45  H    0.152442
    46  H    0.194438
 Sum of Mulliken charges =  -0.00000

 Dipole moment (field-independent basis, Debye):
    X=             -1.9977    Y=             -0.4290    Z=              0.1839  Tot=              2.0515
 Quadrupole moment (field-independent basis, Debye-Ang):
   XX=           -154.2549   YY=           -162.2902   ZZ=           -163.2149
   XY=            -18.6773   XZ=              2.9823   YZ=             -1.2802

 Normal termination of Gaussian 16 at Fri Nov  4 21:48:38 2022.
