 Gaussian 16, Revision B.01,
 Gaussian 16:  ES64L-G16RevB.01 20-Dec-2017

 -----------------------------
 #p b3lyp/6-31g(d) opt SCF=XQC
 -----------------------------

 ------------------------------
 Gaussian input prepared by ASE
 ------------------------------
 Symbolic Z-matrix:
 Charge =  0 Multiplicity = 1

 SCF Done:  E(RB3LYP) =  -877.643774581     A.U. after   15 cycles
 SCF Done:  E(RB3LYP) =  -877.647603852     A.U. after   13 cycles
 SCF Done:  E(RB3LYP) =  -877.649138928     A.U. after   13 cycles
 SCF Done:  E(RB3LYP) =  -877.649634162     A.U. after   11 cycles
 SCF Done:  E(RB3LYP) =  -877.649723367     A.U. after   10 cycles
 SCF Done:  E(RB3LYP) =  -877.649767795     A.U. after   10 cycles
 SCF Done:  E(RB3LYP) =  -877.649800409     A.U. after   10 cycles
 SCF Done:  E(RB3LYP) =  -877.649850834     A.U. after   11 cycles
 SCF Done:  E(RB3LYP) =  -877.649888961     A.U. after   12 cycles
 SCF Done:  E(RB3LYP) =  -877.649923108     A.U. after   12 cycles
 SCF Done:  E(RB3LYP) =  -877.650704406     A.U. after   11 cycles
 SCF Done:  E(RB3LYP) =  -877.650742924     A.U. after   12 cycles
 SCF Done:  E(RB3LYP) =  -877.650785849     A.U. after   10 cycles
 SCF Done:  E(RB3LYP) =  -877.650814946     A.U. after   11 cycles
 SCF Done:  E(RB3LYP) =  -877.650826931     A.U. after   11 cycles
 SCF Done:  E(RB3LYP) =  -877.650832962     A.U. after   10 cycles
 SCF Done:  E(RB3LYP) =  -877.650836906     A.U. after   10 cycles
 SCF Done:  E(RB3LYP) =  -877.650837618     A.U. after    7 cycles
 SCF Done:  E(RB3LYP) =  -877.650837782     A.U. after    8 cycles
 SCF Done:  E(RB3LYP) =  -877.650837814     A.U. after    7 cycles
 Optimization completed.
    -- Stationary point found.

                         Standard orientation:
 ---------------------------------------------------------------------
 Center     Atomic      Atomic             Coordinates (Angstroms)
 Number     Number       Type             X           Y           Z
 ---------------------------------------------------------------------
      1          6           0       -5.202994   -0.942433   -0.625924
      2          6           0       -4.318989   -2.012690   -0.540874
      3          6           0       -2.985790   -1.775569   -0.199023
      4          6           0       -2.492739   -0.483463    0.039452
      5          6           0       -3.398269    0.613995   -0.064353
      6          6           0       -4.736646    0.349464   -0.388937
      7          7           0       -3.016451    1.942096    0.189466
      8          6           0       -1.673217    2.428324   -0.155468
      9          6           0       -0.666147    2.120512    0.957779
     10          6           0       -0.862615    0.684278    1.466532
     11          7           0       -1.135759   -0.252991    0.366470
     12          6           0       -0.180010   -1.312311    0.135068
     13          6           0        1.236917   -0.816598    0.002754
     14          7           0        1.646400    0.204737   -0.710404
     15          6           0        3.027950    0.218041   -0.567374
     16          6           0        3.977883    1.092961   -1.109657
     17          6           0        5.317605    0.875360   -0.804955
     18          6           0        5.718706   -0.190980    0.025262
     19          6           0        4.792216   -1.073194    0.575727
     20          6           0        3.450311   -0.847805    0.264098
     21          7           0        2.275961   -1.490465    0.615864
     22          1           0       -6.245936   -1.100418   -0.886153
     23          1           0       -4.655925   -3.029761   -0.719948
     24          1           0       -2.318725   -2.624875   -0.095245
     25          1           0       -5.421036    1.192324   -0.473183
     26          1           0       -3.747138    2.588618   -0.079263
     27          1           0       -1.320561    1.992669   -1.099125
     28          1           0       -1.746885    3.510831   -0.303535
     29          1           0        0.346137    2.243825    0.559842
     30          1           0       -0.795804    2.815890    1.797191
     31          1           0       -1.694937    0.651637    2.179611
     32          1           0        0.029111    0.346900    2.006122
     33          1           0       -0.197276   -2.097326    0.919831
     34          1           0       -0.449923   -1.810816   -0.803349
     35          1           0        3.663648    1.911625   -1.749837
     36          1           0        6.074476    1.538800   -1.214092
     37          1           0        6.774599   -0.328783    0.240841
     38          1           0        5.105166   -1.894139    1.215003
     39          1           0        2.184924   -2.297991    1.214872
 ---------------------------------------------------------------------

 The electronic state is 1-A.
 Alpha  occ. eigenvalues --  -14.39268 -14.33746 -14.32959 -14.31376 -10.25808
 Alpha  occ. eigenvalues --  -10.23423 -10.22432 -10.21343 -10.21224 -10.20808
 Alpha  occ. eigenvalues --  -10.20596 -10.20416 -10.19492 -10.18829 -10.18509
 Alpha  occ. eigenvalues --  -10.18366 -10.17306 -10.17149 -10.17014 -10.16892
 Alpha  occ. eigenvalues --  -10.16805  -1.01760  -0.94478  -0.90683  -0.87837
 Alpha  occ. eigenvalues --   -0.84156  -0.82600  -0.77181  -0.75784  -0.74054
 Alpha  occ. eigenvalues --   -0.73055  -0.71580  -0.68041  -0.66350  -0.62694
 Alpha  occ. eigenvalues --   -0.61014  -0.59854  -0.58883  -0.57225  -0.56220
 Alpha  occ. eigenvalues --   -0.53792  -0.52071  -0.50616  -0.49378  -0.47907
 Alpha  occ. eigenvalues --   -0.47052  -0.45805  -0.45205  -0.44139  -0.44053
 Alpha  occ. eigenvalues --   -0.43454  -0.43269  -0.42204  -0.42146  -0.41256
 Alpha  occ. eigenvalues --   -0.38956  -0.38322  -0.37414  -0.36374  -0.35789
 Alpha  occ. eigenvalues --   -0.35456  -0.34617  -0.34184  -0.33813  -0.33254
 Alpha  occ. eigenvalues --   -0.32613  -0.30356  -0.27846  -0.27050  -0.26337
 Alpha  occ. eigenvalues --   -0.22781  -0.22247  -0.20847  -0.16839
 Alpha virt. eigenvalues --   -0.01647   0.01907   0.02309   0.02699   0.05009
 Alpha virt. eigenvalues --    0.06549   0.08543   0.09976   0.10510   0.11938
 Alpha virt. eigenvalues --    0.13266   0.13913   0.14287   0.14965   0.15489

 Mulliken charges:
               1
     1  C   -0.132744
     2  C   -0.149898
     3  C   -0.202070
     4  C    0.305223
     5  C    0.315666
     6  C   -0.212921
     7  N   -0.663520
     8  C   -0.145766
     9  C   -0.236840
    10  C   -0.157765
    11  N   -0.486747
    12  C   -0.203305
    13  C    0.503408
    14  N   -0.535535
    15  C    0.226985
    16  C   -0.183127
    17  C   -0.142620
    18  C   -0.149703
    19  C   -0.172067
    20  C    0.351075
    21  N   -0.738689
    22  H    0.117639
    23  H    0.115769
    24  H    0.118866
    25  H    0.109548
    26  H    0.310257
    27  H    0.168893
    28  H    0.133921
    29  H    0.159732
    30  H    0.125196
    31  H    0.159240
    32  H    0.141489
    33  H    0.116113
    34  H    0.185806
    35  H    0.138913
    36  H    0.126228
    37  H    0.127209
    38  H    0.126772
    39  H    0.329371
 Sum of Mulliken charges =  -0.00000

 Dipole moment (field-independent basis, Debye):
    X=              1.2469    Y=             -1.1555    Z=              1.7454  Tot=              2.4365
 Quadrupole moment (field-independent basis, Debye-Ang):
   XX=           -117.8608   YY=           -108.2120   ZZ=           -124.3606
   XY=             -9.0780   XZ=              5.9680   YZ=             -5.8646

 1\1\GINC-NODE59\FOpt\RB3LYP\6-31G(d)\C17H18N4\WYKGROUP\04-Nov-2022\0\\
 #p b3lyp/6-31g(d) opt SCF=XQC\\Gaussian input prepared by ASE\\0,1\C,-
 4.4299643638,2.6006123421,-1.1051184213\C,-3.2619136246,2.9703585137,-
 1.7632153537\C,-2.1120575225,2.1929150852,-1.6085498652\C,-2.082323095
 4,1.0560047874,-0.7863230115\C,-3.2776432388,0.6884395678,-0.099824548
 5\C,-4.4252071563,1.4725458858,-0.2865307366\N,-3.3657262894,-0.450560
 7018,0.7180882229\C,-2.2227880927,-0.8995982914,1.5253856207\C,-1.2772
 761443,-1.7863536952,0.7081162575\C,-1.0500988313,-1.1758938484,-0.683

 Normal termination of Gaussian 16 at Fri Nov  4 21:47:19 2022.
