 Gaussian 16, Revision B.01,
 Gaussian 16:  ES64L-G16RevB.01 20-Dec-2017

 -------------------------------------------------------------------
 #p b3lyp/6-31g(d) 6D 10F nosymm GFInput td=(50-50,nstate=2) SCF=XQC
 -------------------------------------------------------------------

 ------------------------------
 Gaussian input prepared by ASE
 ------------------------------
 Symbolic Z-matrix:
 Charge =  0 Multiplicity = 1

                          Input orientation:
 ---------------------------------------------------------------------
 Center     Atomic      Atomic             Coordinates (Angstroms)
 Number     Number       Type             X           Y           Z
 ---------------------------------------------------------------------
      1          6           0       -4.429964    2.600612   -1.105118
      2          6           0       -3.261914    2.970359   -1.763215
      3          6           0       -2.112058    2.192915   -1.608550
      4          6           0       -2.082323    1.056005   -0.786323
      5          6           0       -3.277643    0.688440   -0.099825
      6          6           0       -4.425207    1.472546   -0.286531
      7          7           0       -3.365726   -0.450561    0.718088
      8          6           0       -2.222788   -0.899598    1.525386
      9          6           0       -1.277276   -1.786354    0.708116
     10          6           0       -1.050099   -1.175894   -0.683260
     11          7           0       -0.906549    0.286589   -0.621986
     12          6           0        0.354819    0.854768   -1.040655
     13          6           0        1.544623    0.226738   -0.361783
     14          7           0        1.669843   -0.033738    0.917227
     15          6           0        2.955194   -0.540083    1.061450
     16          6           0        3.621132   -0.983846    2.211030
     17          6           0        4.925988   -1.446153    2.074388
     18          6           0        5.568746   -1.472690    0.820043
     19          6           0        4.926494   -1.036826   -0.336344
     20          6           0        3.617726   -0.573922   -0.189816
     21          7           0        2.683443   -0.078207   -1.082693
     22          1           0       -5.338942    3.186082   -1.211854
     23          1           0       -3.237866    3.844445   -2.407748
     24          1           0       -1.220967    2.470283   -2.161805
     25          1           0       -5.332374    1.190311    0.245722
     26          1           0       -4.236758   -0.462381    1.233134
     27          1           0       -1.663951   -0.048478    1.935198
     28          1           0       -2.624811   -1.464276    2.373142
     29          1           0       -0.325470   -1.870919    1.242151
     30          1           0       -1.699284   -2.792821    0.590190
     31          1           0       -1.890241   -1.425828   -1.342048
     32          1           0       -0.151037   -1.601095   -1.142659
     33          1           0        0.517279    0.800810   -2.137512
     34          1           0        0.346198    1.920617   -0.783987
     35          1           0        3.121985   -0.959673    3.174903
     36          1           0        5.465235   -1.794598    2.950859
     37          1           0        6.588647   -1.841037    0.752982
     38          1           0        5.425241   -1.058528   -1.301405
     39          1           0        2.800654    0.035986   -2.078895
 ---------------------------------------------------------------------

 SCF Done:  E(RB3LYP) =  -877.650838301     A.U. after   15 cycles

 Excitation energies and oscillator strengths:

 Excited state symmetry could not be determined.
 Excited State   1:      Triplet-?Sym    3.3440 eV  370.76 nm  f=0.0000  <S**2>=2.000
      73 -> 76         0.25690
      74 -> 75         0.17396
      74 -> 78         0.59512
 This state for optimization and/or second-order correction.
 Total Energy, E(TD-HF/TD-DFT) =  -877.527947202
 Copying the excited state density for this state as the 1-particle RhoCI density.

 Excited state symmetry could not be determined.
 Excited State   2:      Triplet-?Sym    3.4252 eV  361.97 nm  f=0.0000  <S**2>=2.000
      71 -> 75        -0.14165
      71 -> 77         0.12831
      72 -> 75         0.40763
      73 -> 75         0.11350
      74 -> 75         0.43343
      74 -> 76        -0.21734
      74 -> 78        -0.14952

 Excited state symmetry could not be determined.
 Excited State   3:      Singlet-?Sym    3.5881 eV  345.54 nm  f=0.0135  <S**2>=0.000
      74 -> 75         0.70099

 Excited state symmetry could not be determined.
 Excited State   4:      Singlet-?Sym    4.4396 eV  279.27 nm  f=0.1019  <S**2>=0.000
      73 -> 78        -0.22846
      74 -> 76         0.65029
      74 -> 77         0.12317

 Alpha  occ. eigenvalues --  -14.39268 -14.33746 -14.32959 -14.31376 -10.25808
 Alpha  occ. eigenvalues --  -10.23423 -10.22432 -10.21343 -10.21224 -10.20808
 Alpha  occ. eigenvalues --  -10.20596 -10.20416 -10.19492 -10.18829 -10.18509
 Alpha  occ. eigenvalues --  -10.18366 -10.17306 -10.17149 -10.17014 -10.16892
 Alpha  occ. eigenvalues --  -10.16805  -1.01760  -0.94478  -0.90683  -0.87837
 Alpha  occ. eigenvalues --   -0.84156  -0.82600  -0.77181  -0.75784  -0.74054
 Alpha  occ. eigenvalues --   -0.73055  -0.71580  -0.68041  -0.66350  -0.62694
 Alpha  occ. eigenvalues --   -0.61014  -0.59854  -0.58883  -0.57225  -0.56220
 Alpha  occ. eigenvalues --   -0.53792  -0.52071  -0.50616  -0.49378  -0.47907
 Alpha  occ. eigenvalues --   -0.47052  -0.45805  -0.45205  -0.44139  -0.44053
 Alpha  occ. eigenvalues --   -0.43454  -0.43269  -0.42204  -0.42146  -0.41256
 Alpha  occ. eigenvalues --   -0.38956  -0.38322  -0.37414  -0.36374  -0.35789
 Alpha  occ. eigenvalues --   -0.35456  -0.34617  -0.34184  -0.33813  -0.33254
 Alpha  occ. eigenvalues --   -0.32613  -0.30356  -0.27847  -0.27050  -0.26337
 Alpha  occ. eigenvalues --   -0.22781  -0.22247  -0.20847  -0.16839
 Alpha virt. eigenvalues --   -0.01647   0.01907   0.02309   0.02699   0.05009
 Alpha virt. eigenvalues --    0.06549   0.08543   0.09976   0.10510   0.11938
 Alpha virt. eigenvalues --    0.13266   0.13913   0.14287   0.14965   0.15489

 Mulliken charges:
               1
     1  C   -0.132744
     2  C   -0.149897
     3  C   -0.202077
     4  C    0.305246
     5  C    0.315653
     6  C   -0.212928
     7  N   -0.663522
     8  C   -0.145764
     9  C   -0.236845
    10  C   -0.157754
    11  N   -0.486742
    12  C   -0.203307
    13  C    0.503406
    14  N   -0.535534
    15  C    0.227012
    16  C   -0.183133
    17  C   -0.142631
    18  C   -0.149691
    19  C   -0.172063
    20  C    0.351041
    21  N   -0.738685
    22  H    0.117640
    23  H    0.115769
    24  H    0.118866
    25  H    0.109548
    26  H    0.310258
    27  H    0.168893
    28  H    0.133921
    29  H    0.159733
    30  H    0.125196
    31  H    0.159238
    32  H    0.141487
    33  H    0.116113
    34  H    0.185804
    35  H    0.138913
    36  H    0.126229
    37  H    0.127208
    38  H    0.126771
    39  H    0.329372
 Sum of Mulliken charges =  -0.00000

 Dipole moment (field-independent basis, Debye):
    X=              1.3846    Y=             -0.8653    Z=             -1.8085  Tot=              2.4365
 Quadrupole moment (field-independent basis, Debye-Ang):
   XX=           -112.5112   YY=           -123.5748   ZZ=           -114.1351
   XY=              0.6182   XZ=            -13.2049   YZ=             -4.0498

 Normal termination of Gaussian 16 at Sat Nov  5 09:32:30 2022.
