 Gaussian 16, Revision B.01,
 Gaussian 16:  ES64L-G16RevB.01 20-Dec-2017

 -------------------------------------------------------------------
 #p b3lyp/6-31g(d) 6D 10F nosymm GFInput td=(50-50,nstate=2) SCF=XQC
 -------------------------------------------------------------------

 ------------------------------
 Gaussian input prepared by ASE
 ------------------------------
 Symbolic Z-matrix:
 Charge =  0 Multiplicity = 1

                          Input orientation:
 ---------------------------------------------------------------------
 Center     Atomic      Atomic             Coordinates (Angstroms)
 Number     Number       Type             X           Y           Z
 ---------------------------------------------------------------------
      1          6           0        7.481273    1.090268   -0.393229
      2          8           0        6.761965   -0.129376   -0.493029
      3          6           0        5.401286   -0.085369   -0.425006
      4          6           0        4.645129    1.083678   -0.272300
      5          6           0        3.253601    1.006319   -0.223273
      6          6           0        2.580490   -0.220199   -0.311508
      7          6           0        1.107693   -0.282179   -0.242176
      8          6           0        0.334125    0.526575    0.536919
      9          6           0       -1.094284    0.377563    0.552038
     10          6           0       -1.945646    1.187646    1.332531
     11          6           0       -3.316778    1.014225    1.328184
     12          6           0       -3.936172    0.001764    0.542682
     13          7           0       -5.312561   -0.187185    0.569067
     14          6           0       -6.161664    0.814690    1.189991
     15          6           0       -5.915109   -1.095918   -0.392471
     16          6           0       -3.096755   -0.800903   -0.246148
     17          6           0       -1.710332   -0.624539   -0.237189
     18          6           0       -0.887843   -1.500547   -1.090693
     19          8           0       -1.320151   -2.379336   -1.834234
     20          7           0        0.480421   -1.254553   -1.013884
     21          6           0        3.360152   -1.384108   -0.464297
     22          6           0        4.744742   -1.321266   -0.521395
     23          1           0        7.227011    1.776726   -1.211528
     24          1           0        8.536584    0.821105   -0.463580
     25          1           0        7.297337    1.589472    0.567210
     26          1           0        5.123683    2.054173   -0.208457
     27          1           0        2.677801    1.923141   -0.138293
     28          1           0        0.804039    1.258796    1.183868
     29          1           0       -1.512090    1.972037    1.948736
     30          1           0       -3.921720    1.671571    1.941648
     31          1           0       -7.202195    0.491595    1.119578
     32          1           0       -6.076933    1.805923    0.715143
     33          1           0       -5.925787    0.928017    2.254974
     34          1           0       -5.761151   -0.778588   -1.436376
     35          1           0       -6.989133   -1.153674   -0.204134
     36          1           0       -5.503802   -2.105758   -0.283575
     37          1           0       -3.483569   -1.581528   -0.888309
     38          1           0        1.033590   -1.809902   -1.655020
     39          1           0        2.879050   -2.358026   -0.503748
     40          1           0        5.343704   -2.220089   -0.628720
 ---------------------------------------------------------------------

 SCF Done:  E(RB3LYP) =  -956.723602855     A.U. after   15 cycles

 Excitation energies and oscillator strengths:

 Excited state symmetry could not be determined.
 Excited State   1:      Triplet-?Sym    2.4667 eV  502.63 nm  f=0.0000  <S**2>=2.000
      77 -> 79        -0.12526
      78 -> 79         0.66226
      78 -> 82        -0.11849
 This state for optimization and/or second-order correction.
 Total Energy, E(TD-HF/TD-DFT) =  -956.632952160
 Copying the excited state density for this state as the 1-particle RhoCI density.

 Excited state symmetry could not be determined.
 Excited State   2:      Triplet-?Sym    2.7693 eV  447.71 nm  f=0.0000  <S**2>=2.000
      78 -> 80         0.69373

 Excited state symmetry could not be determined.
 Excited State   3:      Singlet-?Sym    3.5581 eV  348.46 nm  f=0.5996  <S**2>=0.000
      78 -> 79         0.61866
      78 -> 80         0.32388

 Excited state symmetry could not be determined.
 Excited State   4:      Singlet-?Sym    3.6073 eV  343.70 nm  f=0.1962  <S**2>=0.000
      78 -> 79        -0.32668
      78 -> 80         0.61028

 Alpha  occ. eigenvalues --  -19.18498 -19.09482 -14.36942 -14.35226 -10.27406
 Alpha  occ. eigenvalues --  -10.25463 -10.24708 -10.23325 -10.22484 -10.21874
 Alpha  occ. eigenvalues --  -10.21424 -10.20255 -10.19928 -10.19884 -10.19566
 Alpha  occ. eigenvalues --  -10.19197 -10.19085 -10.18672 -10.18657 -10.18611
 Alpha  occ. eigenvalues --  -10.17915 -10.17549  -1.07087  -1.01795  -0.94514
 Alpha  occ. eigenvalues --   -0.93729  -0.85878  -0.84639  -0.78608  -0.76865
 Alpha  occ. eigenvalues --   -0.75589  -0.75140  -0.73101  -0.72177  -0.69861
 Alpha  occ. eigenvalues --   -0.66356  -0.64133  -0.62271  -0.60906  -0.58654
 Alpha  occ. eigenvalues --   -0.57933  -0.54861  -0.53848  -0.52795  -0.51061
 Alpha  occ. eigenvalues --   -0.48728  -0.48150  -0.47453  -0.46560  -0.46317
 Alpha  occ. eigenvalues --   -0.46168  -0.44712  -0.43384  -0.42848  -0.42796
 Alpha  occ. eigenvalues --   -0.42236  -0.41501  -0.41147  -0.40685  -0.40096
 Alpha  occ. eigenvalues --   -0.38972  -0.38543  -0.38430  -0.38071  -0.36585
 Alpha  occ. eigenvalues --   -0.35897  -0.35269  -0.34118  -0.33357  -0.33027
 Alpha  occ. eigenvalues --   -0.31413  -0.29094  -0.25904  -0.24484  -0.24044
 Alpha  occ. eigenvalues --   -0.23359  -0.21956  -0.17167
 Alpha virt. eigenvalues --   -0.02921  -0.02177  -0.00942   0.02456   0.05928
 Alpha virt. eigenvalues --    0.08696   0.08877   0.09781   0.09976   0.10817
 Alpha virt. eigenvalues --    0.11367   0.12049   0.13197   0.13318   0.13780

 Mulliken charges:
               1
     1  C   -0.217096
     2  O   -0.504701
     3  C    0.381204
     4  C   -0.200581
     5  C   -0.177928
     6  C    0.092675
     7  C    0.334411
     8  C   -0.300342
     9  C    0.184386
    10  C   -0.216045
    11  C   -0.180535
    12  C    0.373923
    13  N   -0.478498
    14  C   -0.311426
    15  C   -0.310569
    16  C   -0.271692
    17  C    0.004094
    18  C    0.575109
    19  O   -0.537103
    20  N   -0.736983
    21  C   -0.191913
    22  C   -0.174782
    23  H    0.154402
    24  H    0.173124
    25  H    0.154128
    26  H    0.135776
    27  H    0.139619
    28  H    0.130772
    29  H    0.125121
    30  H    0.126606
    31  H    0.156135
    32  H    0.150905
    33  H    0.162482
    34  H    0.155810
    35  H    0.152455
    36  H    0.172137
    37  H    0.159084
    38  H    0.330521
    39  H    0.140850
    40  H    0.144464
 Sum of Mulliken charges =  -0.00000

 Dipole moment (field-independent basis, Debye):
    X=              0.8468    Y=              3.6509    Z=              1.7355  Tot=              4.1302
 Quadrupole moment (field-independent basis, Debye-Ang):
   XX=            -83.8503   YY=           -126.6714   ZZ=           -132.5552
   XY=              3.8817   XZ=             -6.2635   YZ=             -0.5684

 Normal termination of Gaussian 16 at Sat Nov  5 09:33:00 2022.
