 Gaussian 16, Revision B.01,
 Gaussian 16:  ES64L-G16RevB.01 20-Dec-2017

 -----------------------------
 #p b3lyp/6-31g(d) opt SCF=XQC
 -----------------------------

 ------------------------------
 Gaussian input prepared by ASE
 ------------------------------
 Symbolic Z-matrix:
 Charge =  0 Multiplicity = 1

 SCF Done:  E(RB3LYP) =  -956.720134193     A.U. after   15 cycles
 SCF Done:  E(RB3LYP) =  -956.723421823     A.U. after   12 cycles
 SCF Done:  E(RB3LYP) =  -956.723527570     A.U. after   10 cycles
 SCF Done:  E(RB3LYP) =  -956.723541093     A.U. after   10 cycles
 SCF Done:  E(RB3LYP) =  -956.723556640     A.U. after    8 cycles
 SCF Done:  E(RB3LYP) =  -956.723572074     A.U. after    9 cycles
 SCF Done:  E(RB3LYP) =  -956.723583374     A.U. after    9 cycles
 SCF Done:  E(RB3LYP) =  -956.723589941     A.U. after    9 cycles
 SCF Done:  E(RB3LYP) =  -956.723594688     A.U. after    9 cycles
 SCF Done:  E(RB3LYP) =  -956.723596662     A.U. after    8 cycles
 SCF Done:  E(RB3LYP) =  -956.723598396     A.U. after    8 cycles
 SCF Done:  E(RB3LYP) =  -956.723599829     A.U. after    8 cycles
 SCF Done:  E(RB3LYP) =  -956.723600937     A.U. after    9 cycles
 SCF Done:  E(RB3LYP) =  -956.723601319     A.U. after    7 cycles
 Optimization completed.
    -- Stationary point found.

                         Standard orientation:
 ---------------------------------------------------------------------
 Center     Atomic      Atomic             Coordinates (Angstroms)
 Number     Number       Type             X           Y           Z
 ---------------------------------------------------------------------
      1          6           0        7.301142   -1.039919    0.339790
      2          8           0        6.557484    0.048977   -0.185734
      3          6           0        5.197514    0.001672   -0.106658
      4          6           0        4.465322   -1.044866    0.468162
      5          6           0        3.072654   -0.979651    0.499151
      6          6           0        2.373914    0.107750   -0.043559
      7          6           0        0.899094    0.150577   -0.014392
      8          6           0        0.089534   -0.937422   -0.157050
      9          6           0       -1.339239   -0.792977   -0.134019
     10          6           0       -2.226388   -1.881324   -0.270730
     11          6           0       -3.597240   -1.706927   -0.249549
     12          6           0       -4.180985   -0.417645   -0.098783
     13          7           0       -5.559958   -0.246993   -0.111266
     14          6           0       -6.426711   -1.408379   -0.010278
     15          6           0       -6.109979    1.051638    0.241508
     16          6           0       -3.304864    0.669301    0.049911
     17          6           0       -1.919058    0.489616    0.025245
     18          6           0       -1.056766    1.673664    0.189041
     19          8           0       -1.453605    2.824481    0.362686
     20          7           0        0.307549    1.398931    0.147476
     21          6           0        3.129681    1.149573   -0.617425
     22          6           0        4.515662    1.101058   -0.649070
     23          1           0        7.132358   -1.160778    1.417932
     24          1           0        8.350587   -0.797018    0.164452
     25          1           0        7.055873   -1.979959   -0.171725
     26          1           0        4.964822   -1.900947    0.906996
     27          1           0        2.518348   -1.781682    0.977505
     28          1           0        0.527327   -1.913479   -0.333569
     29          1           0       -1.820892   -2.883457   -0.390102
     30          1           0       -4.229951   -2.580875   -0.350982
     31          1           0       -7.467171   -1.079111   -0.043133
     32          1           0       -6.276272   -1.978957    0.920857
     33          1           0       -6.272985   -2.091211   -0.854539
     34          1           0       -5.864633    1.355066    1.271981
     35          1           0       -7.196775    1.017897    0.141157
     36          1           0       -5.737629    1.828494   -0.435735
     37          1           0       -3.661616    1.681584    0.189127
     38          1           0        0.893781    2.203749    0.332037
     39          1           0        2.625607    1.995205   -1.078238
     40          1           0        5.095335    1.899819   -1.100861
 ---------------------------------------------------------------------

 The electronic state is 1-A.
 Alpha  occ. eigenvalues --  -19.18498 -19.09482 -14.36942 -14.35226 -10.27406
 Alpha  occ. eigenvalues --  -10.25463 -10.24708 -10.23325 -10.22484 -10.21874
 Alpha  occ. eigenvalues --  -10.21424 -10.20255 -10.19928 -10.19884 -10.19566
 Alpha  occ. eigenvalues --  -10.19197 -10.19085 -10.18672 -10.18657 -10.18611
 Alpha  occ. eigenvalues --  -10.17915 -10.17549  -1.07087  -1.01795  -0.94514
 Alpha  occ. eigenvalues --   -0.93729  -0.85878  -0.84639  -0.78608  -0.76865
 Alpha  occ. eigenvalues --   -0.75589  -0.75140  -0.73101  -0.72177  -0.69861
 Alpha  occ. eigenvalues --   -0.66356  -0.64133  -0.62271  -0.60906  -0.58654
 Alpha  occ. eigenvalues --   -0.57933  -0.54861  -0.53848  -0.52795  -0.51061
 Alpha  occ. eigenvalues --   -0.48728  -0.48150  -0.47453  -0.46560  -0.46317
 Alpha  occ. eigenvalues --   -0.46168  -0.44712  -0.43384  -0.42848  -0.42796
 Alpha  occ. eigenvalues --   -0.42236  -0.41501  -0.41147  -0.40685  -0.40096
 Alpha  occ. eigenvalues --   -0.38972  -0.38543  -0.38430  -0.38071  -0.36585
 Alpha  occ. eigenvalues --   -0.35897  -0.35269  -0.34118  -0.33357  -0.33027
 Alpha  occ. eigenvalues --   -0.31413  -0.29094  -0.25904  -0.24484  -0.24044
 Alpha  occ. eigenvalues --   -0.23359  -0.21956  -0.17167
 Alpha virt. eigenvalues --   -0.02921  -0.02177  -0.00942   0.02456   0.05928
 Alpha virt. eigenvalues --    0.08696   0.08877   0.09781   0.09976   0.10817
 Alpha virt. eigenvalues --    0.11367   0.12049   0.13197   0.13318   0.13780

 Mulliken charges:
               1
     1  C   -0.217096
     2  O   -0.504700
     3  C    0.381210
     4  C   -0.200587
     5  C   -0.177928
     6  C    0.092683
     7  C    0.334401
     8  C   -0.300334
     9  C    0.184382
    10  C   -0.216050
    11  C   -0.180538
    12  C    0.373920
    13  N   -0.478494
    14  C   -0.311434
    15  C   -0.310562
    16  C   -0.271684
    17  C    0.004093
    18  C    0.575111
    19  O   -0.537102
    20  N   -0.736984
    21  C   -0.191916
    22  C   -0.174783
    23  H    0.154401
    24  H    0.173125
    25  H    0.154129
    26  H    0.135777
    27  H    0.139619
    28  H    0.130772
    29  H    0.125122
    30  H    0.126607
    31  H    0.156137
    32  H    0.150906
    33  H    0.162484
    34  H    0.155808
    35  H    0.152453
    36  H    0.172136
    37  H    0.159083
    38  H    0.330522
    39  H    0.140851
    40  H    0.144464
 Sum of Mulliken charges =  -0.00000

 Dipole moment (field-independent basis, Debye):
    X=              0.8103    Y=             -4.0209    Z=              0.4838  Tot=              4.1302
 Quadrupole moment (field-independent basis, Debye-Ang):
   XX=            -83.3274   YY=           -127.3700   ZZ=           -131.1222
   XY=             -0.2432   XZ=              3.3330   YZ=             -3.2129

 Normal termination of Gaussian 16 at Fri Nov  4 21:34:53 2022.
