 Gaussian 16, Revision B.01,
 Gaussian 16:  ES64L-G16RevB.01 20-Dec-2017

 -------------------------------------------------------------------
 #p b3lyp/6-31g(d) 6D 10F nosymm GFInput td=(50-50,nstate=2) SCF=XQC
 -------------------------------------------------------------------

 ------------------------------
 Gaussian input prepared by ASE
 ------------------------------
 Symbolic Z-matrix:
 Charge =  0 Multiplicity = 1

                          Input orientation:
 ---------------------------------------------------------------------
 Center     Atomic      Atomic             Coordinates (Angstroms)
 Number     Number       Type             X           Y           Z
 ---------------------------------------------------------------------
      1          8           0        2.458719   -2.030976   -0.957967
      2          6           0        1.918081   -1.021924   -0.516801
      3          7           0        0.622931   -0.652525   -0.839894
      4          6           0       -0.266858   -1.265438   -1.732958
      5          6           0        0.045251   -2.410684   -2.484551
      6          6           0       -0.892106   -2.939153   -3.370050
      7          6           0       -2.150531   -2.357262   -3.529341
      8          6           0       -2.472370   -1.226366   -2.781989
      9          6           0       -1.544968   -0.680677   -1.894809
     10          7           0       -1.884521    0.496609   -1.155900
     11          6           0       -1.912064    1.795291   -1.640342
     12          7           0       -2.276935    2.689131   -0.760842
     13          6           0       -2.524302    1.961437    0.398234
     14          6           0       -2.948016    2.399669    1.659617
     15          6           0       -3.124175    1.446650    2.657172
     16          6           0       -2.887454    0.077511    2.416436
     17          6           0       -2.466332   -0.381807    1.171201
     18          6           0       -2.290237    0.583408    0.177247
     19          6           0        2.622165   -0.104100    0.433298
     20          6           0        3.750125   -0.614746    1.091228
     21          6           0        4.469652    0.164208    1.988540
     22          6           0        4.076302    1.485965    2.235488
     23          8           0        4.738842    2.302198    3.101506
     24          6           0        2.964012    2.018762    1.572610
     25          6           0        2.248654    1.228030    0.681967
     26          1           0        0.231866    0.120221   -0.319546
     27          1           0        1.018483   -2.863291   -2.362083
     28          1           0       -0.627905   -3.823929   -3.942791
     29          1           0       -2.873747   -2.778762   -4.220613
     30          1           0       -3.444857   -0.751497   -2.872010
     31          1           0       -1.637271    1.997571   -2.668349
     32          1           0       -3.131781    3.454752    1.837460
     33          1           0       -3.452322    1.759437    3.644462
     34          1           0       -3.038885   -0.636997    3.220670
     35          1           0       -2.289462   -1.436219    0.981917
     36          1           0        4.049522   -1.636115    0.881889
     37          1           0        5.338083   -0.249414    2.498113
     38          1           0        5.488627    1.820060    3.484499
     39          1           0        2.683078    3.049847    1.759845
     40          1           0        1.412705    1.683434    0.157435
 ---------------------------------------------------------------------

 SCF Done:  E(RB3LYP) =  -1085.89027756     A.U. after   16 cycles

 Excitation energies and oscillator strengths:

 Excited state symmetry could not be determined.
 Excited State   1:      Triplet-?Sym    3.3684 eV  368.08 nm  f=0.0000  <S**2>=2.000
      80 -> 90        -0.18352
      82 -> 89         0.13532
      83 -> 87        -0.19849
      83 -> 91        -0.21537
      85 -> 87         0.25536
      86 -> 87         0.50302
 This state for optimization and/or second-order correction.
 Total Energy, E(TD-HF/TD-DFT) =  -1085.76649182
 Copying the excited state density for this state as the 1-particle RhoCI density.

 Excited state symmetry could not be determined.
 Excited State   2:      Triplet-?Sym    3.4666 eV  357.66 nm  f=0.0000  <S**2>=2.000
      80 -> 90         0.15132
      82 -> 89         0.17683
      83 -> 87         0.52867
      85 -> 91        -0.14035
      86 -> 87         0.15568
      86 -> 91        -0.26125

 Excited state symmetry could not be determined.
 Excited State   3:      Singlet-?Sym    4.4314 eV  279.79 nm  f=0.2743  <S**2>=0.000
      85 -> 87        -0.14376
      86 -> 87         0.67656

 Excited state symmetry could not be determined.
 Excited State   4:      Singlet-?Sym    4.5076 eV  275.06 nm  f=0.1632  <S**2>=0.000
      81 -> 87        -0.26054
      84 -> 87         0.13634
      85 -> 87         0.61686

 Alpha  occ. eigenvalues --  -19.19476 -19.12363 -14.40098 -14.38279 -14.32125
 Alpha  occ. eigenvalues --  -10.30118 -10.26713 -10.25573 -10.25258 -10.24396
 Alpha  occ. eigenvalues --  -10.22724 -10.21119 -10.21083 -10.20725 -10.20466
 Alpha  occ. eigenvalues --  -10.20409 -10.20313 -10.20145 -10.19890 -10.19816
 Alpha  occ. eigenvalues --  -10.19725 -10.19344 -10.19179 -10.18949 -10.18767
 Alpha  occ. eigenvalues --   -1.07588  -1.04371  -1.02565  -0.95197  -0.90159
 Alpha  occ. eigenvalues --   -0.86548  -0.85170  -0.84374  -0.77437  -0.76425
 Alpha  occ. eigenvalues --   -0.76257  -0.74654  -0.73912  -0.73503  -0.66411
 Alpha  occ. eigenvalues --   -0.64805  -0.64188  -0.63236  -0.61415  -0.60160
 Alpha  occ. eigenvalues --   -0.58627  -0.58022  -0.56094  -0.55349  -0.53494
 Alpha  occ. eigenvalues --   -0.52110  -0.50392  -0.48455  -0.48211  -0.47183
 Alpha  occ. eigenvalues --   -0.46990  -0.45459  -0.44536  -0.44258  -0.43802
 Alpha  occ. eigenvalues --   -0.43598  -0.43307  -0.43219  -0.42744  -0.41897
 Alpha  occ. eigenvalues --   -0.41539  -0.40382  -0.38647  -0.38260  -0.37787
 Alpha  occ. eigenvalues --   -0.36945  -0.36743  -0.35491  -0.35121  -0.34320
 Alpha  occ. eigenvalues --   -0.34076  -0.31502  -0.30605  -0.28057  -0.26675
 Alpha  occ. eigenvalues --   -0.26134  -0.26045  -0.23848  -0.23278  -0.22866
 Alpha  occ. eigenvalues --   -0.22523
 Alpha virt. eigenvalues --   -0.04363  -0.01910  -0.01764  -0.01523   0.00126
 Alpha virt. eigenvalues --    0.01690   0.04865   0.05622   0.06634   0.07862
 Alpha virt. eigenvalues --    0.09129   0.10086   0.10847   0.13587   0.14283

 Mulliken charges:
               1
     1  O   -0.514249
     2  C    0.581701
     3  N   -0.771629
     4  C    0.374009
     5  C   -0.180734
     6  C   -0.131153
     7  C   -0.143930
     8  C   -0.141851
     9  C    0.173975
    10  N   -0.609725
    11  C    0.203906
    12  N   -0.496209
    13  C    0.226803
    14  C   -0.177077
    15  C   -0.140849
    16  C   -0.150237
    17  C   -0.170836
    18  C    0.283233
    19  C    0.056349
    20  C   -0.157952
    21  C   -0.199101
    22  C    0.361528
    23  O   -0.632845
    24  C   -0.163828
    25  C   -0.193878
    26  H    0.362020
    27  H    0.197225
    28  H    0.140538
    29  H    0.137657
    30  H    0.149631
    31  H    0.169573
    32  H    0.142144
    33  H    0.128857
    34  H    0.131451
    35  H    0.145749
    36  H    0.167712
    37  H    0.129270
    38  H    0.412683
    39  H    0.153313
    40  H    0.146756
 Sum of Mulliken charges =  -0.00000

 Dipole moment (field-independent basis, Debye):
    X=              1.0454    Y=             -1.2001    Z=              1.1725  Tot=              1.9768
 Quadrupole moment (field-independent basis, Debye-Ang):
   XX=           -128.8928   YY=           -149.3159   ZZ=           -127.1363
   XY=              8.9508   XZ=             15.1796   YZ=              2.6951

 Normal termination of Gaussian 16 at Sat Nov  5 09:39:41 2022.
