 Gaussian 16, Revision B.01,
 Gaussian 16:  ES64L-G16RevB.01 20-Dec-2017

 -----------------------------
 #p b3lyp/6-31g(d) opt SCF=XQC
 -----------------------------

 ------------------------------
 Gaussian input prepared by ASE
 ------------------------------
 Symbolic Z-matrix:
 Charge =  0 Multiplicity = 1

 SCF Done:  E(RB3LYP) =  -1085.88252044     A.U. after   15 cycles
 SCF Done:  E(RB3LYP) =  -1085.88750078     A.U. after   14 cycles
 SCF Done:  E(RB3LYP) =  -1085.88908183     A.U. after   13 cycles
 SCF Done:  E(RB3LYP) =  -1085.88986752     A.U. after   12 cycles
 SCF Done:  E(RB3LYP) =  -1085.89003690     A.U. after   12 cycles
 SCF Done:  E(RB3LYP) =  -1085.89006834     A.U. after   12 cycles
 SCF Done:  E(RB3LYP) =  -1085.89019738     A.U. after   11 cycles
 SCF Done:  E(RB3LYP) =  -1085.89024289     A.U. after   11 cycles
 SCF Done:  E(RB3LYP) =  -1085.89025539     A.U. after   10 cycles
 SCF Done:  E(RB3LYP) =  -1085.89026140     A.U. after   10 cycles
 SCF Done:  E(RB3LYP) =  -1085.89026855     A.U. after   11 cycles
 SCF Done:  E(RB3LYP) =  -1085.89027407     A.U. after   10 cycles
 SCF Done:  E(RB3LYP) =  -1085.89027548     A.U. after   10 cycles
 SCF Done:  E(RB3LYP) =  -1085.89027617     A.U. after    8 cycles
 SCF Done:  E(RB3LYP) =  -1085.89027674     A.U. after    9 cycles
 SCF Done:  E(RB3LYP) =  -1085.89027698     A.U. after    8 cycles
 SCF Done:  E(RB3LYP) =  -1085.89027719     A.U. after    8 cycles
 SCF Done:  E(RB3LYP) =  -1085.89027734     A.U. after    7 cycles
 SCF Done:  E(RB3LYP) =  -1085.89027741     A.U. after    7 cycles
 Optimization completed.
    -- Stationary point found.

                         Standard orientation:
 ---------------------------------------------------------------------
 Center     Atomic      Atomic             Coordinates (Angstroms)
 Number     Number       Type             X           Y           Z
 ---------------------------------------------------------------------
      1          8           0        1.215409   -3.060670    0.549731
      2          6           0        1.152805   -1.887754    0.195544
      3          7           0       -0.042467   -1.232032   -0.048614
      4          6           0       -1.346522   -1.745273   -0.017428
      5          6           0       -1.652361   -3.084714    0.276262
      6          6           0       -2.977313   -3.516260    0.259074
      7          6           0       -4.022839   -2.641970   -0.041087
      8          6           0       -3.730198   -1.309801   -0.325211
      9          6           0       -2.409663   -0.861392   -0.317750
     10          7           0       -2.127096    0.504163   -0.638219
     11          6           0       -2.120263    1.070089   -1.903802
     12          7           0       -1.850015    2.347711   -1.919534
     13          6           0       -1.667851    2.685077   -0.582677
     14          6           0       -1.360564    3.923130   -0.003482
     15          6           0       -1.236461    3.984190    1.380448
     16          6           0       -1.413898    2.840453    2.185998
     17          6           0       -1.720067    1.599593    1.633317
     18          6           0       -1.840148    1.548630    0.242786
     19          6           0        2.383192   -1.055193    0.011654
     20          6           0        3.562057   -1.523669    0.608925
     21          6           0        4.753859   -0.820054    0.489800
     22          6           0        4.789668    0.370334   -0.248065
     23          8           0        5.925078    1.106231   -0.404533
     24          6           0        3.626391    0.842853   -0.867727
     25          6           0        2.438968    0.133622   -0.736359
     26          1           0        0.014283   -0.235455   -0.204958
     27          1           0       -0.844626   -3.762978    0.509830
     28          1           0       -3.189996   -4.557187    0.486889
     29          1           0       -5.051567   -2.988683   -0.049501
     30          1           0       -4.517813   -0.598036   -0.554097
     31          1           0       -2.321332    0.457277   -2.774009
     32          1           0       -1.228554    4.800558   -0.629015
     33          1           0       -0.998882    4.931967    1.855352
     34          1           0       -1.311363    2.929030    3.263906
     35          1           0       -1.863216    0.719002    2.252157
     36          1           0        3.521842   -2.452452    1.167854
     37          1           0        5.658856   -1.192213    0.966663
     38          1           0        6.655306    0.669725    0.061887
     39          1           0        3.674175    1.756036   -1.451620
     40          1           0        1.563282    0.508667   -1.259669
 ---------------------------------------------------------------------

 The electronic state is 1-A.
 Alpha  occ. eigenvalues --  -19.19476 -19.12363 -14.40098 -14.38279 -14.32125
 Alpha  occ. eigenvalues --  -10.30118 -10.26713 -10.25573 -10.25258 -10.24396
 Alpha  occ. eigenvalues --  -10.22724 -10.21119 -10.21083 -10.20725 -10.20466
 Alpha  occ. eigenvalues --  -10.20409 -10.20313 -10.20145 -10.19890 -10.19816
 Alpha  occ. eigenvalues --  -10.19725 -10.19345 -10.19179 -10.18949 -10.18767
 Alpha  occ. eigenvalues --   -1.07588  -1.04371  -1.02565  -0.95197  -0.90159
 Alpha  occ. eigenvalues --   -0.86548  -0.85170  -0.84374  -0.77437  -0.76425
 Alpha  occ. eigenvalues --   -0.76257  -0.74654  -0.73912  -0.73503  -0.66411
 Alpha  occ. eigenvalues --   -0.64805  -0.64188  -0.63236  -0.61415  -0.60160
 Alpha  occ. eigenvalues --   -0.58627  -0.58022  -0.56094  -0.55349  -0.53494
 Alpha  occ. eigenvalues --   -0.52110  -0.50392  -0.48455  -0.48211  -0.47183
 Alpha  occ. eigenvalues --   -0.46990  -0.45459  -0.44536  -0.44258  -0.43802
 Alpha  occ. eigenvalues --   -0.43598  -0.43307  -0.43219  -0.42744  -0.41897
 Alpha  occ. eigenvalues --   -0.41539  -0.40382  -0.38647  -0.38260  -0.37787
 Alpha  occ. eigenvalues --   -0.36945  -0.36743  -0.35491  -0.35121  -0.34320
 Alpha  occ. eigenvalues --   -0.34077  -0.31502  -0.30605  -0.28057  -0.26675
 Alpha  occ. eigenvalues --   -0.26134  -0.26045  -0.23848  -0.23278  -0.22866
 Alpha  occ. eigenvalues --   -0.22523
 Alpha virt. eigenvalues --   -0.04363  -0.01910  -0.01764  -0.01523   0.00126
 Alpha virt. eigenvalues --    0.01690   0.04865   0.05622   0.06634   0.07863
 Alpha virt. eigenvalues --    0.09129   0.10086   0.10847   0.13587   0.14283

 Mulliken charges:
               1
     1  O   -0.514247
     2  C    0.581715
     3  N   -0.771630
     4  C    0.373999
     5  C   -0.180737
     6  C   -0.131152
     7  C   -0.143932
     8  C   -0.141858
     9  C    0.173995
    10  N   -0.609729
    11  C    0.203907
    12  N   -0.496212
    13  C    0.226806
    14  C   -0.177080
    15  C   -0.140846
    16  C   -0.150237
    17  C   -0.170836
    18  C    0.283221
    19  C    0.056347
    20  C   -0.157950
    21  C   -0.199101
    22  C    0.361527
    23  O   -0.632844
    24  C   -0.163826
    25  C   -0.193876
    26  H    0.362022
    27  H    0.197222
    28  H    0.140539
    29  H    0.137658
    30  H    0.149635
    31  H    0.169574
    32  H    0.142144
    33  H    0.128857
    34  H    0.131451
    35  H    0.145750
    36  H    0.167711
    37  H    0.129269
    38  H    0.412682
    39  H    0.153315
    40  H    0.146750
 Sum of Mulliken charges =  -0.00000

 Dipole moment (field-independent basis, Debye):
    X=              1.2111    Y=             -0.5693    Z=              1.4550  Tot=              1.9769
 Quadrupole moment (field-independent basis, Debye-Ang):
   XX=           -113.7294   YY=           -148.7620   ZZ=           -142.5944
   XY=              7.7240   XZ=              4.2416   YZ=              5.9817

 Normal termination of Gaussian 16 at Fri Nov  4 08:44:47 2022.
