 Gaussian 16, Revision B.01,
 Gaussian 16:  ES64L-G16RevB.01 20-Dec-2017

 -----------------------------
 #p b3lyp/6-31g(d) opt SCF=XQC
 -----------------------------

 ------------------------------
 Gaussian input prepared by ASE
 ------------------------------
 Symbolic Z-matrix:
 Charge =  0 Multiplicity = 1

 SCF Done:  E(RB3LYP) =  -1275.02636118     A.U. after   15 cycles
 SCF Done:  E(RB3LYP) =  -1275.02998832     A.U. after   13 cycles
 SCF Done:  E(RB3LYP) =  -1275.03116764     A.U. after   14 cycles
 SCF Done:  E(RB3LYP) =  -1275.03229837     A.U. after   12 cycles
 SCF Done:  E(RB3LYP) =  -1275.03277462     A.U. after   12 cycles
 SCF Done:  E(RB3LYP) =  -1275.03282351     A.U. after   11 cycles
 SCF Done:  E(RB3LYP) =  -1275.03294236     A.U. after   10 cycles
 SCF Done:  E(RB3LYP) =  -1275.03296049     A.U. after   10 cycles
 SCF Done:  E(RB3LYP) =  -1275.03297831     A.U. after   10 cycles
 SCF Done:  E(RB3LYP) =  -1275.03298563     A.U. after    9 cycles
 SCF Done:  E(RB3LYP) =  -1275.03298756     A.U. after    9 cycles
 SCF Done:  E(RB3LYP) =  -1275.03298827     A.U. after    9 cycles
 SCF Done:  E(RB3LYP) =  -1275.03298862     A.U. after    8 cycles
 SCF Done:  E(RB3LYP) =  -1275.03298872     A.U. after    7 cycles
 SCF Done:  E(RB3LYP) =  -1275.03298875     A.U. after    7 cycles
 Optimization completed.
    -- Stationary point found.

                         Standard orientation:
 ---------------------------------------------------------------------
 Center     Atomic      Atomic             Coordinates (Angstroms)
 Number     Number       Type             X           Y           Z
 ---------------------------------------------------------------------
      1          8           0        4.231606    2.169410    2.059250
      2          6           0        3.535775    1.487393    1.309102
      3          7           0        3.676062    0.124612    1.275821
      4          6           0        3.186624   -0.836805    0.296089
      5          6           0        4.275909   -1.792086   -0.158787
      6          6           0        4.037205   -3.170368   -0.190052
      7          6           0        5.019198   -4.057364   -0.636571
      8          6           0        6.259918   -3.573837   -1.052056
      9          6           0        6.511224   -2.199643   -1.019199
     10          6           0        5.527059   -1.316765   -0.576545
     11          6           0        2.526999    2.138549    0.403757
     12          6           0        2.903708    3.325725   -0.237339
     13          6           0        2.019596    4.051628   -1.045503
     14          6           0        0.696203    3.640427   -1.221214
     15          6           0        0.308467    2.481579   -0.558931
     16          7           0       -0.907970    1.816002   -0.479430
     17          6           0       -0.704990    0.741363    0.340592
     18          7           0       -1.690721   -0.163621    0.675751
     19          6           0       -3.029103   -0.191452    0.310487
     20          6           0       -3.859618   -1.197516    0.789405
     21          6           0       -5.216342   -1.216531    0.409031
     22          6           0       -6.144969   -2.203183    0.846066
     23          6           0       -7.455261   -2.155071    0.431013
     24          6           0       -7.913393   -1.128360   -0.437457
     25          6           0       -7.041314   -0.160705   -0.877097
     26          6           0       -5.682662   -0.183503   -0.466121
     27          6           0       -4.737944    0.782460   -0.882638
     28          7           0       -3.468484    0.794217   -0.522358
     29          7           0        0.524779    0.630683    0.798442
     30          6           0        1.193233    1.715969    0.247342
     31          1           0        4.359987   -0.209186    1.945210
     32          1           0        2.803130   -0.272879   -0.559502
     33          1           0        2.335885   -1.399515    0.697720
     34          1           0        3.073367   -3.552106    0.140028
     35          1           0        4.816268   -5.125162   -0.652141
     36          1           0        7.028036   -4.261687   -1.395567
     37          1           0        7.476052   -1.814985   -1.339631
     38          1           0        5.728638   -0.248955   -0.547556
     39          1           0        3.916461    3.684769   -0.085747
     40          1           0        2.366050    4.957034   -1.535306
     41          1           0        0.003562    4.207496   -1.836618
     42          1           0       -1.813224    2.024571   -0.884945
     43          1           0       -1.360801   -0.880824    1.307221
     44          1           0       -3.470447   -1.965448    1.452913
     45          1           0       -5.803589   -2.992368    1.510889
     46          1           0       -8.155344   -2.913465    0.771154
     47          1           0       -8.953346   -1.113897   -0.749688
     48          1           0       -7.377570    0.631493   -1.541823
     49          1           0       -5.054766    1.585185   -1.548443
 ---------------------------------------------------------------------

 The electronic state is 1-A.
 Alpha  occ. eigenvalues --  -19.08674 -14.39207 -14.37940 -14.35694 -14.33915
 Alpha  occ. eigenvalues --  -14.30947 -10.29369 -10.28730 -10.26775 -10.25090
 Alpha  occ. eigenvalues --  -10.22777 -10.21967 -10.21716 -10.21544 -10.21538
 Alpha  occ. eigenvalues --  -10.21397 -10.21149 -10.21074 -10.20986 -10.20880
 Alpha  occ. eigenvalues --  -10.19219 -10.18956 -10.18697 -10.18624 -10.18573
 Alpha  occ. eigenvalues --  -10.18558 -10.18525 -10.18348 -10.17982 -10.17618
 Alpha  occ. eigenvalues --   -1.03367  -1.00682  -0.98603  -0.93562  -0.90219
 Alpha  occ. eigenvalues --   -0.87894  -0.87330  -0.84668  -0.83587  -0.80627
 Alpha  occ. eigenvalues --   -0.78409  -0.75937  -0.75704  -0.74460  -0.73913
 Alpha  occ. eigenvalues --   -0.72037  -0.67845  -0.67481  -0.65999  -0.63351
 Alpha  occ. eigenvalues --   -0.62810  -0.61000  -0.60548  -0.60080  -0.58469
 Alpha  occ. eigenvalues --   -0.58185  -0.56292  -0.54865  -0.53025  -0.51525
 Alpha  occ. eigenvalues --   -0.51218  -0.49993  -0.49644  -0.48033  -0.47343
 Alpha  occ. eigenvalues --   -0.46880  -0.46533  -0.45749  -0.45685  -0.44993
 Alpha  occ. eigenvalues --   -0.44344  -0.43992  -0.43458  -0.43160  -0.42641
 Alpha  occ. eigenvalues --   -0.42062  -0.41666  -0.40879  -0.39840  -0.38757
 Alpha  occ. eigenvalues --   -0.38680  -0.38410  -0.37170  -0.36197  -0.35534
 Alpha  occ. eigenvalues --   -0.35423  -0.35176  -0.34816  -0.33894  -0.33545
 Alpha  occ. eigenvalues --   -0.32367  -0.30475  -0.29552  -0.29201  -0.27730
 Alpha  occ. eigenvalues --   -0.27202  -0.24929  -0.24596  -0.23910  -0.23393
 Alpha  occ. eigenvalues --   -0.22398  -0.21334  -0.19599
 Alpha virt. eigenvalues --   -0.06865  -0.03657  -0.00980   0.00030   0.00382
 Alpha virt. eigenvalues --    0.00976   0.02875   0.05688   0.07052   0.07547
 Alpha virt. eigenvalues --    0.08262   0.09452   0.09794   0.10184   0.10699

 Mulliken charges:
               1
     1  O   -0.514042
     2  C    0.517019
     3  N   -0.582469
     4  C   -0.183881
     5  C    0.134048
     6  C   -0.185726
     7  C   -0.126853
     8  C   -0.129418
     9  C   -0.129452
    10  C   -0.171929
    11  C    0.000694
    12  C   -0.170679
    13  C   -0.157690
    14  C   -0.170394
    15  C    0.361866
    16  N   -0.745654
    17  C    0.758537
    18  N   -0.774162
    19  C    0.589604
    20  C   -0.291835
    21  C    0.181897
    22  C   -0.189732
    23  C   -0.127867
    24  C   -0.139487
    25  C   -0.184916
    26  C    0.088734
    27  C    0.011238
    28  N   -0.547054
    29  N   -0.599504
    30  C    0.204713
    31  H    0.324311
    32  H    0.176795
    33  H    0.159983
    34  H    0.122039
    35  H    0.127527
    36  H    0.128387
    37  H    0.131505
    38  H    0.141139
    39  H    0.146010
    40  H    0.127241
    41  H    0.128154
    42  H    0.357720
    43  H    0.352402
    44  H    0.136907
    45  H    0.138560
    46  H    0.142596
    47  H    0.140523
    48  H    0.142072
    49  H    0.150522
 Sum of Mulliken charges =  -0.00000

 Dipole moment (field-independent basis, Debye):
    X=             -7.6508    Y=             -3.7727    Z=             -2.8124  Tot=              8.9821
 Quadrupole moment (field-independent basis, Debye-Ang):
   XX=           -144.4752   YY=           -162.3869   ZZ=           -175.9507
   XY=             -8.7082   XZ=             -9.9126   YZ=            -17.3907

 Normal termination of Gaussian 16 at Fri Nov  4 21:45:34 2022.
