 Gaussian 16, Revision B.01,
 Gaussian 16:  ES64L-G16RevB.01 20-Dec-2017

 -------------------------------------------------------------------
 #p b3lyp/6-31g(d) 6D 10F nosymm GFInput td=(50-50,nstate=2) SCF=XQC
 -------------------------------------------------------------------

 ------------------------------
 Gaussian input prepared by ASE
 ------------------------------
 Symbolic Z-matrix:
 Charge =  0 Multiplicity = 1

                          Input orientation:
 ---------------------------------------------------------------------
 Center     Atomic      Atomic             Coordinates (Angstroms)
 Number     Number       Type             X           Y           Z
 ---------------------------------------------------------------------
      1          8           0        3.480726   -2.449643   -3.167831
      2          6           0        3.000406   -1.850349   -2.207524
      3          7           0        3.387424   -0.566985   -1.922647
      4          6           0        3.183067    0.218833   -0.712492
      5          6           0        4.467953    0.869881   -0.231635
      6          6           0        4.486855    2.227314    0.106945
      7          6           0        5.653590    2.831060    0.580944
      8          6           0        6.822432    2.081692    0.715359
      9          6           0        6.816431    0.726594    0.374303
     10          6           0        5.648714    0.126300   -0.094824
     11          6           0        1.988884   -2.520693   -1.319412
     12          6           0        2.208540   -3.863606   -0.986787
     13          6           0        1.295469   -4.603830   -0.225153
     14          6           0        0.093371   -4.041577    0.210923
     15          6           0       -0.144367   -2.719571   -0.146378
     16          7           0       -1.222055   -1.872672    0.078088
     17          6           0       -0.913401   -0.688494   -0.530962
     18          7           0       -1.748385    0.409566   -0.538690
     19          6           0       -3.014996    0.563169    0.006800
     20          6           0       -3.694638    1.766211   -0.141724
     21          6           0       -4.979234    1.910836    0.419207
     22          6           0       -5.754055    3.101150    0.321041
     23          6           0       -7.001809    3.166296    0.895771
     24          6           0       -7.546401    2.057116    1.596771
     25          6           0       -6.823191    0.893282    1.709099
     26          6           0       -5.532291    0.795369    1.126563
     27          6           0       -4.740097   -0.372991    1.206725
     28          7           0       -3.537484   -0.501539    0.678837
     29          7           0        0.262508   -0.671483   -1.123546
     30          6           0        0.776717   -1.941625   -0.898342
     31          1           0        4.048039   -0.203951   -2.600180
     32          1           0        2.793828   -0.453385    0.058049
     33          1           0        2.411423    0.981005   -0.871749
     34          1           0        3.579209    2.816953   -0.003349
     35          1           0        5.649741    3.887399    0.837356
     36          1           0        7.733386    2.549472    1.079348
     37          1           0        7.723527    0.136116    0.474518
     38          1           0        5.649862   -0.926885   -0.364067
     39          1           0        3.118691   -4.332832   -1.345972
     40          1           0        1.520942   -5.637362    0.021162
     41          1           0       -0.623485   -4.616018    0.790732
     42          1           0       -2.103610   -2.022683    0.555358
     43          1           0       -1.360831    1.188310   -1.053804
     44          1           0       -3.243246    2.591692   -0.686006
     45          1           0       -5.345701    3.954790   -0.213645
     46          1           0       -7.584400    4.080040    0.814328
     47          1           0       -8.534194    2.135454    2.040986
     48          1           0       -7.227086    0.035967    2.242379
     49          1           0       -5.126776   -1.243691    1.736254
 ---------------------------------------------------------------------

 SCF Done:  E(RB3LYP) =  -1275.03299299     A.U. after   16 cycles

 Excitation energies and oscillator strengths:

 Excited state symmetry could not be determined.
 Excited State   1:      Triplet-?Sym    2.3320 eV  531.67 nm  f=0.0000  <S**2>=2.000
      99 ->104         0.35173
     103 ->104         0.57581
 This state for optimization and/or second-order correction.
 Total Energy, E(TD-HF/TD-DFT) =  -1274.94729464
 Copying the excited state density for this state as the 1-particle RhoCI density.

 Excited state symmetry could not be determined.
 Excited State   2:      Singlet-?Sym    3.0017 eV  413.05 nm  f=0.0242  <S**2>=0.000
     103 ->104         0.70157

 Excited state symmetry could not be determined.
 Excited State   3:      Triplet-?Sym    3.1624 eV  392.06 nm  f=0.0000  <S**2>=2.000
      96 ->104        -0.16351
      99 ->104        -0.13077
      99 ->106         0.10273
     102 ->106         0.13299
     103 ->104         0.23838
     103 ->105         0.56332

 Excited state symmetry could not be determined.
 Excited State   4:      Singlet-?Sym    3.5599 eV  348.28 nm  f=0.0011  <S**2>=0.000
     102 ->104         0.70101

 Alpha  occ. eigenvalues --  -19.08674 -14.39207 -14.37940 -14.35695 -14.33915
 Alpha  occ. eigenvalues --  -14.30946 -10.29369 -10.28730 -10.26775 -10.25090
 Alpha  occ. eigenvalues --  -10.22777 -10.21967 -10.21715 -10.21544 -10.21538
 Alpha  occ. eigenvalues --  -10.21397 -10.21149 -10.21074 -10.20986 -10.20880
 Alpha  occ. eigenvalues --  -10.19219 -10.18956 -10.18697 -10.18624 -10.18573
 Alpha  occ. eigenvalues --  -10.18558 -10.18525 -10.18348 -10.17982 -10.17618
 Alpha  occ. eigenvalues --   -1.03367  -1.00682  -0.98603  -0.93562  -0.90219
 Alpha  occ. eigenvalues --   -0.87894  -0.87330  -0.84668  -0.83587  -0.80627
 Alpha  occ. eigenvalues --   -0.78409  -0.75937  -0.75704  -0.74460  -0.73913
 Alpha  occ. eigenvalues --   -0.72037  -0.67845  -0.67481  -0.65999  -0.63351
 Alpha  occ. eigenvalues --   -0.62810  -0.61000  -0.60548  -0.60080  -0.58469
 Alpha  occ. eigenvalues --   -0.58185  -0.56292  -0.54865  -0.53025  -0.51525
 Alpha  occ. eigenvalues --   -0.51218  -0.49993  -0.49644  -0.48033  -0.47343
 Alpha  occ. eigenvalues --   -0.46880  -0.46533  -0.45749  -0.45685  -0.44993
 Alpha  occ. eigenvalues --   -0.44344  -0.43992  -0.43458  -0.43160  -0.42641
 Alpha  occ. eigenvalues --   -0.42062  -0.41666  -0.40879  -0.39840  -0.38757
 Alpha  occ. eigenvalues --   -0.38680  -0.38410  -0.37170  -0.36197  -0.35534
 Alpha  occ. eigenvalues --   -0.35423  -0.35176  -0.34816  -0.33894  -0.33545
 Alpha  occ. eigenvalues --   -0.32367  -0.30475  -0.29552  -0.29201  -0.27730
 Alpha  occ. eigenvalues --   -0.27202  -0.24929  -0.24596  -0.23910  -0.23393
 Alpha  occ. eigenvalues --   -0.22398  -0.21334  -0.19599
 Alpha virt. eigenvalues --   -0.06865  -0.03657  -0.00980   0.00030   0.00382
 Alpha virt. eigenvalues --    0.00976   0.02875   0.05688   0.07052   0.07547
 Alpha virt. eigenvalues --    0.08262   0.09453   0.09794   0.10184   0.10699

 Mulliken charges:
               1
     1  O   -0.514044
     2  C    0.517023
     3  N   -0.582470
     4  C   -0.183883
     5  C    0.134050
     6  C   -0.185728
     7  C   -0.126852
     8  C   -0.129419
     9  C   -0.129451
    10  C   -0.171928
    11  C    0.000688
    12  C   -0.170678
    13  C   -0.157691
    14  C   -0.170392
    15  C    0.361870
    16  N   -0.745655
    17  C    0.758552
    18  N   -0.774173
    19  C    0.589592
    20  C   -0.291827
    21  C    0.181913
    22  C   -0.189745
    23  C   -0.127873
    24  C   -0.139481
    25  C   -0.184926
    26  C    0.088737
    27  C    0.011241
    28  N   -0.547052
    29  N   -0.599515
    30  C    0.204718
    31  H    0.324312
    32  H    0.176796
    33  H    0.159984
    34  H    0.122039
    35  H    0.127527
    36  H    0.128388
    37  H    0.131505
    38  H    0.141137
    39  H    0.146009
    40  H    0.127241
    41  H    0.128154
    42  H    0.357719
    43  H    0.352402
    44  H    0.136907
    45  H    0.138561
    46  H    0.142597
    47  H    0.140524
    48  H    0.142074
    49  H    0.150522
 Sum of Mulliken charges =  -0.00000

 Dipole moment (field-independent basis, Debye):
    X=             -6.5129    Y=              4.1986    Z=              4.5423  Tot=              8.9821
 Quadrupole moment (field-independent basis, Debye-Ang):
   XX=           -140.2528   YY=           -158.4895   ZZ=           -186.0552
   XY=              3.0361   XZ=              4.2896   YZ=            -16.1681

 Normal termination of Gaussian 16 at Sat Nov  5 09:36:57 2022.
