 Gaussian 16, Revision B.01,
 Gaussian 16:  ES64L-G16RevB.01 20-Dec-2017

 -------------------------------------------------------------------
 #p b3lyp/6-31g(d) 6D 10F nosymm GFInput td=(50-50,nstate=2) SCF=XQC
 -------------------------------------------------------------------

 ------------------------------
 Gaussian input prepared by ASE
 ------------------------------
 Symbolic Z-matrix:
 Charge =  0 Multiplicity = 1

                          Input orientation:
 ---------------------------------------------------------------------
 Center     Atomic      Atomic             Coordinates (Angstroms)
 Number     Number       Type             X           Y           Z
 ---------------------------------------------------------------------
      1          6           0       -1.696821    4.567440   -1.431379
      2          6           0       -1.056532    3.272577   -1.052653
      3          7           0       -1.684406    2.227121   -0.567163
      4          6           0       -0.701880    1.268123   -0.365802
      5          6           0       -0.815022   -0.038990    0.145039
      6          6           0       -2.127415   -0.604774    0.568315
      7          6           0       -3.124630   -0.940056   -0.369724
      8          6           0       -2.943457   -0.721328   -1.848498
      9          7           0       -4.296214   -1.470943    0.017169
     10          6           0       -4.464682   -1.654756    1.326992
     11          7           0       -3.604375   -1.361716    2.301561
     12          6           0       -2.428659   -0.830003    1.924812
     13          6           0       -1.473076   -0.479339    3.038256
     14          6           0        0.363203   -0.784985    0.231112
     15          6           0        1.628710   -0.283415   -0.160054
     16          6           0        2.829074   -1.135616   -0.053966
     17          6           0        3.288773   -1.898228    1.077414
     18          6           0        2.673264   -2.025112    2.437792
     19          7           0        4.415978   -2.519890    0.820133
     20          8           0        4.734355   -2.194713   -0.505866
     21          6           0        3.786990   -1.374557   -1.005307
     22          6           0        3.957459   -0.951183   -2.424075
     23          6           0        1.735866    1.023553   -0.655907
     24          6           0        0.563336    1.768673   -0.752931
     25          7           0        0.302665    3.057482   -1.185557
     26          1           0       -1.294976    5.402370   -0.843933
     27          1           0       -1.539833    4.800527   -2.491862
     28          1           0       -2.769629    4.496050   -1.245095
     29          1           0       -1.978254   -1.105153   -2.196547
     30          1           0       -2.968703    0.351007   -2.075196
     31          1           0       -3.751794   -1.218116   -2.388689
     32          1           0       -5.414053   -2.090366    1.635412
     33          1           0       -0.650365   -1.202144    3.099859
     34          1           0       -1.023701    0.507090    2.885619
     35          1           0       -2.011796   -0.495451    3.987923
     36          1           0        0.302350   -1.808530    0.588507
     37          1           0        3.376925   -2.513464    3.116516
     38          1           0        1.755569   -2.623780    2.409410
     39          1           0        2.411949   -1.041363    2.842248
     40          1           0        4.796809   -0.253777   -2.536356
     41          1           0        4.165423   -1.818988   -3.059445
     42          1           0        3.049305   -0.460554   -2.782401
     43          1           0        2.703310    1.435166   -0.927437
     44          1           0        0.978961    3.724110   -1.528247
 ---------------------------------------------------------------------

 SCF Done:  E(RB3LYP) =  -1084.45192575     A.U. after   15 cycles

 Excitation energies and oscillator strengths:

 Excited state symmetry could not be determined.
 Excited State   1:      Triplet-?Sym    3.2426 eV  382.36 nm  f=0.0000  <S**2>=2.000
      84 -> 89        -0.10287
      86 -> 89        -0.15849
      87 -> 91         0.11640
      88 -> 89         0.59955
      88 -> 91        -0.15498
 This state for optimization and/or second-order correction.
 Total Energy, E(TD-HF/TD-DFT) =  -1084.33276161
 Copying the excited state density for this state as the 1-particle RhoCI density.

 Excited state symmetry could not be determined.
 Excited State   2:      Triplet-?Sym    3.8089 eV  325.51 nm  f=0.0000  <S**2>=2.000
      81 -> 90         0.10666
      84 -> 91         0.17670
      84 -> 93         0.10525
      85 -> 92        -0.24847
      86 -> 89        -0.20268
      87 -> 89         0.40270
      88 -> 90        -0.10888
      88 -> 91         0.28546
      88 -> 92        -0.15136

 Excited state symmetry could not be determined.
 Excited State   3:      Singlet-?Sym    4.3698 eV  283.73 nm  f=0.0652  <S**2>=0.000
      86 -> 89         0.17158
      86 -> 91         0.12355
      87 -> 89         0.27343
      87 -> 91         0.25590
      87 -> 92         0.12771
      88 -> 89         0.46695
      88 -> 91         0.21583
      88 -> 92         0.10836

 Excited state symmetry could not be determined.
 Excited State   4:      Singlet-?Sym    4.4261 eV  280.12 nm  f=0.0004  <S**2>=0.000
      86 -> 90         0.24907
      87 -> 90         0.44709
      87 -> 91         0.10995
      88 -> 90         0.43845

 Alpha  occ. eigenvalues --  -19.22583 -14.40234 -14.36987 -14.32549 -14.32197
 Alpha  occ. eigenvalues --  -14.32141 -10.27255 -10.25801 -10.23982 -10.23819
 Alpha  occ. eigenvalues --  -10.23640 -10.23536 -10.22706 -10.21924 -10.21506
 Alpha  occ. eigenvalues --  -10.21093 -10.20933 -10.20769 -10.20630 -10.20152
 Alpha  occ. eigenvalues --  -10.19922 -10.19728 -10.19413 -10.18035 -10.17439
 Alpha  occ. eigenvalues --   -1.13132  -1.02857  -0.97169  -0.89137  -0.87987
 Alpha  occ. eigenvalues --   -0.87510  -0.86567  -0.82182  -0.80443  -0.77814
 Alpha  occ. eigenvalues --   -0.75142  -0.73419  -0.73262  -0.72389  -0.70715
 Alpha  occ. eigenvalues --   -0.69524  -0.64958  -0.63003  -0.62175  -0.61022
 Alpha  occ. eigenvalues --   -0.58768  -0.57996  -0.55550  -0.54303  -0.52079
 Alpha  occ. eigenvalues --   -0.51650  -0.48986  -0.48345  -0.47676  -0.47077
 Alpha  occ. eigenvalues --   -0.46862  -0.45498  -0.45156  -0.43269  -0.43042
 Alpha  occ. eigenvalues --   -0.43020  -0.42481  -0.42081  -0.41671  -0.41415
 Alpha  occ. eigenvalues --   -0.41100  -0.40766  -0.40407  -0.39597  -0.38738
 Alpha  occ. eigenvalues --   -0.38473  -0.37804  -0.37475  -0.37106  -0.36720
 Alpha  occ. eigenvalues --   -0.36634  -0.34964  -0.31825  -0.29791  -0.28952
 Alpha  occ. eigenvalues --   -0.28714  -0.28311  -0.27826  -0.26244  -0.25933
 Alpha  occ. eigenvalues --   -0.24634  -0.23100  -0.21984
 Alpha virt. eigenvalues --   -0.03714  -0.02010  -0.01633  -0.00499   0.00676
 Alpha virt. eigenvalues --    0.03651   0.05942   0.06959   0.07899   0.09325
 Alpha virt. eigenvalues --    0.10809   0.11371   0.12920   0.13148   0.13439

 Mulliken charges:
               1
     1  C   -0.539482
     2  C    0.508992
     3  N   -0.539350
     4  C    0.190601
     5  C   -0.013831
     6  C    0.013087
     7  C    0.308423
     8  C   -0.527329
     9  N   -0.447890
    10  C    0.167679
    11  N   -0.447212
    12  C    0.294915
    13  C   -0.519802
    14  C   -0.238494
    15  C    0.084824
    16  C   -0.126625
    17  C    0.314594
    18  C   -0.526355
    19  N   -0.233089
    20  O   -0.375853
    21  C    0.383462
    22  C   -0.528894
    23  C   -0.231275
    24  C    0.375554
    25  N   -0.735479
    26  H    0.172188
    27  H    0.170880
    28  H    0.202161
    29  H    0.159343
    30  H    0.188717
    31  H    0.173006
    32  H    0.145828
    33  H    0.165157
    34  H    0.168104
    35  H    0.178101
    36  H    0.135082
    37  H    0.183599
    38  H    0.172417
    39  H    0.171889
    40  H    0.176992
    41  H    0.184965
    42  H    0.175747
    43  H    0.133232
    44  H    0.331421
 Sum of Mulliken charges =  -0.00000

 Dipole moment (field-independent basis, Debye):
    X=              2.2774    Y=              5.9615    Z=             -3.1349  Tot=              7.1101
 Quadrupole moment (field-independent basis, Debye-Ang):
   XX=           -172.8486   YY=           -131.1979   ZZ=           -137.3005
   XY=             10.2879   XZ=             -3.7604   YZ=             -6.6812

 Normal termination of Gaussian 16 at Sat Nov  5 09:39:57 2022.
