 Gaussian 16, Revision B.01,
 Gaussian 16:  ES64L-G16RevB.01 20-Dec-2017

 -----------------------------
 #p b3lyp/6-31g(d) opt SCF=XQC
 -----------------------------

 ------------------------------
 Gaussian input prepared by ASE
 ------------------------------
 Symbolic Z-matrix:
 Charge =  0 Multiplicity = 1

 SCF Done:  E(RB3LYP) =  -1084.44449235     A.U. after   15 cycles
 SCF Done:  E(RB3LYP) =  -1084.45088046     A.U. after   13 cycles
 SCF Done:  E(RB3LYP) =  -1084.45146945     A.U. after   12 cycles
 SCF Done:  E(RB3LYP) =  -1084.45169089     A.U. after   12 cycles
 SCF Done:  E(RB3LYP) =  -1084.45176590     A.U. after   10 cycles
 SCF Done:  E(RB3LYP) =  -1084.45180994     A.U. after   10 cycles
 SCF Done:  E(RB3LYP) =  -1084.45185516     A.U. after   10 cycles
 SCF Done:  E(RB3LYP) =  -1084.45189804     A.U. after   10 cycles
 SCF Done:  E(RB3LYP) =  -1084.45191745     A.U. after   10 cycles
 SCF Done:  E(RB3LYP) =  -1084.45192542     A.U. after    9 cycles
 SCF Done:  E(RB3LYP) =  -1084.45193412     A.U. after    9 cycles
 SCF Done:  E(RB3LYP) =  -1084.45193469     A.U. after    8 cycles
 SCF Done:  E(RB3LYP) =  -1084.45193479     A.U. after    7 cycles
 SCF Done:  E(RB3LYP) =  -1084.45193487     A.U. after    7 cycles
 SCF Done:  E(RB3LYP) =  -1084.45193493     A.U. after    7 cycles
 SCF Done:  E(RB3LYP) =  -1084.45193499     A.U. after    6 cycles
 SCF Done:  E(RB3LYP) =  -1084.45193504     A.U. after    7 cycles
 SCF Done:  E(RB3LYP) =  -1084.45193508     A.U. after    7 cycles
 SCF Done:  E(RB3LYP) =  -1084.45193511     A.U. after    7 cycles
 SCF Done:  E(RB3LYP) =  -1084.45193513     A.U. after    6 cycles
 Optimization completed.
    -- Stationary point found.

                         Standard orientation:
 ---------------------------------------------------------------------
 Center     Atomic      Atomic             Coordinates (Angstroms)
 Number     Number       Type             X           Y           Z
 ---------------------------------------------------------------------
      1          6           0        2.779180    4.331565   -0.906364
      2          6           0        1.851672    3.186101   -0.666120
      3          7           0        2.217888    1.952922   -0.405238
      4          6           0        1.035897    1.241114   -0.257571
      5          6           0        0.839903   -0.124887    0.021592
      6          6           0        1.985865   -1.058562    0.213086
      7          6           0        2.807372   -0.995340    1.356720
      8          6           0        2.602340    0.032377    2.438014
      9          7           0        3.824296   -1.854819    1.533635
     10          6           0        4.016160   -2.758505    0.572207
     11          7           0        3.318054   -2.901267   -0.553872
     12          6           0        2.297946   -2.045964   -0.740435
     13          6           0        1.530784   -2.201153   -2.030101
     14          6           0       -0.483050   -0.564024    0.116914
     15          6           0       -1.598357    0.291123   -0.058888
     16          6           0       -2.968720   -0.241413    0.071068
     17          6           0       -3.541675   -1.402612   -0.558422
     18          6           0       -2.900948   -2.369562   -1.507135
     19          7           0       -4.803573   -1.560303   -0.232852
     20          8           0       -5.104793   -0.505318    0.639873
     21          6           0       -4.009698    0.264605    0.805953
     22          6           0       -4.148458    1.423685    1.732498
     23          6           0       -1.395751    1.647634   -0.349309
     24          6           0       -0.079156    2.093148   -0.436142
     25          7           0        0.477383    3.332789   -0.700144
     26          1           0        2.639698    4.759647   -1.906849
     27          1           0        2.625567    5.135526   -0.175852
     28          1           0        3.806847    3.974675   -0.821248
     29          1           0        1.552402    0.088684    2.745481
     30          1           0        2.888270    1.025205    2.071315
     31          1           0        3.223433   -0.221002    3.299441
     32          1           0        4.838520   -3.456561    0.722628
     33          1           0        0.555362   -2.672844   -1.859352
     34          1           0        1.341086   -1.232420   -2.503227
     35          1           0        2.101845   -2.837144   -2.709623
     36          1           0       -0.665780   -1.605073    0.365718
     37          1           0       -3.665417   -3.013123   -1.949525
     38          1           0       -2.170587   -3.008450   -0.997461
     39          1           0       -2.373124   -1.840487   -2.307831
     40          1           0       -4.786133    2.206265    1.303045
     41          1           0       -4.608569    1.106707    2.674758
     42          1           0       -3.167408    1.854797    1.945901
     43          1           0       -2.239545    2.309097   -0.521292
     44          1           0       -0.024300    4.187807   -0.891101
 ---------------------------------------------------------------------

 The electronic state is 1-A.
 Alpha  occ. eigenvalues --  -19.22583 -14.40234 -14.36987 -14.32549 -14.32197
 Alpha  occ. eigenvalues --  -14.32141 -10.27255 -10.25801 -10.23982 -10.23819
 Alpha  occ. eigenvalues --  -10.23640 -10.23536 -10.22706 -10.21924 -10.21506
 Alpha  occ. eigenvalues --  -10.21093 -10.20933 -10.20769 -10.20630 -10.20152
 Alpha  occ. eigenvalues --  -10.19922 -10.19728 -10.19413 -10.18035 -10.17439
 Alpha  occ. eigenvalues --   -1.13132  -1.02857  -0.97169  -0.89137  -0.87987
 Alpha  occ. eigenvalues --   -0.87510  -0.86567  -0.82182  -0.80443  -0.77814
 Alpha  occ. eigenvalues --   -0.75142  -0.73419  -0.73262  -0.72389  -0.70715
 Alpha  occ. eigenvalues --   -0.69524  -0.64958  -0.63003  -0.62175  -0.61022
 Alpha  occ. eigenvalues --   -0.58768  -0.57996  -0.55550  -0.54303  -0.52079
 Alpha  occ. eigenvalues --   -0.51650  -0.48986  -0.48345  -0.47676  -0.47077
 Alpha  occ. eigenvalues --   -0.46862  -0.45498  -0.45156  -0.43269  -0.43042
 Alpha  occ. eigenvalues --   -0.43020  -0.42481  -0.42081  -0.41671  -0.41415
 Alpha  occ. eigenvalues --   -0.41100  -0.40766  -0.40407  -0.39597  -0.38738
 Alpha  occ. eigenvalues --   -0.38473  -0.37804  -0.37475  -0.37106  -0.36720
 Alpha  occ. eigenvalues --   -0.36634  -0.34965  -0.31825  -0.29791  -0.28952
 Alpha  occ. eigenvalues --   -0.28714  -0.28311  -0.27826  -0.26244  -0.25933
 Alpha  occ. eigenvalues --   -0.24634  -0.23100  -0.21984
 Alpha virt. eigenvalues --   -0.03714  -0.02010  -0.01633  -0.00499   0.00676
 Alpha virt. eigenvalues --    0.03651   0.05942   0.06959   0.07899   0.09325
 Alpha virt. eigenvalues --    0.10809   0.11371   0.12920   0.13148   0.13439

 Mulliken charges:
               1
     1  C   -0.539482
     2  C    0.509000
     3  N   -0.539337
     4  C    0.190595
     5  C   -0.013862
     6  C    0.013129
     7  C    0.308403
     8  C   -0.527325
     9  N   -0.447883
    10  C    0.167676
    11  N   -0.447199
    12  C    0.294885
    13  C   -0.519795
    14  C   -0.238488
    15  C    0.084818
    16  C   -0.126642
    17  C    0.314601
    18  C   -0.526357
    19  N   -0.233091
    20  O   -0.375856
    21  C    0.383467
    22  C   -0.528897
    23  C   -0.231270
    24  C    0.375556
    25  N   -0.735481
    26  H    0.172188
    27  H    0.170881
    28  H    0.202162
    29  H    0.159343
    30  H    0.188716
    31  H    0.173006
    32  H    0.145827
    33  H    0.165156
    34  H    0.168102
    35  H    0.178100
    36  H    0.135086
    37  H    0.183600
    38  H    0.172417
    39  H    0.171890
    40  H    0.176993
    41  H    0.184966
    42  H    0.175748
    43  H    0.133231
    44  H    0.331422
 Sum of Mulliken charges =  -0.00000

 Dipole moment (field-independent basis, Debye):
    X=             -0.8525    Y=              6.9964    Z=             -0.9366  Tot=              7.1101
 Quadrupole moment (field-independent basis, Debye-Ang):
   XX=           -174.9500   YY=           -122.7303   ZZ=           -141.8000
   XY=             -1.2020   XZ=             -3.9859   YZ=             -1.5093

 Normal termination of Gaussian 16 at Fri Nov  4 22:11:01 2022.
