 Gaussian 16, Revision B.01,
 Gaussian 16:  ES64L-G16RevB.01 20-Dec-2017

 -----------------------------
 #p b3lyp/6-31g(d) opt SCF=XQC
 -----------------------------

 ------------------------------
 Gaussian input prepared by ASE
 ------------------------------
 Symbolic Z-matrix:
 Charge =  0 Multiplicity = 1

 SCF Done:  E(RB3LYP) =  -1372.03397931     A.U. after   16 cycles
 SCF Done:  E(RB3LYP) =  -1372.04621926     A.U. after   14 cycles
 SCF Done:  E(RB3LYP) =  -1372.04163226     A.U. after   15 cycles
 SCF Done:  E(RB3LYP) =  -1372.05000525     A.U. after   13 cycles
 SCF Done:  E(RB3LYP) =  -1372.05255700     A.U. after   13 cycles
 SCF Done:  E(RB3LYP) =  -1372.05302025     A.U. after   13 cycles
 SCF Done:  E(RB3LYP) =  -1372.05319875     A.U. after   13 cycles
 SCF Done:  E(RB3LYP) =  -1372.05331548     A.U. after   12 cycles
 SCF Done:  E(RB3LYP) =  -1372.05339018     A.U. after   11 cycles
 SCF Done:  E(RB3LYP) =  -1372.05344329     A.U. after   11 cycles
 SCF Done:  E(RB3LYP) =  -1372.05553392     A.U. after    9 cycles
 SCF Done:  E(RB3LYP) =  -1372.05553402     A.U. after    7 cycles
 SCF Done:  E(RB3LYP) =  -1372.05553423     A.U. after    7 cycles
 SCF Done:  E(RB3LYP) =  -1372.05553437     A.U. after    7 cycles
 SCF Done:  E(RB3LYP) =  -1372.05553443     A.U. after    7 cycles
 SCF Done:  E(RB3LYP) =  -1372.05553448     A.U. after    7 cycles
 SCF Done:  E(RB3LYP) =  -1372.05553450     A.U. after    7 cycles
 SCF Done:  E(RB3LYP) =  -1372.05553453     A.U. after    7 cycles
 SCF Done:  E(RB3LYP) =  -1372.05553454     A.U. after    7 cycles
 SCF Done:  E(RB3LYP) =  -1372.05553455     A.U. after    6 cycles
 Optimization completed.
    -- Stationary point found.

                         Standard orientation:
 ---------------------------------------------------------------------
 Center     Atomic      Atomic             Coordinates (Angstroms)
 Number     Number       Type             X           Y           Z
 ---------------------------------------------------------------------
      1          6           0        5.184786   -4.561121   -0.831079
      2          6           0        4.173599   -3.547987   -0.392013
      3          7           0        4.402271   -2.254092   -0.551730
      4          7           0        3.293560   -1.627742   -0.049686
      5          6           0        3.268995   -0.219275   -0.093024
      6          6           0        4.319771    0.475376   -0.744601
      7          6           0        4.256973    1.840572   -0.751605
      8          6           0        3.147537    2.464302   -0.118603
      9          7           0        3.028688    3.829837   -0.098296
     10          6           0        2.141711    4.574670    0.797519
     11          6           0        0.737045    4.845960    0.250306
     12          7           0       -0.077789    3.644722    0.261901
     13          6           0       -1.398644    3.710244   -0.059607
     14          8           0       -1.941825    4.778415   -0.349032
     15          6           0       -2.171200    2.418302   -0.037762
     16          6           0       -3.459142    2.435235   -0.588373
     17          6           0       -4.243380    1.287612   -0.603840
     18          6           0       -3.771212    0.080327   -0.059677
     19          6           0       -4.607744   -1.146119   -0.071734
     20          6           0       -5.429775   -1.448330   -1.170971
     21          6           0       -6.215661   -2.599623   -1.183834
     22          6           0       -6.197838   -3.475825   -0.097053
     23          6           0       -5.386840   -3.189133    1.002600
     24          6           0       -4.601156   -2.037660    1.014805
     25          6           0       -2.482649    0.073440    0.500333
     26          6           0       -1.692730    1.220479    0.511959
     27          7           0        2.181766    1.740103    0.459749
     28          7           0        2.252569    0.402153    0.479897
     29          6           0        2.359806   -2.532868    0.427910
     30          6           0        1.039147   -2.167134    1.027421
     31          6           0        2.907341   -3.785954    0.217839
     32          6           0        2.324698   -5.128399    0.544580
     33          1           0        5.524849   -5.178487    0.010002
     34          1           0        4.767963   -5.243277   -1.582833
     35          1           0        6.054175   -4.060027   -1.264532
     36          1           0        5.128173   -0.080157   -1.200990
     37          1           0        5.031885    2.437867   -1.225075
     38          1           0        3.795682    4.342637   -0.505773
     39          1           0        2.625176    5.537868    0.988985
     40          1           0        2.069321    4.042953    1.753961
     41          1           0        0.252985    5.609348    0.871924
     42          1           0        0.806020    5.265730   -0.763167
     43          1           0        0.414228    2.761326    0.376541
     44          1           0       -3.828938    3.372937   -0.989770
     45          1           0       -5.247552    1.331368   -1.016367
     46          1           0       -5.431936   -0.786629   -2.032625
     47          1           0       -6.837375   -2.816383   -2.048667
     48          1           0       -6.810832   -4.373065   -0.106612
     49          1           0       -5.372444   -3.858941    1.858587
     50          1           0       -3.995301   -1.809981    1.887469
     51          1           0       -2.085285   -0.848808    0.914952
     52          1           0       -0.704966    1.164247    0.960318
     53          1           0        0.429160   -1.576048    0.337531
     54          1           0        0.493242   -3.081180    1.277987
     55          1           0        1.154830   -1.567838    1.935127
     56          1           0        1.333444   -5.044173    0.999385
     57          1           0        2.959915   -5.683983    1.246877
     58          1           0        2.220083   -5.752025   -0.352791
 ---------------------------------------------------------------------

 The electronic state is 1-A.
 Alpha  occ. eigenvalues --  -19.08986 -14.41423 -14.37268 -14.37070 -14.36792
 Alpha  occ. eigenvalues --  -14.34307 -14.33454 -10.27979 -10.27377 -10.26641
 Alpha  occ. eigenvalues --  -10.23749 -10.22764 -10.22726 -10.22421 -10.21617
 Alpha  occ. eigenvalues --  -10.21036 -10.19632 -10.19601 -10.18843 -10.18823
 Alpha  occ. eigenvalues --  -10.18793 -10.18762 -10.18731 -10.18710 -10.18682
 Alpha  occ. eigenvalues --  -10.18678 -10.18646 -10.18580 -10.18499 -10.18329
 Alpha  occ. eigenvalues --  -10.18288 -10.17978  -1.05207  -1.02344  -1.00903
 Alpha  occ. eigenvalues --   -0.95614  -0.90006  -0.86913  -0.86183  -0.84019
 Alpha  occ. eigenvalues --   -0.82838  -0.81059  -0.79839  -0.77591  -0.75202
 Alpha  occ. eigenvalues --   -0.74383  -0.73579  -0.72763  -0.72122  -0.71728
 Alpha  occ. eigenvalues --   -0.69323  -0.67194  -0.65047  -0.63628  -0.61745
 Alpha  occ. eigenvalues --   -0.61113  -0.58585  -0.58522  -0.57563  -0.56663
 Alpha  occ. eigenvalues --   -0.56126  -0.55095  -0.53130  -0.52352  -0.51873
 Alpha  occ. eigenvalues --   -0.51069  -0.49091  -0.47686  -0.47178  -0.46949
 Alpha  occ. eigenvalues --   -0.45629  -0.45005  -0.44529  -0.44161  -0.43603
 Alpha  occ. eigenvalues --   -0.43446  -0.43335  -0.42489  -0.42038  -0.41828
 Alpha  occ. eigenvalues --   -0.41813  -0.41369  -0.41073  -0.40925  -0.40583
 Alpha  occ. eigenvalues --   -0.40378  -0.39491  -0.39364  -0.39058  -0.38392
 Alpha  occ. eigenvalues --   -0.38323  -0.37572  -0.36349  -0.36129  -0.35750
 Alpha  occ. eigenvalues --   -0.34632  -0.33989  -0.33834  -0.33459  -0.33228
 Alpha  occ. eigenvalues --   -0.32696  -0.31263  -0.28743  -0.26698  -0.26210
 Alpha  occ. eigenvalues --   -0.24863  -0.24754  -0.24595  -0.23575  -0.23346
 Alpha  occ. eigenvalues --   -0.22911  -0.21859  -0.21199
 Alpha virt. eigenvalues --   -0.05527  -0.03484  -0.02493   0.00064   0.00602
 Alpha virt. eigenvalues --    0.01691   0.03762   0.05490   0.07013   0.08273
 Alpha virt. eigenvalues --    0.08677   0.09749   0.09870   0.10340   0.11871

 Mulliken charges:
               1
     1  C   -0.524527
     2  C    0.329832
     3  N   -0.376084
     4  N   -0.431540
     5  C    0.526168
     6  C   -0.123857
     7  C   -0.166779
     8  C    0.587858
     9  N   -0.649616
    10  C   -0.176862
    11  C   -0.072638
    12  N   -0.669285
    13  C    0.565375
    14  O   -0.545543
    15  C    0.074448
    16  C   -0.165786
    17  C   -0.183751
    18  C    0.098114
    19  C    0.088159
    20  C   -0.172860
    21  C   -0.133973
    22  C   -0.126642
    23  C   -0.134344
    24  C   -0.173577
    25  C   -0.192345
    26  C   -0.204317
    27  N   -0.408763
    28  N   -0.364123
    29  C    0.351652
    30  C   -0.501858
    31  C   -0.035300
    32  C   -0.540869
    33  H    0.160787
    34  H    0.161176
    35  H    0.171234
    36  H    0.194379
    37  H    0.149596
    38  H    0.328606
    39  H    0.152234
    40  H    0.178320
    41  H    0.162955
    42  H    0.152524
    43  H    0.395825
    44  H    0.161615
    45  H    0.133699
    46  H    0.134574
    47  H    0.130403
    48  H    0.128835
    49  H    0.129188
    50  H    0.132707
    51  H    0.134473
    52  H    0.162100
    53  H    0.184472
    54  H    0.152135
    55  H    0.181527
    56  H    0.159452
    57  H    0.159974
    58  H    0.160841
 Sum of Mulliken charges =  -0.00000

 Dipole moment (field-independent basis, Debye):
    X=              5.1055    Y=             -1.9493    Z=              0.0007  Tot=              5.4650
 Quadrupole moment (field-independent basis, Debye-Ang):
   XX=           -168.6448   YY=           -173.9359   ZZ=           -182.9483
   XY=             31.2444   XZ=             -0.8702   YZ=             -1.4232

 Normal termination of Gaussian 16 at Fri Nov  4 23:35:43 2022.
