 Gaussian 16, Revision B.01,
 Gaussian 16:  ES64L-G16RevB.01 20-Dec-2017

 -------------------------------------------------------------------
 #p b3lyp/6-31g(d) 6D 10F nosymm GFInput td=(50-50,nstate=2) SCF=XQC
 -------------------------------------------------------------------

 ------------------------------
 Gaussian input prepared by ASE
 ------------------------------
 Symbolic Z-matrix:
 Charge =  0 Multiplicity = 1

                          Input orientation:
 ---------------------------------------------------------------------
 Center     Atomic      Atomic             Coordinates (Angstroms)
 Number     Number       Type             X           Y           Z
 ---------------------------------------------------------------------
      1          6           0       -4.609937   -3.179301    3.860491
      2          6           0       -3.815287   -2.354980    2.895739
      3          7           0       -3.586014   -1.073210    3.133364
      4          7           0       -2.845628   -0.636263    2.068232
      5          6           0       -2.455223    0.717918    2.061739
      6          6           0       -2.740239    1.529781    3.189066
      7          6           0       -2.351057    2.838595    3.131635
      8          6           0       -1.685062    3.289573    1.959609
      9          7           0       -1.267252    4.590365    1.847371
     10          6           0       -0.895407    5.239241    0.588530
     11          6           0        0.585617    5.135621    0.211758
     12          7           0        0.923786    3.800942   -0.247951
     13          6           0        2.160247    3.544440   -0.755581
     14          8           0        3.014096    4.427902   -0.856761
     15          6           0        2.437063    2.132099   -1.197281
     16          6           0        3.765721    1.806205   -1.498472
     17          6           0        4.108396    0.526487   -1.919427
     18          6           0        3.131562   -0.474253   -2.064027
     19          6           0        3.494000   -1.840964   -2.516620
     20          6           0        4.689379   -2.447798   -2.094467
     21          6           0        5.030968   -3.731088   -2.518427
     22          6           0        4.184672   -4.437643   -3.374993
     23          6           0        2.993909   -3.848125   -3.803595
     24          6           0        2.652897   -2.564787   -3.379221
     25          6           0        1.799554   -0.137293   -1.770317
     26          6           0        1.454452    1.142569   -1.342923
     27          7           0       -1.432556    2.457676    0.941838
     28          7           0       -1.828784    1.178635    0.992700
     29          6           0       -2.605613   -1.649595    1.154560
     30          6           0       -1.818111   -1.497516   -0.107989
     31          6           0       -3.224921   -2.775119    1.668177
     32          6           0       -3.282782   -4.157360    1.089859
     33          1           0       -5.506331   -3.598350    3.386069
     34          1           0       -4.023624   -4.024381    4.242968
     35          1           0       -4.923824   -2.565459    4.708717
     36          1           0       -3.253138    1.103870    4.041098
     37          1           0       -2.544331    3.520600    3.955612
     38          1           0       -1.512541    5.197245    2.614712
     39          1           0       -1.146991    6.299197    0.695066
     40          1           0       -1.512101    4.830820   -0.221177
     41          1           0        0.801027    5.852553   -0.590172
     42          1           0        1.209817    5.427554    1.068053
     43          1           0        0.254785    3.063414   -0.037944
     44          1           0        4.514774    2.585551   -1.405231
     45          1           0        5.142312    0.304147   -2.168494
     46          1           0        5.342841   -1.917053   -1.407738
     47          1           0        5.956945   -4.182876   -2.172157
     48          1           0        4.451034   -5.437804   -3.706083
     49          1           0        2.332055   -4.384867   -4.478444
     50          1           0        1.737623   -2.104766   -3.741293
     51          1           0        1.025137   -0.894152   -1.858588
     52          1           0        0.410024    1.353929   -1.132299
     53          1           0       -0.801881   -1.141629    0.087044
     54          1           0       -1.756217   -2.466578   -0.611341
     55          1           0       -2.276682   -0.776413   -0.790770
     56          1           0       -2.741254   -4.226995    0.142006
     57          1           0       -4.317143   -4.471930    0.898709
     58          1           0       -2.844759   -4.898383    1.771143
 ---------------------------------------------------------------------

 SCF Done:  E(RB3LYP) =  -1372.05553499     A.U. after   15 cycles

 Excitation energies and oscillator strengths:

 Excited state symmetry could not be determined.
 Excited State   1:      Triplet-?Sym    2.7717 eV  447.32 nm  f=0.0000  <S**2>=2.000
     105 ->114         0.11031
     113 ->114         0.68121
 This state for optimization and/or second-order correction.
 Total Energy, E(TD-HF/TD-DFT) =  -1371.95367544
 Copying the excited state density for this state as the 1-particle RhoCI density.

 Excited state symmetry could not be determined.
 Excited State   2:      Triplet-?Sym    3.1483 eV  393.81 nm  f=0.0000  <S**2>=2.000
     104 ->119        -0.15428
     107 ->117        -0.12590
     108 ->117         0.11362
     108 ->118        -0.14820
     112 ->115         0.62873

 Excited state symmetry could not be determined.
 Excited State   3:      Singlet-?Sym    3.7472 eV  330.87 nm  f=0.0316  <S**2>=0.000
     113 ->114         0.69698

 Excited state symmetry could not be determined.
 Excited State   4:      Singlet-?Sym    3.9183 eV  316.43 nm  f=0.0044  <S**2>=0.000
     106 ->114        -0.56853
     107 ->114        -0.19594
     109 ->114        -0.20575
     111 ->114        -0.28580

 Alpha  occ. eigenvalues --  -19.08986 -14.41423 -14.37268 -14.37070 -14.36792
 Alpha  occ. eigenvalues --  -14.34307 -14.33454 -10.27979 -10.27377 -10.26641
 Alpha  occ. eigenvalues --  -10.23749 -10.22764 -10.22726 -10.22421 -10.21617
 Alpha  occ. eigenvalues --  -10.21036 -10.19632 -10.19601 -10.18843 -10.18823
 Alpha  occ. eigenvalues --  -10.18793 -10.18762 -10.18731 -10.18710 -10.18682
 Alpha  occ. eigenvalues --  -10.18677 -10.18646 -10.18580 -10.18499 -10.18329
 Alpha  occ. eigenvalues --  -10.18288 -10.17978  -1.05207  -1.02344  -1.00903
 Alpha  occ. eigenvalues --   -0.95614  -0.90006  -0.86913  -0.86183  -0.84019
 Alpha  occ. eigenvalues --   -0.82838  -0.81059  -0.79839  -0.77591  -0.75202
 Alpha  occ. eigenvalues --   -0.74383  -0.73579  -0.72763  -0.72122  -0.71728
 Alpha  occ. eigenvalues --   -0.69323  -0.67194  -0.65047  -0.63628  -0.61745
 Alpha  occ. eigenvalues --   -0.61113  -0.58585  -0.58522  -0.57563  -0.56663
 Alpha  occ. eigenvalues --   -0.56126  -0.55095  -0.53130  -0.52352  -0.51873
 Alpha  occ. eigenvalues --   -0.51069  -0.49091  -0.47686  -0.47178  -0.46949
 Alpha  occ. eigenvalues --   -0.45629  -0.45005  -0.44529  -0.44161  -0.43604
 Alpha  occ. eigenvalues --   -0.43446  -0.43335  -0.42489  -0.42038  -0.41828
 Alpha  occ. eigenvalues --   -0.41813  -0.41369  -0.41073  -0.40925  -0.40583
 Alpha  occ. eigenvalues --   -0.40378  -0.39491  -0.39364  -0.39058  -0.38392
 Alpha  occ. eigenvalues --   -0.38323  -0.37572  -0.36349  -0.36129  -0.35750
 Alpha  occ. eigenvalues --   -0.34632  -0.33989  -0.33834  -0.33459  -0.33228
 Alpha  occ. eigenvalues --   -0.32696  -0.31263  -0.28743  -0.26698  -0.26210
 Alpha  occ. eigenvalues --   -0.24863  -0.24754  -0.24595  -0.23575  -0.23346
 Alpha  occ. eigenvalues --   -0.22911  -0.21859  -0.21199
 Alpha virt. eigenvalues --   -0.05527  -0.03484  -0.02493   0.00064   0.00602
 Alpha virt. eigenvalues --    0.01691   0.03762   0.05490   0.07013   0.08273
 Alpha virt. eigenvalues --    0.08677   0.09749   0.09870   0.10340   0.11871

 Mulliken charges:
               1
     1  C   -0.524532
     2  C    0.329830
     3  N   -0.376090
     4  N   -0.431537
     5  C    0.526183
     6  C   -0.123868
     7  C   -0.166774
     8  C    0.587861
     9  N   -0.649619
    10  C   -0.176858
    11  C   -0.072651
    12  N   -0.669284
    13  C    0.565390
    14  O   -0.545545
    15  C    0.074428
    16  C   -0.165781
    17  C   -0.183749
    18  C    0.098104
    19  C    0.088160
    20  C   -0.172864
    21  C   -0.133959
    22  C   -0.126657
    23  C   -0.134336
    24  C   -0.173570
    25  C   -0.192345
    26  C   -0.204310
    27  N   -0.408763
    28  N   -0.364137
    29  C    0.351660
    30  C   -0.501859
    31  C   -0.035295
    32  C   -0.540864
    33  H    0.160789
    34  H    0.161178
    35  H    0.171236
    36  H    0.194379
    37  H    0.149596
    38  H    0.328606
    39  H    0.152234
    40  H    0.178320
    41  H    0.162957
    42  H    0.152526
    43  H    0.395827
    44  H    0.161614
    45  H    0.133699
    46  H    0.134573
    47  H    0.130401
    48  H    0.128836
    49  H    0.129187
    50  H    0.132708
    51  H    0.134472
    52  H    0.162096
    53  H    0.184471
    54  H    0.152137
    55  H    0.181526
    56  H    0.159451
    57  H    0.159973
    58  H    0.160840
 Sum of Mulliken charges =  -0.00000

 Dipole moment (field-independent basis, Debye):
    X=             -4.4918    Y=             -0.8107    Z=              3.0055  Tot=              5.4650
 Quadrupole moment (field-independent basis, Debye-Ang):
   XX=           -187.0596   YY=           -161.8663   ZZ=           -177.5522
   XY=            -22.6881   XZ=             -1.6510   YZ=             20.9603

 Normal termination of Gaussian 16 at Sat Nov  5 09:44:19 2022.
