 Gaussian 16, Revision B.01,
 Gaussian 16:  ES64L-G16RevB.01 20-Dec-2017

 -----------------------------
 #p b3lyp/6-31g(d) opt SCF=XQC
 -----------------------------

 ------------------------------
 Gaussian input prepared by ASE
 ------------------------------
 Symbolic Z-matrix:
 Charge =  0 Multiplicity = 1

 SCF Done:  E(RB3LYP) =  -759.724201606     A.U. after   15 cycles
 SCF Done:  E(RB3LYP) =  -759.727575160     A.U. after   12 cycles
 SCF Done:  E(RB3LYP) =  -759.727725113     A.U. after   11 cycles
 SCF Done:  E(RB3LYP) =  -759.727770824     A.U. after   11 cycles
 SCF Done:  E(RB3LYP) =  -759.727779013     A.U. after    9 cycles
 SCF Done:  E(RB3LYP) =  -759.727781260     A.U. after    9 cycles
 SCF Done:  E(RB3LYP) =  -759.727782058     A.U. after    8 cycles
 SCF Done:  E(RB3LYP) =  -759.727782355     A.U. after    8 cycles
 SCF Done:  E(RB3LYP) =  -759.727782477     A.U. after    7 cycles
 Optimization completed.
    -- Stationary point found.

                         Standard orientation:
 ---------------------------------------------------------------------
 Center     Atomic      Atomic             Coordinates (Angstroms)
 Number     Number       Type             X           Y           Z
 ---------------------------------------------------------------------
      1          7           0        1.387795    2.767027   -0.232276
      2          6           0        0.560335    1.663652   -0.145824
      3          7           0       -0.757153    1.705611   -0.157747
      4          6           0       -1.113487    0.385952   -0.018168
      5          6           0       -2.514260   -0.055066    0.026257
      6          6           0       -2.835085   -1.414474    0.168305
      7          6           0       -4.166344   -1.820354    0.207247
      8          6           0       -5.193699   -0.877913    0.105592
      9          6           0       -4.879580    0.475264   -0.034930
     10          6           0       -3.548376    0.886834   -0.074520
     11          7           0       -0.096090   -0.457064    0.070720
     12          7           0        0.999432    0.376224    0.008779
     13          6           0        2.314762   -0.153315    0.027396
     14          6           0        2.543679   -1.423017   -0.517455
     15          6           0        3.831127   -1.953260   -0.503803
     16          6           0        4.894158   -1.226995    0.039898
     17          6           0        4.656351    0.032764    0.589396
     18          6           0        3.369131    0.572415    0.596419
     19          1           0        2.248893    2.618567   -0.747304
     20          1           0        0.875634    3.576695   -0.564036
     21          1           0       -2.032564   -2.140676    0.249080
     22          1           0       -4.404335   -2.875090    0.318212
     23          1           0       -6.232118   -1.197355    0.136711
     24          1           0       -5.673572    1.213390   -0.113590
     25          1           0       -3.292824    1.935728   -0.182739
     26          1           0        1.708753   -1.975082   -0.932669
     27          1           0        4.004982   -2.938981   -0.926457
     28          1           0        5.897055   -1.644115    0.042120
     29          1           0        5.471187    0.597720    1.033713
     30          1           0        3.178755    1.531699    1.065764
 ---------------------------------------------------------------------

 The electronic state is 1-A.
 Alpha  occ. eigenvalues --  -14.41837 -14.36655 -14.34381 -14.31345 -10.29197
 Alpha  occ. eigenvalues --  -10.24628 -10.23491 -10.20395 -10.20323 -10.20168
 Alpha  occ. eigenvalues --  -10.19913 -10.19907 -10.19073 -10.18284 -10.18166
 Alpha  occ. eigenvalues --  -10.18132 -10.17992 -10.17899  -1.07309  -0.94082
 Alpha  occ. eigenvalues --   -0.91146  -0.85778  -0.84574  -0.81606  -0.76093
 Alpha  occ. eigenvalues --   -0.75807  -0.73492  -0.73134  -0.64993  -0.64248
 Alpha  occ. eigenvalues --   -0.61097  -0.60386  -0.58143  -0.57549  -0.55268
 Alpha  occ. eigenvalues --   -0.52102  -0.50700  -0.49637  -0.48424  -0.47573
 Alpha  occ. eigenvalues --   -0.45227  -0.44940  -0.44477  -0.43147  -0.42514
 Alpha  occ. eigenvalues --   -0.41077  -0.40948  -0.38338  -0.37367  -0.36387
 Alpha  occ. eigenvalues --   -0.36053  -0.34201  -0.33640  -0.33398  -0.32467
 Alpha  occ. eigenvalues --   -0.31002  -0.27094  -0.26249  -0.25133  -0.24784
 Alpha  occ. eigenvalues --   -0.24026  -0.20732
 Alpha virt. eigenvalues --   -0.03076  -0.01398  -0.00580   0.00975   0.04914
 Alpha virt. eigenvalues --    0.07559   0.08891   0.09204   0.10607   0.12154
 Alpha virt. eigenvalues --    0.13765   0.14546   0.15110   0.15554   0.17033

 Mulliken charges:
               1
     1  N   -0.793570
     2  C    0.691508
     3  N   -0.567152
     4  C    0.404465
     5  C    0.106703
     6  C   -0.170288
     7  C   -0.139108
     8  C   -0.123770
     9  C   -0.137289
    10  C   -0.173801
    11  N   -0.369443
    12  N   -0.417736
    13  C    0.300128
    14  C   -0.138864
    15  C   -0.141185
    16  C   -0.121821
    17  C   -0.140580
    18  C   -0.191030
    19  H    0.335807
    20  H    0.349581
    21  H    0.151319
    22  H    0.127746
    23  H    0.126495
    24  H    0.127578
    25  H    0.153970
    26  H    0.168049
    27  H    0.139961
    28  H    0.135267
    29  H    0.138220
    30  H    0.168838
 Sum of Mulliken charges =  -0.00000

 Dipole moment (field-independent basis, Debye):
    X=              3.1003    Y=              0.9418    Z=             -1.3410  Tot=              3.5067
 Quadrupole moment (field-independent basis, Debye-Ang):
   XX=            -85.1277   YY=            -91.4332   ZZ=           -105.8165
   XY=              3.8403   XZ=             -1.6583   YZ=             -1.9537

 1\1\GINC-NODE04\FOpt\RB3LYP\6-31G(d)\C14H12N4\WYKGROUP\04-Nov-2022\0\\
 #p b3lyp/6-31g(d) opt SCF=XQC\\Gaussian input prepared by ASE\\0,1\N,1
 .5482631823,1.8354689068,-2.1133010203\C,0.6433189054,1.1358142713,-1.
 3379551762\N,-0.6676982972,1.2250585218,-1.4425730944\C,-1.1184324388,
 0.380883316,-0.4565897367\C,-2.5474182278,0.1623869867,-0.1941150513\C
 ,-2.9656035045,-0.7107551826,0.8226641451\C,-4.3227137438,-0.911036876
 4,1.0606634447\C,-5.2793186375,-0.244368628,0.2896583248\C,-4.86827457
 89,0.6256377997,-0.7220909491\C,-3.5108082199,0.8296083028,-0.96445608

 Normal termination of Gaussian 16 at Fri Nov  4 21:28:31 2022.
