 Gaussian 16, Revision B.01,
 Gaussian 16:  ES64L-G16RevB.01 20-Dec-2017

 -------------------------------------------------------------------
 #p b3lyp/6-31g(d) 6D 10F nosymm GFInput td=(50-50,nstate=2) SCF=XQC
 -------------------------------------------------------------------

 ------------------------------
 Gaussian input prepared by ASE
 ------------------------------
 Symbolic Z-matrix:
 Charge =  0 Multiplicity = 1

                          Input orientation:
 ---------------------------------------------------------------------
 Center     Atomic      Atomic             Coordinates (Angstroms)
 Number     Number       Type             X           Y           Z
 ---------------------------------------------------------------------
      1          7           0        1.548263    1.835469   -2.113301
      2          6           0        0.643319    1.135814   -1.337955
      3          7           0       -0.667698    1.225059   -1.442573
      4          6           0       -1.118432    0.380883   -0.456590
      5          6           0       -2.547418    0.162387   -0.194115
      6          6           0       -2.965604   -0.710755    0.822664
      7          6           0       -4.322714   -0.911037    1.060663
      8          6           0       -5.279319   -0.244369    0.289658
      9          6           0       -4.868275    0.625638   -0.722091
     10          6           0       -3.510808    0.829608   -0.964456
     11          7           0       -0.164573   -0.221855    0.236613
     12          7           0        0.988236    0.284913   -0.322485
     13          6           0        2.261984   -0.153592    0.120380
     14          6           0        2.400144   -1.460668    0.603984
     15          6           0        3.646044   -1.901675    1.042295
     16          6           0        4.757355   -1.055564    0.995482
     17          6           0        4.609600    0.247933    0.521607
     18          6           0        3.364559    0.709937    0.091920
     19          1           0        2.397615    1.330691   -2.342613
     20          1           0        1.096482    2.221744   -2.934654
     21          1           0       -2.217632   -1.223336    1.419100
     22          1           0       -4.636274   -1.588528    1.850667
     23          1           0       -6.338109   -0.402149    0.477790
     24          1           0       -5.606885    1.147891   -1.324708
     25          1           0       -3.180160    1.503849   -1.747570
     26          1           0        1.528594   -2.103788    0.636797
     27          1           0        3.749451   -2.915984    1.417783
     28          1           0        5.727612   -1.407824    1.333580
     29          1           0        5.461976    0.921391    0.500132
     30          1           0        3.242664    1.737918   -0.232352
 ---------------------------------------------------------------------

 SCF Done:  E(RB3LYP) =  -759.727781179     A.U. after   15 cycles

 Excitation energies and oscillator strengths:

 Excited state symmetry could not be determined.
 Excited State   1:      Triplet-?Sym    3.0757 eV  403.11 nm  f=0.0000  <S**2>=2.000
      59 -> 65         0.16392
      61 -> 66        -0.16955
      62 -> 63         0.61396
      62 -> 65        -0.20263
 This state for optimization and/or second-order correction.
 Total Energy, E(TD-HF/TD-DFT) =  -759.614750600
 Copying the excited state density for this state as the 1-particle RhoCI density.

 Excited state symmetry could not be determined.
 Excited State   2:      Triplet-?Sym    3.5910 eV  345.27 nm  f=0.0000  <S**2>=2.000
      58 -> 64        -0.32797
      59 -> 63         0.37738
      59 -> 65         0.12215
      60 -> 65         0.11507
      61 -> 66         0.14210
      62 -> 63         0.13257
      62 -> 65         0.37519

 Excited state symmetry could not be determined.
 Excited State   3:      Singlet-?Sym    4.3733 eV  283.50 nm  f=0.4399  <S**2>=0.000
      62 -> 63         0.69061
      62 -> 65         0.11916

 Excited state symmetry could not be determined.
 Excited State   4:      Singlet-?Sym    4.6021 eV  269.41 nm  f=0.0036  <S**2>=0.000
      58 -> 63         0.13136
      62 -> 64         0.68355

 Alpha  occ. eigenvalues --  -14.41837 -14.36655 -14.34381 -14.31345 -10.29197
 Alpha  occ. eigenvalues --  -10.24628 -10.23491 -10.20395 -10.20323 -10.20168
 Alpha  occ. eigenvalues --  -10.19913 -10.19907 -10.19073 -10.18284 -10.18166
 Alpha  occ. eigenvalues --  -10.18132 -10.17992 -10.17899  -1.07309  -0.94082
 Alpha  occ. eigenvalues --   -0.91146  -0.85778  -0.84574  -0.81606  -0.76093
 Alpha  occ. eigenvalues --   -0.75807  -0.73492  -0.73134  -0.64993  -0.64248
 Alpha  occ. eigenvalues --   -0.61097  -0.60386  -0.58143  -0.57549  -0.55268
 Alpha  occ. eigenvalues --   -0.52102  -0.50700  -0.49637  -0.48424  -0.47573
 Alpha  occ. eigenvalues --   -0.45227  -0.44940  -0.44477  -0.43147  -0.42514
 Alpha  occ. eigenvalues --   -0.41077  -0.40948  -0.38337  -0.37367  -0.36387
 Alpha  occ. eigenvalues --   -0.36053  -0.34201  -0.33640  -0.33398  -0.32467
 Alpha  occ. eigenvalues --   -0.31002  -0.27094  -0.26249  -0.25133  -0.24784
 Alpha  occ. eigenvalues --   -0.24026  -0.20732
 Alpha virt. eigenvalues --   -0.03076  -0.01398  -0.00580   0.00975   0.04914
 Alpha virt. eigenvalues --    0.07559   0.08891   0.09204   0.10607   0.12155
 Alpha virt. eigenvalues --    0.13765   0.14546   0.15110   0.15554   0.17033

 Mulliken charges:
               1
     1  N   -0.793562
     2  C    0.691499
     3  N   -0.567151
     4  C    0.404464
     5  C    0.106707
     6  C   -0.170293
     7  C   -0.139107
     8  C   -0.123764
     9  C   -0.137294
    10  C   -0.173802
    11  N   -0.369445
    12  N   -0.417727
    13  C    0.300126
    14  C   -0.138864
    15  C   -0.141187
    16  C   -0.121812
    17  C   -0.140592
    18  C   -0.191027
    19  H    0.335807
    20  H    0.349581
    21  H    0.151320
    22  H    0.127746
    23  H    0.126494
    24  H    0.127578
    25  H    0.153971
    26  H    0.168049
    27  H    0.139961
    28  H    0.135267
    29  H    0.138220
    30  H    0.168838
 Sum of Mulliken charges =  -0.00000

 Dipole moment (field-independent basis, Debye):
    X=              3.1631    Y=             -0.3936    Z=             -1.4618  Tot=              3.5067
 Quadrupole moment (field-independent basis, Debye-Ang):
   XX=            -84.8263   YY=           -100.3407   ZZ=            -97.1222
   XY=              1.4346   XZ=             -3.9051   YZ=             -7.0664

 Normal termination of Gaussian 16 at Sat Nov  5 09:32:44 2022.
