 Gaussian 16, Revision B.01,
 Gaussian 16:  ES64L-G16RevB.01 20-Dec-2017

 -----------------------------
 #p b3lyp/6-31g(d) opt SCF=XQC
 -----------------------------

 ------------------------------
 Gaussian input prepared by ASE
 ------------------------------
 Symbolic Z-matrix:
 Charge =  0 Multiplicity = 1

 SCF Done:  E(RB3LYP) =  -1249.86349261     A.U. after   16 cycles
 SCF Done:  E(RB3LYP) =  -1249.87026274     A.U. after   13 cycles
 SCF Done:  E(RB3LYP) =  -1249.87099119     A.U. after   13 cycles
 SCF Done:  E(RB3LYP) =  -1249.87132297     A.U. after   12 cycles
 SCF Done:  E(RB3LYP) =  -1249.87143189     A.U. after   12 cycles
 SCF Done:  E(RB3LYP) =  -1249.87148432     A.U. after   11 cycles
 SCF Done:  E(RB3LYP) =  -1249.87151388     A.U. after   10 cycles
 SCF Done:  E(RB3LYP) =  -1249.87152113     A.U. after   10 cycles
 SCF Done:  E(RB3LYP) =  -1249.87152464     A.U. after   10 cycles
 SCF Done:  E(RB3LYP) =  -1249.87152741     A.U. after   10 cycles
 SCF Done:  E(RB3LYP) =  -1249.87278090     A.U. after   11 cycles
 SCF Done:  E(RB3LYP) =  -1249.87284057     A.U. after   11 cycles
 SCF Done:  E(RB3LYP) =  -1249.87287188     A.U. after   11 cycles
 SCF Done:  E(RB3LYP) =  -1249.87287336     A.U. after    8 cycles
 SCF Done:  E(RB3LYP) =  -1249.87287354     A.U. after    7 cycles
 SCF Done:  E(RB3LYP) =  -1249.87287372     A.U. after    8 cycles
 SCF Done:  E(RB3LYP) =  -1249.87287379     A.U. after    7 cycles
 SCF Done:  E(RB3LYP) =  -1249.87287382     A.U. after    7 cycles
 SCF Done:  E(RB3LYP) =  -1249.87287383     A.U. after    6 cycles
 SCF Done:  E(RB3LYP) =  -1249.87287383     A.U. after    6 cycles
 Optimization completed.
    -- Stationary point found.

                         Standard orientation:
 ---------------------------------------------------------------------
 Center     Atomic      Atomic             Coordinates (Angstroms)
 Number     Number       Type             X           Y           Z
 ---------------------------------------------------------------------
      1          6           0        3.753989    2.765574    1.708541
      2          6           0        4.182641    2.609499    0.235996
      3          6           0        5.262287    1.565012    0.019537
      4          6           0        6.592638    1.974027   -0.116160
      5          6           0        7.632123    1.060546   -0.284539
      6          6           0        7.338868   -0.301217   -0.322112
      7          6           0        6.025193   -0.748050   -0.195172
      8          6           0        4.985192    0.177845   -0.022696
      9          7           0        3.634281   -0.232381    0.092195
     10          6           0        3.119953   -1.506954    0.176736
     11          8           0        3.778602   -2.534606    0.230265
     12          6           0        1.605592   -1.559342    0.201197
     13          6           0        1.080702   -2.601645    1.026876
     14          7           0        0.662034   -3.437354    1.720692
     15          6           0        0.844376   -0.753652   -0.589105
     16          6           0       -0.596400   -0.665958   -0.797276
     17          6           0       -1.568845   -1.405426   -0.089625
     18          6           0       -2.919873   -1.241809   -0.364612
     19          6           0       -3.362248   -0.344107   -1.350232
     20          6           0       -4.845156   -0.172410   -1.640103
     21          6           0       -5.604975    0.519695   -0.521123
     22          6           0       -5.742266    1.912250   -0.464404
     23          6           0       -6.435560    2.534040    0.574722
     24          6           0       -7.012266    1.764398    1.587037
     25          6           0       -6.893581    0.374624    1.557886
     26          6           0       -6.195396   -0.211509    0.510491
     27          9           0       -6.081854   -1.565606    0.491839
     28          6           0       -2.402068    0.392222   -2.053498
     29          6           0       -1.047350    0.236495   -1.781161
     30          1           0        4.610260    3.055506    2.326236
     31          1           0        2.981811    3.536489    1.810739
     32          1           0        3.356968    1.832047    2.123489
     33          1           0        4.558736    3.573629   -0.124265
     34          1           0        3.299584    2.400071   -0.387173
     35          1           0        6.811364    3.039342   -0.089070
     36          1           0        8.655404    1.410328   -0.386892
     37          1           0        8.133734   -1.030436   -0.452566
     38          1           0        5.793230   -1.803215   -0.216850
     39          1           0        2.964302    0.510205    0.221745
     40          1           0        1.409145   -0.058842   -1.209140
     41          1           0       -1.271008   -2.110610    0.676119
     42          1           0       -3.650235   -1.819260    0.193895
     43          1           0       -5.292477   -1.155818   -1.821235
     44          1           0       -4.965608    0.408260   -2.560969
     45          1           0       -5.297913    2.514308   -1.253580
     46          1           0       -6.528254    3.616008    0.591632
     47          1           0       -7.554885    2.240785    2.398389
     48          1           0       -7.329597   -0.257352    2.324599
     49          1           0       -2.716834    1.091220   -2.824572
     50          1           0       -0.319481    0.817918   -2.342623
 ---------------------------------------------------------------------

 The electronic state is 1-A.
 Alpha  occ. eigenvalues --  -24.71563 -19.13066 -14.38736 -14.33587 -10.31104
 Alpha  occ. eigenvalues --  -10.27840 -10.24556 -10.24117 -10.23958 -10.23008
 Alpha  occ. eigenvalues --  -10.22150 -10.21964 -10.21458 -10.21363 -10.21159
 Alpha  occ. eigenvalues --  -10.20698 -10.20668 -10.20650 -10.20640 -10.20624
 Alpha  occ. eigenvalues --  -10.20452 -10.20258 -10.20166 -10.20146 -10.19170
 Alpha  occ. eigenvalues --  -10.19122 -10.18872 -10.18698 -10.18373  -1.22403
 Alpha  occ. eigenvalues --   -1.05092  -0.95299  -0.90523  -0.88257  -0.87112
 Alpha  occ. eigenvalues --   -0.85530  -0.83390  -0.80208  -0.79484  -0.76649
 Alpha  occ. eigenvalues --   -0.76265  -0.75578  -0.74321  -0.73019  -0.70938
 Alpha  occ. eigenvalues --   -0.66377  -0.65047  -0.64328  -0.63180  -0.62140
 Alpha  occ. eigenvalues --   -0.61212  -0.59905  -0.59170  -0.57796  -0.55328
 Alpha  occ. eigenvalues --   -0.54515  -0.53068  -0.51685  -0.50363  -0.49438
 Alpha  occ. eigenvalues --   -0.48975  -0.48358  -0.47488  -0.46880  -0.46490
 Alpha  occ. eigenvalues --   -0.45290  -0.44811  -0.44555  -0.43917  -0.43745
 Alpha  occ. eigenvalues --   -0.43547  -0.43179  -0.42798  -0.42156  -0.41717
 Alpha  occ. eigenvalues --   -0.40677  -0.40310  -0.39889  -0.39289  -0.38345
 Alpha  occ. eigenvalues --   -0.38074  -0.37427  -0.36819  -0.36548  -0.36094
 Alpha  occ. eigenvalues --   -0.35926  -0.35541  -0.35508  -0.35119  -0.34958
 Alpha  occ. eigenvalues --   -0.33917  -0.32504  -0.31165  -0.30571  -0.26842
 Alpha  occ. eigenvalues --   -0.26691  -0.26272  -0.25154  -0.24707  -0.24130
 Alpha  occ. eigenvalues --   -0.22190
 Alpha virt. eigenvalues --   -0.08556  -0.02200  -0.01622  -0.01288  -0.00569
 Alpha virt. eigenvalues --   -0.00216   0.01448   0.02707   0.04370   0.05813
 Alpha virt. eigenvalues --    0.07740   0.08361   0.09592   0.10001   0.11821

 Mulliken charges:
               1
     1  C   -0.440059
     2  C   -0.371728
     3  C    0.140993
     4  C   -0.202256
     5  C   -0.118216
     6  C   -0.148288
     7  C   -0.160007
     8  C    0.285777
     9  N   -0.734411
    10  C    0.596359
    11  O   -0.482201
    12  C    0.017470
    13  C    0.308833
    14  N   -0.500316
    15  C   -0.198493
    16  C    0.176405
    17  C   -0.183574
    18  C   -0.186618
    19  C    0.190805
    20  C   -0.452236
    21  C    0.110807
    22  C   -0.181505
    23  C   -0.124179
    24  C   -0.133526
    25  C   -0.186857
    26  C    0.327821
    27  F   -0.299765
    28  C   -0.190068
    29  C   -0.183028
    30  H    0.162279
    31  H    0.149767
    32  H    0.151460
    33  H    0.156957
    34  H    0.131585
    35  H    0.123702
    36  H    0.128601
    37  H    0.135199
    38  H    0.190415
    39  H    0.339943
    40  H    0.150061
    41  H    0.179261
    42  H    0.156925
    43  H    0.180562
    44  H    0.157766
    45  H    0.131573
    46  H    0.135695
    47  H    0.141450
    48  H    0.151032
    49  H    0.131663
    50  H    0.136168
 Sum of Mulliken charges =  -0.00000

 Dipole moment (field-independent basis, Debye):
    X=             -2.7979    Y=              7.5338    Z=             -2.4448  Tot=              8.4002
 Quadrupole moment (field-independent basis, Debye-Ang):
   XX=           -150.5185   YY=           -177.3959   ZZ=           -165.5931
   XY=              7.5571   XZ=             -3.5855   YZ=              6.5493

 Normal termination of Gaussian 16 at Fri Nov  4 22:15:32 2022.
