 Gaussian 16, Revision B.01,
 Gaussian 16:  ES64L-G16RevB.01 20-Dec-2017

 -------------------------------------------------------------------
 #p b3lyp/6-31g(d) 6D 10F nosymm GFInput td=(50-50,nstate=2) SCF=XQC
 -------------------------------------------------------------------

 ------------------------------
 Gaussian input prepared by ASE
 ------------------------------
 Symbolic Z-matrix:
 Charge =  0 Multiplicity = 1

                          Input orientation:
 ---------------------------------------------------------------------
 Center     Atomic      Atomic             Coordinates (Angstroms)
 Number     Number       Type             X           Y           Z
 ---------------------------------------------------------------------
      1          6           0       -3.691091   -0.842808   -2.690679
      2          6           0       -4.126147    0.458534   -1.988022
      3          6           0       -5.159693    0.249451   -0.896459
      4          6           0       -6.508320    0.492002   -1.175585
      5          6           0       -7.507189    0.287270   -0.224967
      6          6           0       -7.153323   -0.169807    1.042971
      7          6           0       -5.819734   -0.418506    1.361098
      8          6           0       -4.820870   -0.213018    0.397419
      9          7           0       -3.451845   -0.436146    0.684528
     10          6           0       -2.879912   -0.969215    1.818083
     11          8           0       -3.491118   -1.412555    2.778618
     12          6           0       -1.364563   -0.972870    1.799638
     13          6           0       -0.785545   -2.109724    2.444580
     14          7           0       -0.323175   -3.050866    2.950089
     15          6           0       -0.647856    0.076837    1.312188
     16          6           0        0.785488    0.339038    1.251894
     17          6           0        1.796850   -0.565665    1.641630
     18          6           0        3.136495   -0.215752    1.538786
     19          6           0        3.528718    1.041277    1.049858
     20          6           0        4.999600    1.411332    0.939914
     21          6           0        5.738019    0.643766   -0.143612
     22          6           0        5.813038    1.105222   -1.463728
     23          6           0        6.487414    0.384447   -2.450015
     24          6           0        7.107685   -0.824663   -2.129016
     25          6           0        7.051387   -1.310265   -0.822330
     26          6           0        6.370442   -0.568846    0.134050
     27          9           0        6.317775   -1.050999    1.403528
     28          6           0        2.529791    1.941061    0.660957
     29          6           0        1.186080    1.596413    0.757584
     30          1           0       -4.553681   -1.332573   -3.154228
     31          1           0       -2.953456   -0.635578   -3.474237
     32          1           0       -3.248573   -1.561033   -1.990959
     33          1           0       -4.548624    1.137655   -2.737081
     34          1           0       -3.240474    0.983592   -1.598296
     35          1           0       -6.774496    0.851989   -2.167065
     36          1           0       -8.546092    0.484856   -0.473096
     37          1           0       -7.915765   -0.336042    1.799039
     38          1           0       -5.540741   -0.779469    2.340648
     39          1           0       -2.814767   -0.267327   -0.078834
     40          1           0       -1.249136    0.893994    0.916100
     41          1           0        1.538277   -1.543951    2.026923
     42          1           0        3.897333   -0.928457    1.842076
     43          1           0        5.488991    1.230422    1.903119
     44          1           0        5.085116    2.483724    0.734141
     45          1           0        5.334626    2.048703   -1.716091
     46          1           0        6.531484    0.767885   -3.465183
     47          1           0        7.635942   -1.390753   -2.890697
     48          1           0        7.522606   -2.244040   -0.533592
     49          1           0        2.805503    2.922464    0.282721
     50          1           0        0.427526    2.313387    0.451594
 ---------------------------------------------------------------------

 SCF Done:  E(RB3LYP) =  -1249.87287391     A.U. after   16 cycles

 Excitation energies and oscillator strengths:

 Excited state symmetry could not be determined.
 Excited State   1:      Triplet-?Sym    2.3988 eV  516.86 nm  f=0.0000  <S**2>=2.000
      94 ->102         0.10871
      98 ->102         0.17001
     100 ->102         0.58750
     101 ->102        -0.27484
 This state for optimization and/or second-order correction.
 Total Energy, E(TD-HF/TD-DFT) =  -1249.78472041
 Copying the excited state density for this state as the 1-particle RhoCI density.

 Excited state symmetry could not be determined.
 Excited State   2:      Triplet-?Sym    2.9516 eV  420.05 nm  f=0.0000  <S**2>=2.000
     100 ->102         0.25270
     101 ->102         0.60429
     101 ->105         0.18551

 Excited state symmetry could not be determined.
 Excited State   3:      Singlet-?Sym    3.2078 eV  386.51 nm  f=0.1299  <S**2>=0.000
     101 ->102         0.70467

 Excited state symmetry could not be determined.
 Excited State   4:      Singlet-?Sym    3.8760 eV  319.88 nm  f=0.2617  <S**2>=0.000
      96 ->102        -0.37940
      99 ->102        -0.26353
     100 ->102         0.51151

 Alpha  occ. eigenvalues --  -24.71563 -19.13066 -14.38736 -14.33587 -10.31104
 Alpha  occ. eigenvalues --  -10.27840 -10.24556 -10.24117 -10.23958 -10.23008
 Alpha  occ. eigenvalues --  -10.22150 -10.21964 -10.21458 -10.21363 -10.21159
 Alpha  occ. eigenvalues --  -10.20698 -10.20668 -10.20650 -10.20640 -10.20624
 Alpha  occ. eigenvalues --  -10.20452 -10.20258 -10.20166 -10.20146 -10.19170
 Alpha  occ. eigenvalues --  -10.19122 -10.18872 -10.18698 -10.18373  -1.22403
 Alpha  occ. eigenvalues --   -1.05092  -0.95299  -0.90523  -0.88257  -0.87112
 Alpha  occ. eigenvalues --   -0.85530  -0.83390  -0.80208  -0.79484  -0.76649
 Alpha  occ. eigenvalues --   -0.76265  -0.75578  -0.74321  -0.73019  -0.70938
 Alpha  occ. eigenvalues --   -0.66377  -0.65047  -0.64328  -0.63180  -0.62140
 Alpha  occ. eigenvalues --   -0.61212  -0.59905  -0.59170  -0.57796  -0.55328
 Alpha  occ. eigenvalues --   -0.54515  -0.53068  -0.51686  -0.50363  -0.49438
 Alpha  occ. eigenvalues --   -0.48975  -0.48358  -0.47488  -0.46880  -0.46490
 Alpha  occ. eigenvalues --   -0.45290  -0.44811  -0.44555  -0.43917  -0.43745
 Alpha  occ. eigenvalues --   -0.43547  -0.43179  -0.42798  -0.42156  -0.41717
 Alpha  occ. eigenvalues --   -0.40677  -0.40310  -0.39889  -0.39289  -0.38345
 Alpha  occ. eigenvalues --   -0.38074  -0.37427  -0.36819  -0.36548  -0.36094
 Alpha  occ. eigenvalues --   -0.35926  -0.35541  -0.35508  -0.35119  -0.34958
 Alpha  occ. eigenvalues --   -0.33917  -0.32504  -0.31165  -0.30571  -0.26842
 Alpha  occ. eigenvalues --   -0.26691  -0.26272  -0.25154  -0.24707  -0.24130
 Alpha  occ. eigenvalues --   -0.22190
 Alpha virt. eigenvalues --   -0.08556  -0.02200  -0.01622  -0.01288  -0.00569
 Alpha virt. eigenvalues --   -0.00216   0.01448   0.02707   0.04370   0.05813
 Alpha virt. eigenvalues --    0.07740   0.08361   0.09592   0.10001   0.11821

 Mulliken charges:
               1
     1  C   -0.440064
     2  C   -0.371730
     3  C    0.141001
     4  C   -0.202265
     5  C   -0.118214
     6  C   -0.148294
     7  C   -0.159994
     8  C    0.285756
     9  N   -0.734399
    10  C    0.596361
    11  O   -0.482203
    12  C    0.017478
    13  C    0.308834
    14  N   -0.500318
    15  C   -0.198502
    16  C    0.176408
    17  C   -0.183568
    18  C   -0.186626
    19  C    0.190800
    20  C   -0.452240
    21  C    0.110809
    22  C   -0.181510
    23  C   -0.124175
    24  C   -0.133523
    25  C   -0.186863
    26  C    0.327830
    27  F   -0.299766
    28  C   -0.190058
    29  C   -0.183031
    30  H    0.162280
    31  H    0.149768
    32  H    0.151464
    33  H    0.156957
    34  H    0.131587
    35  H    0.123702
    36  H    0.128601
    37  H    0.135200
    38  H    0.190413
    39  H    0.339941
    40  H    0.150063
    41  H    0.179261
    42  H    0.156924
    43  H    0.180562
    44  H    0.157767
    45  H    0.131571
    46  H    0.135693
    47  H    0.141450
    48  H    0.151031
    49  H    0.131662
    50  H    0.136165
 Sum of Mulliken charges =  -0.00000

 Dipole moment (field-independent basis, Debye):
    X=              2.4328    Y=              5.1074    Z=             -6.2096  Tot=              8.4002
 Quadrupole moment (field-independent basis, Debye-Ang):
   XX=           -149.0191   YY=           -173.7173   ZZ=           -176.2346
   XY=             -4.7849   XZ=              4.5080   YZ=             12.0930

 Normal termination of Gaussian 16 at Sat Nov  5 09:41:51 2022.
