 Gaussian 16, Revision B.01,
 Gaussian 16:  ES64L-G16RevB.01 20-Dec-2017

 -------------------------------------------------------------------
 #p b3lyp/6-31g(d) 6D 10F nosymm GFInput td=(50-50,nstate=2) SCF=XQC
 -------------------------------------------------------------------

 ------------------------------
 Gaussian input prepared by ASE
 ------------------------------
 Symbolic Z-matrix:
 Charge =  0 Multiplicity = 1

                          Input orientation:
 ---------------------------------------------------------------------
 Center     Atomic      Atomic             Coordinates (Angstroms)
 Number     Number       Type             X           Y           Z
 ---------------------------------------------------------------------
      1          6           0       -6.010268   -3.828723   -0.457021
      2          6           0       -5.140223   -2.624514   -0.421119
      3          7           0       -5.442682   -1.394365   -0.688613
      4          6           0       -4.254877   -0.700495   -0.488995
      5          6           0       -4.002381    0.728226   -0.577275
      6          8           0       -4.821972    1.585405   -0.863158
      7          7           0       -2.669358    1.079279   -0.188035
      8          6           0       -2.541031    2.468394    0.231201
      9          6           0       -1.947795    2.784460    1.582837
     10          6           0       -3.424800    2.949667    1.351304
     11          6           0       -1.605780    0.157536   -0.038635
     12          6           0       -0.240423    0.552002   -0.098060
     13          6           0        0.167651    1.889053   -0.688285
     14          6           0        0.753035   -0.395624    0.234260
     15          6           0        2.200603   -0.037854    0.283475
     16          6           0        2.657327    1.025564    1.082290
     17          6           0        4.016676    1.333533    1.177277
     18          6           0        4.935236    0.561118    0.472155
     19          6           0        4.496854   -0.500269   -0.325976
     20          6           0        3.143905   -0.803102   -0.428559
     21          6           0        5.704284   -1.133295   -0.996149
     22          7           0        6.879065   -0.614564   -0.255349
     23          6           0        6.445898    0.662674    0.360431
     24          6           0        0.407039   -1.735921    0.498736
     25          6           0       -0.902691   -2.158378    0.394557
     26          6           0       -1.911830   -1.225570    0.120428
     27          6           0       -3.275386   -1.569491   -0.102429
     28          8           0       -3.817939   -2.819515   -0.052012
     29          1           0       -6.064014   -4.305709    0.528349
     30          1           0       -7.013400   -3.528783   -0.764121
     31          1           0       -5.625043   -4.571675   -1.164796
     32          1           0       -2.367830    3.176319   -0.573444
     33          1           0       -1.621176    1.950637    2.197399
     34          1           0       -1.322174    3.669663    1.661930
     35          1           0       -3.841845    3.947614    1.256922
     36          1           0       -4.094994    2.229054    1.808237
     37          1           0       -0.533907    2.185617   -1.472782
     38          1           0        0.213627    2.705989    0.037440
     39          1           0        1.156727    1.802803   -1.143278
     40          1           0        1.936079    1.603118    1.653616
     41          1           0        4.342859    2.158450    1.806636
     42          1           0        2.801382   -1.619688   -1.059889
     43          1           0        5.766517   -0.821715   -2.049629
     44          1           0        5.696956   -2.228748   -0.988340
     45          1           0        7.068193   -1.266262    0.504157
     46          1           0        6.727731    1.501061   -0.294375
     47          1           0        6.955517    0.821593    1.317168
     48          1           0        1.190111   -2.441874    0.756969
     49          1           0       -1.169456   -3.202694    0.523733
 ---------------------------------------------------------------------

 SCF Done:  E(RB3LYP) =  -1203.77627283     A.U. after   16 cycles

 Excitation energies and oscillator strengths:

 Excited state symmetry could not be determined.
 Excited State   1:      Triplet-?Sym    2.7608 eV  449.08 nm  f=0.0000  <S**2>=2.000
      95 -> 99        -0.11435
      97 -> 99        -0.22003
      98 -> 99         0.61887
 This state for optimization and/or second-order correction.
 Total Energy, E(TD-HF/TD-DFT) =  -1203.67481374
 Copying the excited state density for this state as the 1-particle RhoCI density.

 Excited state symmetry could not be determined.
 Excited State   2:      Triplet-?Sym    3.2554 eV  380.85 nm  f=0.0000  <S**2>=2.000
      97 -> 99         0.58563
      97 ->100         0.13214
      98 -> 99         0.27576
      98 ->100         0.12119

 Excited state symmetry could not be determined.
 Excited State   3:      Singlet-?Sym    3.8013 eV  326.17 nm  f=0.3245  <S**2>=0.000
      97 -> 99         0.21008
      97 ->100        -0.12658
      98 -> 99         0.65198

 Excited state symmetry could not be determined.
 Excited State   4:      Singlet-?Sym    4.1133 eV  301.42 nm  f=0.2637  <S**2>=0.000
      97 -> 99         0.62466
      98 -> 99        -0.22403
      98 ->100         0.20692

 Alpha  occ. eigenvalues --  -19.23226 -19.10956 -14.38198 -14.33621 -14.32372
 Alpha  occ. eigenvalues --  -10.28770 -10.28733 -10.25924 -10.24868 -10.22980
 Alpha  occ. eigenvalues --  -10.21784 -10.21709 -10.21691 -10.21415 -10.21048
 Alpha  occ. eigenvalues --  -10.20742 -10.20667 -10.20396 -10.20069 -10.19665
 Alpha  occ. eigenvalues --  -10.19618 -10.19583 -10.19534 -10.19513 -10.19462
 Alpha  occ. eigenvalues --  -10.19358 -10.18984 -10.18415  -1.13615  -1.03202
 Alpha  occ. eigenvalues --   -0.95380  -0.92880  -0.92542  -0.87662  -0.85847
 Alpha  occ. eigenvalues --   -0.83952  -0.81970  -0.78347  -0.77048  -0.75897
 Alpha  occ. eigenvalues --   -0.74803  -0.72460  -0.70751  -0.69433  -0.66444
 Alpha  occ. eigenvalues --   -0.64332  -0.62644  -0.62022  -0.60407  -0.60194
 Alpha  occ. eigenvalues --   -0.59670  -0.58353  -0.56583  -0.54292  -0.53835
 Alpha  occ. eigenvalues --   -0.51740  -0.51107  -0.49964  -0.49602  -0.49045
 Alpha  occ. eigenvalues --   -0.49005  -0.46918  -0.45796  -0.45411  -0.43958
 Alpha  occ. eigenvalues --   -0.43554  -0.43416  -0.42750  -0.42367  -0.42180
 Alpha  occ. eigenvalues --   -0.41945  -0.41611  -0.41233  -0.40904  -0.40484
 Alpha  occ. eigenvalues --   -0.39768  -0.39491  -0.38335  -0.38104  -0.37816
 Alpha  occ. eigenvalues --   -0.37127  -0.36430  -0.35752  -0.34849  -0.34619
 Alpha  occ. eigenvalues --   -0.33584  -0.32623  -0.31273  -0.29797  -0.29582
 Alpha  occ. eigenvalues --   -0.29149  -0.28217  -0.25405  -0.25033  -0.24371
 Alpha  occ. eigenvalues --   -0.23407  -0.22485  -0.21042
 Alpha virt. eigenvalues --   -0.05298  -0.01505  -0.01000  -0.00302   0.00712
 Alpha virt. eigenvalues --    0.03401   0.07836   0.07987   0.09806   0.10138
 Alpha virt. eigenvalues --    0.10665   0.10973   0.11264   0.12018   0.12699

 Mulliken charges:
               1
     1  C   -0.533950
     2  C    0.506627
     3  N   -0.484504
     4  C    0.124336
     5  C    0.583610
     6  O   -0.499963
     7  N   -0.630409
     8  C    0.026405
     9  C   -0.322949
    10  C   -0.299151
    11  C    0.240025
    12  C    0.100936
    13  C   -0.529521
    14  C    0.028042
    15  C    0.052362
    16  C   -0.165957
    17  C   -0.200015
    18  C    0.119302
    19  C    0.115540
    20  C   -0.241881
    21  C   -0.225109
    22  N   -0.541584
    23  C   -0.226267
    24  C   -0.177707
    25  C   -0.196257
    26  C    0.089540
    27  C    0.297012
    28  O   -0.498209
    29  H    0.181571
    30  H    0.198437
    31  H    0.181881
    32  H    0.166345
    33  H    0.167795
    34  H    0.154348
    35  H    0.164119
    36  H    0.170577
    37  H    0.164762
    38  H    0.164531
    39  H    0.171832
    40  H    0.131456
    41  H    0.129192
    42  H    0.132352
    43  H    0.163555
    44  H    0.149796
    45  H    0.300508
    46  H    0.163062
    47  H    0.150192
    48  H    0.135872
    49  H    0.147513
 Sum of Mulliken charges =  -0.00000

 Dipole moment (field-independent basis, Debye):
    X=              3.3495    Y=             -2.2573    Z=              2.3696  Tot=              4.6829
 Quadrupole moment (field-independent basis, Debye-Ang):
   XX=           -184.6446   YY=           -141.8813   ZZ=           -160.5460
   XY=             16.8020   XZ=             -1.5394   YZ=              4.8102

 Normal termination of Gaussian 16 at Sat Nov  5 09:46:26 2022.
