 Gaussian 16, Revision B.01,
 Gaussian 16:  ES64L-G16RevB.01 20-Dec-2017

 -----------------------------
 #p b3lyp/6-31g(d) opt SCF=XQC
 -----------------------------

 ------------------------------
 Gaussian input prepared by ASE
 ------------------------------
 Symbolic Z-matrix:
 Charge =  0 Multiplicity = 1

 SCF Done:  E(RB3LYP) =  -1203.76897108     A.U. after   16 cycles
 SCF Done:  E(RB3LYP) =  -1203.77555075     A.U. after   12 cycles
 SCF Done:  E(RB3LYP) =  -1203.77502004     A.U. after   12 cycles
 SCF Done:  E(RB3LYP) =  -1203.77596108     A.U. after   12 cycles
 SCF Done:  E(RB3LYP) =  -1203.77624847     A.U. after   11 cycles
 SCF Done:  E(RB3LYP) =  -1203.77627090     A.U. after   10 cycles
 SCF Done:  E(RB3LYP) =  -1203.77627506     A.U. after    8 cycles
 SCF Done:  E(RB3LYP) =  -1203.77627607     A.U. after    8 cycles
 SCF Done:  E(RB3LYP) =  -1203.77627651     A.U. after    7 cycles
 SCF Done:  E(RB3LYP) =  -1203.77627661     A.U. after    6 cycles
 Optimization completed.
    -- Stationary point found.

                         Standard orientation:
 ---------------------------------------------------------------------
 Center     Atomic      Atomic             Coordinates (Angstroms)
 Number     Number       Type             X           Y           Z
 ---------------------------------------------------------------------
      1          6           0        5.985977   -3.185691   -0.240830
      2          6           0        5.008173   -2.082602   -0.052463
      3          7           0        5.204289   -0.894209    0.422471
      4          6           0        3.952126   -0.293439    0.364615
      5          6           0        3.572129    1.067422    0.705865
      6          8           0        4.317808    1.936663    1.126099
      7          7           0        2.201133    1.351119    0.403240
      8          6           0        1.932757    2.773067    0.236190
      9          6           0        1.271686    3.260307   -1.030430
     10          6           0        2.733653    3.523789   -0.794480
     11          6           0        1.222751    0.371525    0.109487
     12          6           0       -0.170624    0.616880    0.256596
     13          6           0       -0.681601    1.785935    1.078065
     14          6           0       -1.082461   -0.349642   -0.222757
     15          6           0       -2.557624   -0.129305   -0.187865
     16          6           0       -3.134565    1.007714   -0.781067
     17          6           0       -4.518753    1.195636   -0.801224
     18          6           0       -5.340260    0.228159   -0.229657
     19          6           0       -4.781782   -0.908508    0.363490
     20          6           0       -3.404203   -1.093329    0.392117
     21          6           0       -5.904692   -1.761013    0.929219
     22          7           0       -7.144423   -1.236827    0.307713
     23          6           0       -6.849706    0.163406   -0.080414
     24          6           0       -0.622955   -1.584313   -0.723255
     25          6           0        0.722661   -1.890808   -0.713440
     26          6           0        1.649678   -0.927216   -0.294192
     27          6           0        3.045291   -1.172145   -0.154533
     28          8           0        3.698706   -2.336591   -0.431263
     29          1           0        6.053041   -3.477214   -1.295284
     30          1           0        6.966237   -2.848710    0.099881
     31          1           0        5.692663   -4.073584    0.330952
     32          1           0        1.720002    3.310825    1.154973
     33          1           0        1.004400    2.518240   -1.777105
     34          1           0        0.565166    4.081652   -0.944041
     35          1           0        3.059849    4.525592   -0.532335
     36          1           0        3.452916    2.960985   -1.380264
     37          1           0        0.013496    2.007901    1.892400
     38          1           0       -0.824813    2.708090    0.507720
     39          1           0       -1.644092    1.527619    1.524847
     40          1           0       -2.487405    1.742066   -1.252331
     41          1           0       -4.938622    2.082025   -1.271333
     42          1           0       -2.968777   -1.970326    0.865396
     43          1           0       -5.962896   -1.644239    2.021808
     44          1           0       -5.796884   -2.832688    0.729158
     45          1           0       -7.296075   -1.762060   -0.551625
     46          1           0       -7.187186    0.844598    0.715310
     47          1           0       -7.400957    0.436167   -0.987076
     48          1           0       -1.345346   -2.306617   -1.090247
     49          1           0        1.080247   -2.866427   -1.027679
 ---------------------------------------------------------------------

 The electronic state is 1-A.
 Alpha  occ. eigenvalues --  -19.23226 -19.10956 -14.38198 -14.33621 -14.32372
 Alpha  occ. eigenvalues --  -10.28770 -10.28733 -10.25924 -10.24868 -10.22980
 Alpha  occ. eigenvalues --  -10.21784 -10.21709 -10.21691 -10.21415 -10.21048
 Alpha  occ. eigenvalues --  -10.20742 -10.20667 -10.20397 -10.20069 -10.19665
 Alpha  occ. eigenvalues --  -10.19618 -10.19583 -10.19534 -10.19513 -10.19462
 Alpha  occ. eigenvalues --  -10.19358 -10.18984 -10.18415  -1.13615  -1.03202
 Alpha  occ. eigenvalues --   -0.95380  -0.92880  -0.92542  -0.87662  -0.85847
 Alpha  occ. eigenvalues --   -0.83952  -0.81970  -0.78347  -0.77048  -0.75897
 Alpha  occ. eigenvalues --   -0.74803  -0.72460  -0.70751  -0.69433  -0.66444
 Alpha  occ. eigenvalues --   -0.64332  -0.62644  -0.62022  -0.60407  -0.60194
 Alpha  occ. eigenvalues --   -0.59670  -0.58353  -0.56583  -0.54292  -0.53835
 Alpha  occ. eigenvalues --   -0.51740  -0.51107  -0.49964  -0.49602  -0.49045
 Alpha  occ. eigenvalues --   -0.49005  -0.46918  -0.45796  -0.45411  -0.43958
 Alpha  occ. eigenvalues --   -0.43554  -0.43416  -0.42750  -0.42367  -0.42180
 Alpha  occ. eigenvalues --   -0.41945  -0.41611  -0.41233  -0.40904  -0.40484
 Alpha  occ. eigenvalues --   -0.39768  -0.39491  -0.38335  -0.38104  -0.37816
 Alpha  occ. eigenvalues --   -0.37127  -0.36430  -0.35752  -0.34849  -0.34619
 Alpha  occ. eigenvalues --   -0.33584  -0.32623  -0.31273  -0.29797  -0.29582
 Alpha  occ. eigenvalues --   -0.29149  -0.28217  -0.25405  -0.25033  -0.24371
 Alpha  occ. eigenvalues --   -0.23406  -0.22485  -0.21042
 Alpha virt. eigenvalues --   -0.05298  -0.01505  -0.01000  -0.00302   0.00712
 Alpha virt. eigenvalues --    0.03401   0.07836   0.07987   0.09805   0.10138
 Alpha virt. eigenvalues --    0.10665   0.10973   0.11264   0.12018   0.12699

 Mulliken charges:
               1
     1  C   -0.533947
     2  C    0.506619
     3  N   -0.484501
     4  C    0.124350
     5  C    0.583594
     6  O   -0.499959
     7  N   -0.630393
     8  C    0.026383
     9  C   -0.322942
    10  C   -0.299147
    11  C    0.240018
    12  C    0.100925
    13  C   -0.529522
    14  C    0.028066
    15  C    0.052353
    16  C   -0.165956
    17  C   -0.200011
    18  C    0.119295
    19  C    0.115541
    20  C   -0.241881
    21  C   -0.225109
    22  N   -0.541584
    23  C   -0.226263
    24  C   -0.177713
    25  C   -0.196264
    26  C    0.089551
    27  C    0.297007
    28  O   -0.498210
    29  H    0.181571
    30  H    0.198436
    31  H    0.181881
    32  H    0.166346
    33  H    0.167794
    34  H    0.154349
    35  H    0.164119
    36  H    0.170577
    37  H    0.164763
    38  H    0.164532
    39  H    0.171832
    40  H    0.131456
    41  H    0.129192
    42  H    0.132353
    43  H    0.163555
    44  H    0.149796
    45  H    0.300507
    46  H    0.163062
    47  H    0.150192
    48  H    0.135872
    49  H    0.147514
 Sum of Mulliken charges =  -0.00000

 Dipole moment (field-independent basis, Debye):
    X=             -3.1990    Y=             -2.1230    Z=             -2.6812  Tot=              4.6829
 Quadrupole moment (field-independent basis, Debye-Ang):
   XX=           -178.9339   YY=           -144.6057   ZZ=           -161.8684
   XY=            -19.6413   XZ=             -3.2580   YZ=             -1.7778

 Normal termination of Gaussian 16 at Fri Nov  4 21:40:34 2022.
