 Gaussian 16, Revision B.01,
 Gaussian 16:  ES64L-G16RevB.01 20-Dec-2017

 -------------------------------------------------------------------
 #p b3lyp/6-31g(d) 6D 10F nosymm GFInput td=(50-50,nstate=2) SCF=XQC
 -------------------------------------------------------------------

 ------------------------------
 Gaussian input prepared by ASE
 ------------------------------
 Symbolic Z-matrix:
 Charge =  0 Multiplicity = 1

                          Input orientation:
 ---------------------------------------------------------------------
 Center     Atomic      Atomic             Coordinates (Angstroms)
 Number     Number       Type             X           Y           Z
 ---------------------------------------------------------------------
      1          6           0        4.853052    0.868650   -0.000153
      2          6           0        4.312404   -0.572476   -0.033017
      3          6           0        2.803914   -0.638789    0.031744
      4          6           0        1.998872   -0.458837   -1.099335
      5          6           0        0.613683   -0.503219   -0.984052
      6          6           0        0.065497   -0.703084    0.289719
      7          7           0       -1.341163   -0.737331    0.458488
      8          7           0       -1.903945   -1.651775    1.310613
      9          6           0       -3.203404   -1.453781    1.257808
     10          6           0       -3.547782   -0.387731    0.369290
     11          6           0       -4.738757    0.237877   -0.037040
     12          6           0       -4.658443    1.300592   -0.923166
     13          6           0       -3.407632    1.753330   -1.399371
     14          6           0       -2.216915    1.151329   -1.017203
     15          6           0       -2.302296    0.061781   -0.134770
     16          7           0        0.804218   -0.884414    1.383033
     17          6           0        2.131706   -0.864315    1.239618
     18          1           0        4.470907    1.453174   -0.844843
     19          1           0        4.551929    1.379864    0.920885
     20          1           0        5.947625    0.874725   -0.051491
     21          1           0        4.736498   -1.136771    0.806667
     22          1           0        4.661855   -1.068331   -0.947894
     23          1           0        2.454743   -0.310159   -2.075874
     24          1           0       -0.025387   -0.420509   -1.856070
     25          1           0       -3.862474   -2.078061    1.847845
     26          1           0       -5.698799   -0.101517    0.342182
     27          1           0       -5.564569    1.801110   -1.252233
     28          1           0       -3.375556    2.599593   -2.080282
     29          1           0       -1.263654    1.522546   -1.376844
     30          1           0        2.703872   -1.033470    2.151993
 ---------------------------------------------------------------------

 SCF Done:  E(RB3LYP) =  -705.564971260     A.U. after   15 cycles

 Excitation energies and oscillator strengths:

 Excited state symmetry could not be determined.
 Excited State   1:      Triplet-?Sym    3.1337 eV  395.65 nm  f=0.0000  <S**2>=2.000
      53 -> 64         0.10351
      56 -> 62         0.13630
      58 -> 60        -0.21411
      58 -> 61         0.13057
      58 -> 63        -0.10255
      59 -> 60         0.47271
      59 -> 61        -0.32225
      59 -> 62         0.22052
 This state for optimization and/or second-order correction.
 Total Energy, E(TD-HF/TD-DFT) =  -705.449811353
 Copying the excited state density for this state as the 1-particle RhoCI density.

 Excited state symmetry could not be determined.
 Excited State   2:      Triplet-?Sym    3.5638 eV  347.90 nm  f=0.0000  <S**2>=2.000
      54 -> 61        -0.12525
      55 -> 60         0.11155
      55 -> 61         0.12559
      56 -> 60         0.19917
      56 -> 62        -0.15269
      56 -> 63        -0.10320
      58 -> 60        -0.14216
      59 -> 60        -0.32226
      59 -> 62         0.44323

 Excited state symmetry could not be determined.
 Excited State   3:      Singlet-?Sym    4.2951 eV  288.66 nm  f=0.2475  <S**2>=0.000
      59 -> 60         0.66980
      59 -> 61         0.17523

 Excited state symmetry could not be determined.
 Excited State   4:      Singlet-?Sym    4.4897 eV  276.15 nm  f=0.0716  <S**2>=0.000
      59 -> 60        -0.16266
      59 -> 61         0.66172

 Alpha  occ. eigenvalues --  -14.40738 -14.35384 -14.33277 -10.26721 -10.22884
 Alpha  occ. eigenvalues --  -10.22549 -10.21266 -10.20785 -10.20701 -10.20646
 Alpha  occ. eigenvalues --  -10.20006 -10.19833 -10.19630 -10.19551 -10.19138
 Alpha  occ. eigenvalues --  -10.18942 -10.18664  -1.04613  -0.95109  -0.85391
 Alpha  occ. eigenvalues --   -0.84627  -0.82354  -0.78075  -0.76065  -0.74991
 Alpha  occ. eigenvalues --   -0.72579  -0.65800  -0.64591  -0.62980  -0.61152
 Alpha  occ. eigenvalues --   -0.59823  -0.58108  -0.54453  -0.51137  -0.49546
 Alpha  occ. eigenvalues --   -0.48682  -0.46522  -0.45920  -0.45137  -0.44343
 Alpha  occ. eigenvalues --   -0.44145  -0.43181  -0.42003  -0.41432  -0.40236
 Alpha  occ. eigenvalues --   -0.39538  -0.37934  -0.36999  -0.35905  -0.35201
 Alpha  occ. eigenvalues --   -0.34697  -0.34396  -0.29675  -0.29057  -0.28505
 Alpha  occ. eigenvalues --   -0.26069  -0.26030  -0.23925  -0.21257
 Alpha virt. eigenvalues --   -0.03390  -0.02535  -0.01690   0.02417   0.06124
 Alpha virt. eigenvalues --    0.08737   0.09877   0.11130   0.12570   0.13111
 Alpha virt. eigenvalues --    0.13805   0.14891   0.15437   0.15829   0.16703

 Mulliken charges:
               1
     1  C   -0.435702
     2  C   -0.347293
     3  C    0.161011
     4  C   -0.154972
     5  C   -0.164769
     6  C    0.467873
     7  N   -0.495079
     8  N   -0.247918
     9  C    0.020655
    10  C    0.028504
    11  C   -0.201416
    12  C   -0.135058
    13  C   -0.150431
    14  C   -0.146174
    15  C    0.367897
    16  N   -0.436198
    17  C   -0.011701
    18  H    0.148393
    19  H    0.154935
    20  H    0.149708
    21  H    0.151678
    22  H    0.149118
    23  H    0.140034
    24  H    0.155533
    25  H    0.151052
    26  H    0.136438
    27  H    0.129351
    28  H    0.131936
    29  H    0.141132
    30  H    0.141462
 Sum of Mulliken charges =  -0.00000

 Dipole moment (field-independent basis, Debye):
    X=              1.4683    Y=              1.5023    Z=             -2.6865  Tot=              3.4103
 Quadrupole moment (field-independent basis, Debye-Ang):
   XX=            -79.0617   YY=           -100.7559   ZZ=            -98.6510
   XY=             -1.9192   XZ=             -0.2660   YZ=             -0.6275

 Normal termination of Gaussian 16 at Sat Nov  5 09:33:06 2022.
