 Gaussian 16, Revision B.01,
 Gaussian 16:  ES64L-G16RevB.01 20-Dec-2017

 -----------------------------
 #p b3lyp/6-31g(d) opt SCF=XQC
 -----------------------------

 ------------------------------
 Gaussian input prepared by ASE
 ------------------------------
 Symbolic Z-matrix:
 Charge =  0 Multiplicity = 1

 SCF Done:  E(RB3LYP) =  -1298.31018865     A.U. after   15 cycles
 SCF Done:  E(RB3LYP) =  -1298.31380917     A.U. after   12 cycles
 SCF Done:  E(RB3LYP) =  -1298.31404003     A.U. after   11 cycles
 SCF Done:  E(RB3LYP) =  -1298.31412373     A.U. after   11 cycles
 SCF Done:  E(RB3LYP) =  -1298.31417293     A.U. after   11 cycles
 SCF Done:  E(RB3LYP) =  -1298.31421625     A.U. after   11 cycles
 SCF Done:  E(RB3LYP) =  -1298.31425426     A.U. after   11 cycles
 SCF Done:  E(RB3LYP) =  -1298.31426615     A.U. after   11 cycles
 SCF Done:  E(RB3LYP) =  -1298.31427151     A.U. after   11 cycles
 SCF Done:  E(RB3LYP) =  -1298.31427255     A.U. after    9 cycles
 SCF Done:  E(RB3LYP) =  -1298.31427278     A.U. after    8 cycles
 SCF Done:  E(RB3LYP) =  -1298.31427282     A.U. after    7 cycles
 Optimization completed.
    -- Stationary point found.

                         Standard orientation:
 ---------------------------------------------------------------------
 Center     Atomic      Atomic             Coordinates (Angstroms)
 Number     Number       Type             X           Y           Z
 ---------------------------------------------------------------------
      1          8           0       -3.955544   -1.918229   -0.386483
      2          6           0       -4.170344   -0.638666   -0.036916
      3          6           0       -3.123408    0.132700    0.384336
      4          6           0       -1.700277   -0.311494    0.524178
      5          7           0       -0.796932    0.617779   -0.139815
      6          6           0        0.585543    0.424196   -0.077897
      7          6           0        1.166029   -0.814462    0.242609
      8          6           0        2.551262   -0.965705    0.245063
      9          6           0        3.415594    0.095580   -0.060571
     10          6           0        4.888991   -0.075205   -0.050394
     11          6           0        5.701539    0.582115   -0.990940
     12          6           0        7.086542    0.423953   -0.980719
     13          6           0        7.694481   -0.400537   -0.032211
     14          6           0        6.901894   -1.062548    0.907318
     15          6           0        5.517535   -0.899222    0.899812
     16          6           0        2.822349    1.331952   -0.376211
     17          6           0        1.444840    1.496400   -0.385725
     18          8           0       -3.320531    1.432720    0.756235
     19          6           0       -4.552847    1.971371    0.697732
     20          6           0       -5.637972    1.271446    0.288713
     21          6           0       -5.517685   -0.098882   -0.111778
     22         16           0       -6.779315   -1.070590   -0.642655
     23          1           0       -4.841890   -2.260731   -0.668825
     24          1           0       -1.457672   -0.432176    1.597315
     25          1           0       -1.623536   -1.300277    0.065191
     26          1           0       -1.069900    1.585879   -0.021956
     27          1           0        0.543228   -1.671309    0.477298
     28          1           0        2.966983   -1.943970    0.470565
     29          1           0        5.238796    1.202062   -1.754011
     30          1           0        7.691322    0.938062   -1.723472
     31          1           0        8.773871   -0.525855   -0.025311
     32          1           0        7.363395   -1.700633    1.656733
     33          1           0        4.915287   -1.395980    1.655623
     34          1           0        3.454886    2.188654   -0.592078
     35          1           0        1.018512    2.467401   -0.630317
     36          1           0       -4.553209    3.006722    1.015103
     37          1           0       -6.608316    1.753267    0.262925
 ---------------------------------------------------------------------

 The electronic state is 1-A.
 Alpha  occ. eigenvalues --  -88.84924 -19.26674 -19.19130 -14.35636 -10.29654
 Alpha  occ. eigenvalues --  -10.28984 -10.28294 -10.26554 -10.24762 -10.23184
 Alpha  occ. eigenvalues --  -10.22949 -10.19424 -10.18937 -10.18889 -10.18841
 Alpha  occ. eigenvalues --  -10.18737 -10.18619 -10.18593 -10.18582 -10.18449
 Alpha  occ. eigenvalues --  -10.18389 -10.18385  -7.91135  -5.87580  -5.87204
 Alpha  occ. eigenvalues --   -5.86735  -1.15460  -1.08072  -0.94718  -0.86018
 Alpha  occ. eigenvalues --   -0.85678  -0.84225  -0.82515  -0.76919  -0.75331
 Alpha  occ. eigenvalues --   -0.74695  -0.73753  -0.72416  -0.69341  -0.68528
 Alpha  occ. eigenvalues --   -0.62545  -0.61831  -0.60637  -0.58862  -0.57501
 Alpha  occ. eigenvalues --   -0.57372  -0.55971  -0.53683  -0.52637  -0.51346
 Alpha  occ. eigenvalues --   -0.50923  -0.48674  -0.47268  -0.46708  -0.45919
 Alpha  occ. eigenvalues --   -0.45025  -0.44329  -0.43602  -0.42599  -0.42214
 Alpha  occ. eigenvalues --   -0.41916  -0.41841  -0.41468  -0.41201  -0.38501
 Alpha  occ. eigenvalues --   -0.37978  -0.37468  -0.35945  -0.35637  -0.34736
 Alpha  occ. eigenvalues --   -0.34547  -0.33633  -0.33021  -0.30442  -0.27630
 Alpha  occ. eigenvalues --   -0.25059  -0.24817  -0.24528  -0.23157  -0.22881
 Alpha  occ. eigenvalues --   -0.19567
 Alpha virt. eigenvalues --   -0.08712  -0.02596  -0.01749  -0.00200   0.00483
 Alpha virt. eigenvalues --    0.03944   0.06443   0.08239   0.09184   0.09439
 Alpha virt. eigenvalues --    0.09665   0.09987   0.10835   0.11808   0.13571

 Mulliken charges:
               1
     1  O   -0.633746
     2  C    0.290350
     3  C    0.293885
     4  C   -0.170720
     5  N   -0.671633
     6  C    0.361902
     7  C   -0.187248
     8  C   -0.188299
     9  C    0.088133
    10  C    0.092032
    11  C   -0.176620
    12  C   -0.133584
    13  C   -0.128674
    14  C   -0.133672
    15  C   -0.176122
    16  C   -0.180881
    17  C   -0.194114
    18  O   -0.454023
    19  C    0.123054
    20  C   -0.181577
    21  C   -0.034609
    22  S   -0.234977
    23  H    0.419206
    24  H    0.163871
    25  H    0.205005
    26  H    0.324611
    27  H    0.130383
    28  H    0.132612
    29  H    0.128861
    30  H    0.127782
    31  H    0.126918
    32  H    0.127690
    33  H    0.127997
    34  H    0.131587
    35  H    0.118184
    36  H    0.185032
    37  H    0.181401
 Sum of Mulliken charges =  -0.00000

 Dipole moment (field-independent basis, Debye):
    X=              0.8327    Y=              3.2988    Z=              1.9675  Tot=              3.9302
 Quadrupole moment (field-independent basis, Debye-Ang):
   XX=           -151.2544   YY=           -122.9968   ZZ=           -135.2333
   XY=            -17.4752   XZ=             -8.5587   YZ=             -2.9862

 Normal termination of Gaussian 16 at Fri Nov  4 21:47:53 2022.
