 Gaussian 16, Revision B.01,
 Gaussian 16:  ES64L-G16RevB.01 20-Dec-2017

 -----------------------------
 #p b3lyp/6-31g(d) opt SCF=XQC
 -----------------------------

 ------------------------------
 Gaussian input prepared by ASE
 ------------------------------
 Symbolic Z-matrix:
 Charge =  0 Multiplicity = 1

 SCF Done:  E(RB3LYP) =  -705.560907668     A.U. after   15 cycles
 SCF Done:  E(RB3LYP) =  -705.564734387     A.U. after   12 cycles
 SCF Done:  E(RB3LYP) =  -705.564908980     A.U. after   11 cycles
 SCF Done:  E(RB3LYP) =  -705.564939485     A.U. after   11 cycles
 SCF Done:  E(RB3LYP) =  -705.564949167     A.U. after    9 cycles
 SCF Done:  E(RB3LYP) =  -705.564957877     A.U. after   10 cycles
 SCF Done:  E(RB3LYP) =  -705.564962240     A.U. after    9 cycles
 SCF Done:  E(RB3LYP) =  -705.564965473     A.U. after    9 cycles
 SCF Done:  E(RB3LYP) =  -705.564969311     A.U. after    9 cycles
 SCF Done:  E(RB3LYP) =  -705.564970849     A.U. after    9 cycles
 SCF Done:  E(RB3LYP) =  -705.564971246     A.U. after    8 cycles
 SCF Done:  E(RB3LYP) =  -705.564971383     A.U. after    8 cycles
 Optimization completed.
    -- Stationary point found.

                         Standard orientation:
 ---------------------------------------------------------------------
 Center     Atomic      Atomic             Coordinates (Angstroms)
 Number     Number       Type             X           Y           Z
 ---------------------------------------------------------------------
      1          6           0        5.192367   -1.176276   -0.831488
      2          6           0        4.756616   -0.124072    0.204470
      3          6           0        3.260283    0.085386    0.239780
      4          6           0        2.403332   -0.764899    0.948629
      5          6           0        1.030161   -0.545722    0.929412
      6          6           0        0.545030    0.522713    0.163877
      7          7           0       -0.848311    0.773354    0.099629
      8          7           0       -1.311747    2.062974    0.133612
      9          6           0       -2.623190    1.985286    0.065300
     10          6           0       -3.076232    0.632163   -0.025993
     11          6           0       -4.323485   -0.005431   -0.138874
     12          6           0       -4.352907   -1.387458   -0.239698
     13          6           0       -3.156484   -2.139021   -0.240580
     14          6           0       -1.912085   -1.535071   -0.126666
     15          6           0       -1.885906   -0.135974   -0.004453
     16          7           0        1.334591    1.352962   -0.515242
     17          6           0        2.650977    1.136176   -0.457552
     18          1           0        4.738149   -2.150933   -0.619506
     19          1           0        4.889057   -0.881146   -1.842046
     20          1           0        6.281003   -1.301136   -0.824823
     21          1           0        5.250996    0.829360   -0.018936
     22          1           0        5.107210   -0.429692    1.198789
     23          1           0        2.811073   -1.583518    1.537834
     24          1           0        0.355187   -1.159668    1.515200
     25          1           0       -3.213225    2.892775    0.089073
     26          1           0       -5.241865    0.575119   -0.153691
     27          1           0       -5.304359   -1.903951   -0.328254
     28          1           0       -3.210780   -3.219949   -0.337916
     29          1           0       -1.002048   -2.124338   -0.147855
     30          1           0        3.267006    1.845243   -1.010856
 ---------------------------------------------------------------------

 The electronic state is 1-A.
 Alpha  occ. eigenvalues --  -14.40738 -14.35384 -14.33277 -10.26721 -10.22884
 Alpha  occ. eigenvalues --  -10.22549 -10.21266 -10.20785 -10.20701 -10.20646
 Alpha  occ. eigenvalues --  -10.20006 -10.19833 -10.19630 -10.19551 -10.19138
 Alpha  occ. eigenvalues --  -10.18942 -10.18665  -1.04613  -0.95109  -0.85391
 Alpha  occ. eigenvalues --   -0.84627  -0.82354  -0.78075  -0.76065  -0.74991
 Alpha  occ. eigenvalues --   -0.72579  -0.65800  -0.64591  -0.62980  -0.61152
 Alpha  occ. eigenvalues --   -0.59823  -0.58108  -0.54453  -0.51137  -0.49546
 Alpha  occ. eigenvalues --   -0.48682  -0.46522  -0.45920  -0.45137  -0.44343
 Alpha  occ. eigenvalues --   -0.44145  -0.43181  -0.42003  -0.41432  -0.40236
 Alpha  occ. eigenvalues --   -0.39538  -0.37934  -0.36999  -0.35905  -0.35201
 Alpha  occ. eigenvalues --   -0.34697  -0.34396  -0.29675  -0.29057  -0.28505
 Alpha  occ. eigenvalues --   -0.26069  -0.26030  -0.23925  -0.21257
 Alpha virt. eigenvalues --   -0.03390  -0.02535  -0.01690   0.02417   0.06124
 Alpha virt. eigenvalues --    0.08737   0.09877   0.11130   0.12570   0.13111
 Alpha virt. eigenvalues --    0.13805   0.14891   0.15437   0.15829   0.16703

 Mulliken charges:
               1
     1  C   -0.435701
     2  C   -0.347300
     3  C    0.161027
     4  C   -0.154988
     5  C   -0.164740
     6  C    0.467839
     7  N   -0.495084
     8  N   -0.247918
     9  C    0.020657
    10  C    0.028496
    11  C   -0.201414
    12  C   -0.135055
    13  C   -0.150432
    14  C   -0.146182
    15  C    0.367915
    16  N   -0.436181
    17  C   -0.011710
    18  H    0.148393
    19  H    0.154935
    20  H    0.149708
    21  H    0.151680
    22  H    0.149119
    23  H    0.140033
    24  H    0.155533
    25  H    0.151052
    26  H    0.136437
    27  H    0.129350
    28  H    0.131936
    29  H    0.141133
    30  H    0.141462
 Sum of Mulliken charges =  -0.00000

 Dipole moment (field-independent basis, Debye):
    X=              1.2561    Y=             -3.0524    Z=              0.8576  Tot=              3.4103
 Quadrupole moment (field-independent basis, Debye-Ang):
   XX=            -77.8903   YY=            -98.0960   ZZ=           -100.5461
   XY=             -1.8976   XZ=              1.1427   YZ=             -0.9843

 1\1\GINC-NODE92\FOpt\RB3LYP\6-31G(d)\C14H13N3\WYKGROUP\04-Nov-2022\0\\
 #p b3lyp/6-31g(d) opt SCF=XQC\\Gaussian input prepared by ASE\\0,1\C,4
 .8530522328,0.8686496065,-0.0001527263\C,4.312403537,-0.5724756278,-0.
 0330170878\C,2.8039143098,-0.6387894823,0.0317441093\C,1.998872352,-0.
 4588369093,-1.0993345434\C,0.6136833905,-0.5032185229,-0.9840524798\C,
 0.0654970944,-0.7030841621,0.2897192216\N,-1.341162909,-0.7373311225,0
 .4584881648\N,-1.9039449377,-1.6517750497,1.3106131657\C,-3.2034039181
 ,-1.4537811051,1.257807898\C,-3.5477821895,-0.387730779,0.3692899926\C

 Normal termination of Gaussian 16 at Fri Nov  4 21:36:26 2022.
