 Gaussian 16, Revision B.01,
 Gaussian 16:  ES64L-G16RevB.01 20-Dec-2017

 -------------------------------------------------------------------
 #p b3lyp/6-31g(d) 6D 10F nosymm GFInput td=(50-50,nstate=2) SCF=XQC
 -------------------------------------------------------------------

 ------------------------------
 Gaussian input prepared by ASE
 ------------------------------
 Symbolic Z-matrix:
 Charge =  0 Multiplicity = 1

                          Input orientation:
 ---------------------------------------------------------------------
 Center     Atomic      Atomic             Coordinates (Angstroms)
 Number     Number       Type             X           Y           Z
 ---------------------------------------------------------------------
      1          8           0       -4.397958    0.879079    2.731726
      2          6           0       -4.825544    0.714073    1.468571
      3          6           0       -3.919310    0.685485    0.445607
      4          6           0       -2.435884    0.842154    0.576260
      5          7           0       -1.735655   -0.224528   -0.125407
      6          6           0       -0.339528   -0.233921   -0.182726
      7          6           0        0.463003    0.488746    0.715972
      8          6           0        1.852286    0.408051    0.644320
      9          6           0        2.502711   -0.379782   -0.316447
     10          6           0        3.982438   -0.454785   -0.386809
     11          6           0        4.632532   -1.656920   -0.717231
     12          6           0        6.023084   -1.727766   -0.785779
     13          6           0        6.799967   -0.598632   -0.520171
     14          6           0        6.170305    0.602374   -0.188089
     15          6           0        4.779558    0.673589   -0.125396
     16          6           0        1.688204   -1.095789   -1.213162
     17          6           0        0.303925   -1.027556   -1.151685
     18          8           0       -4.332406    0.530945   -0.847717
     19          6           0       -5.642281    0.391478   -1.125111
     20          6           0       -6.598396    0.406905   -0.165791
     21          6           0       -6.249288    0.571082    1.214003
     22         16           0       -7.334631    0.601000    2.494196
     23          1           0       -5.218049    0.848240    3.287724
     24          1           0       -2.139555    1.844269    0.211567
     25          1           0       -2.199607    0.806503    1.642633
     26          1           0       -2.172731   -0.471794   -1.004864
     27          1           0        0.011250    1.106068    1.485374
     28          1           0        2.443150    0.957989    1.371730
     29          1           0        4.041167   -2.550870   -0.895789
     30          1           0        6.501074   -2.671326   -1.036718
     31          1           0        7.884012   -0.654005   -0.571306
     32          1           0        6.763222    1.491165    0.012559
     33          1           0        4.301405    1.621941    0.104213
     34          1           0        2.150193   -1.696880   -1.991557
     35          1           0       -0.296720   -1.590949   -1.863190
     36          1           0       -5.816532    0.271593   -2.187156
     37          1           0       -7.639411    0.292775   -0.444443
 ---------------------------------------------------------------------

 SCF Done:  E(RB3LYP) =  -1298.31426907     A.U. after   15 cycles

 Excitation energies and oscillator strengths:

 Excited state symmetry could not be determined.
 Excited State   1:      Triplet-?Sym    2.0499 eV  604.83 nm  f=0.0000  <S**2>=2.000
      80 -> 82         0.70190
      80 <- 82         0.11571
 This state for optimization and/or second-order correction.
 Total Energy, E(TD-HF/TD-DFT) =  -1298.23893608
 Copying the excited state density for this state as the 1-particle RhoCI density.

 Excited state symmetry could not be determined.
 Excited State   2:      Triplet-?Sym    2.4317 eV  509.87 nm  f=0.0000  <S**2>=2.000
      79 -> 82        -0.21081
      81 -> 82         0.67090

 Excited state symmetry could not be determined.
 Excited State   3:      Singlet-?Sym    2.4546 eV  505.10 nm  f=0.0005  <S**2>=0.000
      81 -> 82         0.70310

 Excited state symmetry could not be determined.
 Excited State   4:      Singlet-?Sym    2.8141 eV  440.58 nm  f=0.0001  <S**2>=0.000
      79 -> 82         0.69549
      80 -> 82         0.11560

 Alpha  occ. eigenvalues --  -88.84924 -19.26674 -19.19130 -14.35636 -10.29654
 Alpha  occ. eigenvalues --  -10.28984 -10.28294 -10.26554 -10.24762 -10.23184
 Alpha  occ. eigenvalues --  -10.22949 -10.19424 -10.18937 -10.18889 -10.18841
 Alpha  occ. eigenvalues --  -10.18737 -10.18619 -10.18593 -10.18582 -10.18449
 Alpha  occ. eigenvalues --  -10.18389 -10.18385  -7.91135  -5.87580  -5.87204
 Alpha  occ. eigenvalues --   -5.86735  -1.15460  -1.08072  -0.94718  -0.86018
 Alpha  occ. eigenvalues --   -0.85678  -0.84225  -0.82515  -0.76919  -0.75331
 Alpha  occ. eigenvalues --   -0.74695  -0.73753  -0.72416  -0.69340  -0.68528
 Alpha  occ. eigenvalues --   -0.62545  -0.61831  -0.60637  -0.58862  -0.57501
 Alpha  occ. eigenvalues --   -0.57371  -0.55971  -0.53683  -0.52637  -0.51346
 Alpha  occ. eigenvalues --   -0.50923  -0.48674  -0.47268  -0.46708  -0.45919
 Alpha  occ. eigenvalues --   -0.45025  -0.44329  -0.43602  -0.42599  -0.42214
 Alpha  occ. eigenvalues --   -0.41916  -0.41841  -0.41468  -0.41201  -0.38501
 Alpha  occ. eigenvalues --   -0.37978  -0.37467  -0.35945  -0.35637  -0.34736
 Alpha  occ. eigenvalues --   -0.34547  -0.33633  -0.33021  -0.30442  -0.27630
 Alpha  occ. eigenvalues --   -0.25059  -0.24817  -0.24528  -0.23156  -0.22881
 Alpha  occ. eigenvalues --   -0.19567
 Alpha virt. eigenvalues --   -0.08712  -0.02596  -0.01749  -0.00200   0.00483
 Alpha virt. eigenvalues --    0.03944   0.06443   0.08239   0.09184   0.09439
 Alpha virt. eigenvalues --    0.09665   0.09987   0.10835   0.11808   0.13571

 Mulliken charges:
               1
     1  O   -0.633748
     2  C    0.290332
     3  C    0.293877
     4  C   -0.170706
     5  N   -0.671631
     6  C    0.361887
     7  C   -0.187239
     8  C   -0.188294
     9  C    0.088123
    10  C    0.092047
    11  C   -0.176637
    12  C   -0.133578
    13  C   -0.128666
    14  C   -0.133678
    15  C   -0.176130
    16  C   -0.180873
    17  C   -0.194111
    18  O   -0.454034
    19  C    0.123091
    20  C   -0.181618
    21  C   -0.034573
    22  S   -0.234976
    23  H    0.419206
    24  H    0.163870
    25  H    0.205003
    26  H    0.324610
    27  H    0.130384
    28  H    0.132612
    29  H    0.128862
    30  H    0.127781
    31  H    0.126918
    32  H    0.127690
    33  H    0.127998
    34  H    0.131587
    35  H    0.118184
    36  H    0.185031
    37  H    0.181401
 Sum of Mulliken charges =  -0.00000

 Dipole moment (field-independent basis, Debye):
    X=              0.2971    Y=              0.4048    Z=             -3.8980  Tot=              3.9302
 Quadrupole moment (field-independent basis, Debye-Ang):
   XX=           -145.2387   YY=           -131.0945   ZZ=           -135.5848
   XY=              1.5187   XZ=             26.0213   YZ=              4.0894

 Normal termination of Gaussian 16 at Sat Nov  5 09:33:04 2022.
