 Gaussian 16, Revision B.01,
 Gaussian 16:  ES64L-G16RevB.01 20-Dec-2017

 -----------------------------
 #p b3lyp/6-31g(d) opt SCF=XQC
 -----------------------------

 ------------------------------
 Gaussian input prepared by ASE
 ------------------------------
 Symbolic Z-matrix:
 Charge =  0 Multiplicity = 1

 SCF Done:  E(RB3LYP) =  -1306.91757274     A.U. after   15 cycles
 SCF Done:  E(RB3LYP) =  -1306.92093893     A.U. after   15 cycles
 SCF Done:  E(RB3LYP) =  -1306.92585200     A.U. after   11 cycles
 SCF Done:  E(RB3LYP) =  -1306.92187622     A.U. after   14 cycles
 SCF Done:  E(RB3LYP) =  -1306.92933265     A.U. after   12 cycles
 SCF Done:  E(RB3LYP) =  -1306.93014879     A.U. after   12 cycles
 SCF Done:  E(RB3LYP) =  -1306.93070037     A.U. after   12 cycles
 SCF Done:  E(RB3LYP) =  -1306.93082063     A.U. after   12 cycles
 SCF Done:  E(RB3LYP) =  -1306.93105145     A.U. after   12 cycles
 SCF Done:  E(RB3LYP) =  -1306.93115786     A.U. after   11 cycles
 SCF Done:  E(RB3LYP) =  -1306.93132043     A.U. after   10 cycles
 SCF Done:  E(RB3LYP) =  -1306.93132483     A.U. after    9 cycles
 SCF Done:  E(RB3LYP) =  -1306.93132565     A.U. after    9 cycles
 SCF Done:  E(RB3LYP) =  -1306.93132605     A.U. after    8 cycles
 SCF Done:  E(RB3LYP) =  -1306.93132643     A.U. after    9 cycles
 SCF Done:  E(RB3LYP) =  -1306.93132665     A.U. after    7 cycles
 SCF Done:  E(RB3LYP) =  -1306.93132682     A.U. after    8 cycles
 SCF Done:  E(RB3LYP) =  -1306.93132693     A.U. after    7 cycles
 SCF Done:  E(RB3LYP) =  -1306.93132711     A.U. after    8 cycles
 SCF Done:  E(RB3LYP) =  -1306.93132715     A.U. after    7 cycles
 Optimization completed.
    -- Stationary point found.

                         Standard orientation:
 ---------------------------------------------------------------------
 Center     Atomic      Atomic             Coordinates (Angstroms)
 Number     Number       Type             X           Y           Z
 ---------------------------------------------------------------------
      1          6           0       -0.497900   -1.875068    2.183266
      2          6           0       -1.781757   -1.070963    1.885473
      3          6           0       -2.709142   -1.036460    3.107073
      4          6           0       -1.404463    0.364962    1.485194
      5          8           0       -1.395622    1.255365    2.332876
      6          7           0       -1.005299    0.642130    0.183938
      7          6           0       -0.753079    2.069621   -0.131338
      8          6           0        0.679807    2.551991    0.035729
      9          6           0        1.388985    3.036148   -1.071298
     10          6           0        2.693282    3.516954   -0.934029
     11          6           0        3.309464    3.514280    0.318533
     12          6           0        2.609912    3.035676    1.429515
     13          6           0        1.303240    2.564291    1.293618
     14          6           0       -1.118157   -0.301070   -0.938711
     15          6           0       -2.318143   -0.037642   -1.883051
     16          6           0       -3.659952   -0.271041   -1.225765
     17          6           0       -4.323699    0.753322   -0.536432
     18          6           0       -5.548399    0.519628    0.092299
     19          6           0       -6.132976   -0.746778    0.040194
     20          6           0       -5.486844   -1.775352   -0.648659
     21          6           0       -4.263467   -1.536655   -1.275818
     22          6           0        0.200854   -0.430525   -1.749924
     23          8           0        0.189973   -0.620563   -2.961352
     24          7           0        1.333507   -0.430946   -0.996452
     25          6           0        2.667767   -0.505168   -1.589403
     26          6           0        3.616073   -1.315223   -0.730716
     27          6           0        4.628186   -0.685984    0.001936
     28          6           0        5.497754   -1.431440    0.802049
     29          6           0        5.361689   -2.817374    0.878174
     30          6           0        4.351833   -3.455280    0.151963
     31          6           0        3.486297   -2.708711   -0.645472
     32          1           0       -0.754980   -2.887828    2.512793
     33          1           0        0.156915   -1.963727    1.308904
     34          1           0        0.073556   -1.394239    2.985414
     35          1           0       -2.326346   -1.560673    1.072799
     36          1           0       -2.225568   -0.534240    3.948774
     37          1           0       -3.634851   -0.498367    2.881127
     38          1           0       -2.969726   -2.058543    3.404266
     39          1           0       -1.409901    2.652963    0.519290
     40          1           0       -1.062416    2.239923   -1.165261
     41          1           0        0.917768    3.035850   -2.051941
     42          1           0        3.224397    3.893291   -1.804526
     43          1           0        4.323022    3.890610    0.430204
     44          1           0        3.078620    3.041223    2.410265
     45          1           0        0.748956    2.217471    2.159759
     46          1           0       -1.261978   -1.293442   -0.507032
     47          1           0       -2.186218   -0.702945   -2.740178
     48          1           0       -2.259910    0.980169   -2.283625
     49          1           0       -3.882858    1.746584   -0.497420
     50          1           0       -6.046684    1.329294    0.618924
     51          1           0       -7.087510   -0.929204    0.526367
     52          1           0       -5.938802   -2.762305   -0.704534
     53          1           0       -3.771585   -2.340311   -1.820433
     54          1           0        1.265097   -0.092575   -0.045393
     55          1           0        3.064845    0.507518   -1.737248
     56          1           0        2.535747   -0.955378   -2.576720
     57          1           0        4.731785    0.395476   -0.051657
     58          1           0        6.279930   -0.928264    1.364485
     59          1           0        6.038229   -3.399533    1.498225
     60          1           0        4.243082   -4.535484    0.204425
     61          1           0        2.702127   -3.206845   -1.211054
 ---------------------------------------------------------------------

 The electronic state is 1-A.
 Alpha  occ. eigenvalues --  -19.11697 -19.11465 -14.37210 -14.36006 -10.28897
 Alpha  occ. eigenvalues --  -10.28626 -10.24398 -10.22657 -10.22225 -10.20022
 Alpha  occ. eigenvalues --  -10.20008 -10.19947 -10.19852 -10.19464 -10.19377
 Alpha  occ. eigenvalues --  -10.19345 -10.19331 -10.19297 -10.19270 -10.19258
 Alpha  occ. eigenvalues --  -10.19247 -10.19229 -10.19178 -10.19139 -10.19130
 Alpha  occ. eigenvalues --  -10.19114 -10.19104 -10.19081 -10.18659 -10.18462
 Alpha  occ. eigenvalues --  -10.16901  -1.03786  -1.03296  -0.93994  -0.91955
 Alpha  occ. eigenvalues --   -0.85821  -0.85531  -0.85411  -0.79973  -0.79355
 Alpha  occ. eigenvalues --   -0.77057  -0.76704  -0.74569  -0.74548  -0.74542
 Alpha  occ. eigenvalues --   -0.73550  -0.69582  -0.69298  -0.68404  -0.65212
 Alpha  occ. eigenvalues --   -0.61945  -0.60808  -0.60728  -0.60575  -0.59001
 Alpha  occ. eigenvalues --   -0.58675  -0.58612  -0.57779  -0.54858  -0.52885
 Alpha  occ. eigenvalues --   -0.51699  -0.51552  -0.50550  -0.50467  -0.47617
 Alpha  occ. eigenvalues --   -0.47246  -0.46579  -0.45945  -0.45847  -0.45528
 Alpha  occ. eigenvalues --   -0.45281  -0.44600  -0.44206  -0.43822  -0.42803
 Alpha  occ. eigenvalues --   -0.42470  -0.42125  -0.42099  -0.41907  -0.41633
 Alpha  occ. eigenvalues --   -0.41065  -0.40789  -0.39631  -0.39425  -0.38838
 Alpha  occ. eigenvalues --   -0.38525  -0.37974  -0.37073  -0.36780  -0.36244
 Alpha  occ. eigenvalues --   -0.36015  -0.35713  -0.35399  -0.34681  -0.34516
 Alpha  occ. eigenvalues --   -0.34228  -0.34055  -0.33984  -0.33830  -0.33725
 Alpha  occ. eigenvalues --   -0.33112  -0.27382  -0.26302  -0.25528  -0.25364
 Alpha  occ. eigenvalues --   -0.25212  -0.25077  -0.24985  -0.24633  -0.24005
 Alpha  occ. eigenvalues --   -0.23135
 Alpha virt. eigenvalues --   -0.01015  -0.00800  -0.00603  -0.00396  -0.00336
 Alpha virt. eigenvalues --   -0.00224   0.01938   0.02051   0.08033   0.08544
 Alpha virt. eigenvalues --    0.08972   0.09304   0.10385   0.11663   0.12085

 Mulliken charges:
               1
     1  C   -0.461321
     2  C   -0.179615
     3  C   -0.436500
     4  C    0.617764
     5  O   -0.525994
     6  N   -0.461852
     7  C   -0.243044
     8  C    0.145540
     9  C   -0.183563
    10  C   -0.134000
    11  C   -0.132655
    12  C   -0.129797
    13  C   -0.195999
    14  C   -0.089455
    15  C   -0.359840
    16  C    0.163607
    17  C   -0.181626
    18  C   -0.128087
    19  C   -0.130878
    20  C   -0.126659
    21  C   -0.188769
    22  C    0.614951
    23  O   -0.528834
    24  N   -0.592853
    25  C   -0.215380
    26  C    0.140391
    27  C   -0.186188
    28  C   -0.127858
    29  C   -0.128256
    30  C   -0.129915
    31  C   -0.167738
    32  H    0.153957
    33  H    0.150103
    34  H    0.162111
    35  H    0.154458
    36  H    0.165618
    37  H    0.156866
    38  H    0.132979
    39  H    0.194823
    40  H    0.155458
    41  H    0.134210
    42  H    0.133633
    43  H    0.131179
    44  H    0.134181
    45  H    0.176201
    46  H    0.184419
    47  H    0.185588
    48  H    0.155746
    49  H    0.131676
    50  H    0.134671
    51  H    0.131506
    52  H    0.131445
    53  H    0.128503
    54  H    0.347103
    55  H    0.163704
    56  H    0.191689
    57  H    0.135328
    58  H    0.130715
    59  H    0.130763
    60  H    0.131399
    61  H    0.134390
 Sum of Mulliken charges =  -0.00000

 Dipole moment (field-independent basis, Debye):
    X=              0.7765    Y=             -0.9774    Z=              0.7808  Tot=              1.4724
 Quadrupole moment (field-independent basis, Debye-Ang):
   XX=           -166.3631   YY=           -173.5568   ZZ=           -195.2935
   XY=              6.1393   XZ=              4.4489   YZ=             -8.1496

 Normal termination of Gaussian 16 at Fri Nov  4 22:30:37 2022.
