 Gaussian 16, Revision B.01,
 Gaussian 16:  ES64L-G16RevB.01 20-Dec-2017

 -------------------------------------------------------------------
 #p b3lyp/6-31g(d) 6D 10F nosymm GFInput td=(50-50,nstate=2) SCF=XQC
 -------------------------------------------------------------------

 ------------------------------
 Gaussian input prepared by ASE
 ------------------------------
 Symbolic Z-matrix:
 Charge =  0 Multiplicity = 1

                          Input orientation:
 ---------------------------------------------------------------------
 Center     Atomic      Atomic             Coordinates (Angstroms)
 Number     Number       Type             X           Y           Z
 ---------------------------------------------------------------------
      1          6           0       -1.167971   -0.096091   -2.504332
      2          6           0       -1.847002    0.991769   -1.644663
      3          6           0       -3.268932    1.282590   -2.141733
      4          6           0       -1.898983    0.527350   -0.179716
      5          8           0       -2.907495   -0.027626    0.251981
      6          7           0       -0.783125    0.669944    0.635116
      7          6           0       -0.958594    0.281357    2.056016
      8          6           0       -0.596515   -1.152896    2.410376
      9          6           0        0.433044   -1.409314    3.325313
     10          6           0        0.758443   -2.717348    3.691878
     11          6           0        0.057446   -3.791165    3.140409
     12          6           0       -0.972811   -3.546072    2.228699
     13          6           0       -1.304023   -2.238511    1.870027
     14          6           0        0.414466    1.444360    0.276285
     15          6           0        0.494708    2.846587    0.930854
     16          6           0       -0.573453    3.798293    0.440712
     17          6           0       -1.826125    3.874662    1.065247
     18          6           0       -2.816031    4.735422    0.586725
     19          6           0       -2.568012    5.538769   -0.527434
     20          6           0       -1.322459    5.478595   -1.155883
     21          6           0       -0.336338    4.617279   -0.673538
     22          6           0        1.732543    0.654415    0.507097
     23          8           0        2.761271    1.218263    0.864284
     24          7           0        1.671421   -0.662820    0.172760
     25          6           0        2.802430   -1.570473    0.358047
     26          6           0        2.879670   -2.599700   -0.749898
     27          6           0        2.537498   -3.934413   -0.507919
     28          6           0        2.599244   -4.883025   -1.531812
     29          6           0        3.003648   -4.503944   -2.811608
     30          6           0        3.345087   -3.172130   -3.064206
     31          6           0        3.282702   -2.228440   -2.040498
     32          1           0       -1.164496    0.203474   -3.558187
     33          1           0       -0.130043   -0.282898   -2.206073
     34          1           0       -1.717386   -1.041027   -2.424088
     35          1           0       -1.273115    1.919382   -1.728439
     36          1           0       -3.899538    0.393754   -2.059060
     37          1           0       -3.733706    2.080516   -1.554510
     38          1           0       -3.237897    1.600929   -3.189864
     39          1           0       -2.008849    0.460840    2.300496
     40          1           0       -0.349734    0.956872    2.661538
     41          1           0        0.988081   -0.577970    3.754857
     42          1           0        1.557122   -2.894687    4.407518
     43          1           0        0.305312   -4.810318    3.425513
     44          1           0       -1.531127   -4.376356    1.803845
     45          1           0       -2.121494   -2.045128    1.182960
     46          1           0        0.382754    1.596529   -0.804304
     47          1           0        1.491443    3.234252    0.705172
     48          1           0        0.451473    2.751232    2.021188
     49          1           0       -2.027541    3.260917    1.939993
     50          1           0       -3.779205    4.780321    1.088182
     51          1           0       -3.336374    6.211346   -0.898968
     52          1           0       -1.115337    6.107961   -2.017545
     53          1           0        0.635784    4.584391   -1.161713
     54          1           0        0.755090   -1.077516    0.062962
     55          1           0        2.721140   -2.070439    1.331951
     56          1           0        3.695284   -0.940350    0.383970
     57          1           0        2.216108   -4.230412    0.488200
     58          1           0        2.331348   -5.916464   -1.327964
     59          1           0        3.054466   -5.240482   -3.609109
     60          1           0        3.664454   -2.871377   -4.058677
     61          1           0        3.550224   -1.192969   -2.238429
 ---------------------------------------------------------------------

 SCF Done:  E(RB3LYP) =  -1306.93133005     A.U. after   15 cycles

 Excitation energies and oscillator strengths:

 Excited state symmetry could not be determined.
 Excited State   1:      Triplet-?Sym    3.7329 eV  332.14 nm  f=0.0000  <S**2>=2.000
     103 ->112        -0.13228
     104 ->114         0.13685
     104 ->115        -0.13748
     105 ->114        -0.17355
     105 ->115         0.13365
     106 ->112         0.18954
     106 ->113        -0.11580
     106 ->114         0.18380
     108 ->112        -0.24969
     109 ->112         0.17623
     110 ->112         0.25089
     110 ->115         0.10499
     111 ->112         0.13850
 This state for optimization and/or second-order correction.
 Total Energy, E(TD-HF/TD-DFT) =  -1306.79414945
 Copying the excited state density for this state as the 1-particle RhoCI density.

 Excited state symmetry could not be determined.
 Excited State   2:      Triplet-?Sym    3.7365 eV  331.82 nm  f=0.0000  <S**2>=2.000
     103 ->113        -0.18888
     105 ->116         0.19360
     105 ->117        -0.13276
     106 ->116         0.20936
     106 ->117        -0.10924
     107 ->116        -0.11179
     107 ->117         0.14641
     108 ->116         0.11958
     108 ->117        -0.12048
     109 ->113        -0.28856
     109 ->116         0.10106
     110 ->113         0.18360
     111 ->113         0.19447

 Excited state symmetry could not be determined.
 Excited State   3:      Singlet-?Sym    5.2823 eV  234.72 nm  f=0.0053  <S**2>=0.000
     102 ->119        -0.14583
     111 ->112         0.21863
     111 ->113        -0.11812
     111 ->114         0.37442
     111 ->116         0.19206
     111 ->117        -0.13650
     111 ->119        -0.32389

 Excited state symmetry could not be determined.
 Excited State   4:      Singlet-?Sym    5.3403 eV  232.17 nm  f=0.0015  <S**2>=0.000
     107 ->113         0.13228
     107 ->114        -0.10311
     107 ->115        -0.18099
     108 ->115        -0.10826
     110 ->112        -0.11645
     110 ->114         0.10262
     110 ->117         0.10022
     111 ->112         0.40503
     111 ->114        -0.25340
     111 ->117        -0.19524

 Alpha  occ. eigenvalues --  -19.11697 -19.11465 -14.37210 -14.36006 -10.28897
 Alpha  occ. eigenvalues --  -10.28626 -10.24398 -10.22657 -10.22225 -10.20023
 Alpha  occ. eigenvalues --  -10.20008 -10.19947 -10.19852 -10.19464 -10.19377
 Alpha  occ. eigenvalues --  -10.19345 -10.19331 -10.19297 -10.19270 -10.19258
 Alpha  occ. eigenvalues --  -10.19247 -10.19229 -10.19178 -10.19139 -10.19130
 Alpha  occ. eigenvalues --  -10.19114 -10.19104 -10.19081 -10.18659 -10.18462
 Alpha  occ. eigenvalues --  -10.16901  -1.03786  -1.03296  -0.93994  -0.91956
 Alpha  occ. eigenvalues --   -0.85821  -0.85531  -0.85411  -0.79973  -0.79355
 Alpha  occ. eigenvalues --   -0.77057  -0.76704  -0.74569  -0.74548  -0.74542
 Alpha  occ. eigenvalues --   -0.73550  -0.69582  -0.69298  -0.68404  -0.65212
 Alpha  occ. eigenvalues --   -0.61945  -0.60808  -0.60728  -0.60575  -0.59001
 Alpha  occ. eigenvalues --   -0.58675  -0.58612  -0.57779  -0.54858  -0.52885
 Alpha  occ. eigenvalues --   -0.51699  -0.51552  -0.50550  -0.50467  -0.47617
 Alpha  occ. eigenvalues --   -0.47246  -0.46579  -0.45945  -0.45847  -0.45528
 Alpha  occ. eigenvalues --   -0.45281  -0.44600  -0.44206  -0.43823  -0.42803
 Alpha  occ. eigenvalues --   -0.42470  -0.42125  -0.42099  -0.41907  -0.41633
 Alpha  occ. eigenvalues --   -0.41065  -0.40789  -0.39631  -0.39425  -0.38838
 Alpha  occ. eigenvalues --   -0.38525  -0.37974  -0.37073  -0.36780  -0.36244
 Alpha  occ. eigenvalues --   -0.36015  -0.35713  -0.35399  -0.34681  -0.34516
 Alpha  occ. eigenvalues --   -0.34228  -0.34055  -0.33984  -0.33830  -0.33725
 Alpha  occ. eigenvalues --   -0.33112  -0.27382  -0.26302  -0.25528  -0.25364
 Alpha  occ. eigenvalues --   -0.25212  -0.25077  -0.24985  -0.24633  -0.24005
 Alpha  occ. eigenvalues --   -0.23135
 Alpha virt. eigenvalues --   -0.01015  -0.00800  -0.00603  -0.00396  -0.00336
 Alpha virt. eigenvalues --   -0.00224   0.01938   0.02051   0.08032   0.08544
 Alpha virt. eigenvalues --    0.08972   0.09304   0.10385   0.11663   0.12085

 Mulliken charges:
               1
     1  C   -0.461323
     2  C   -0.179618
     3  C   -0.436504
     4  C    0.617769
     5  O   -0.525998
     6  N   -0.461851
     7  C   -0.243018
     8  C    0.145520
     9  C   -0.183571
    10  C   -0.134001
    11  C   -0.132647
    12  C   -0.129800
    13  C   -0.195999
    14  C   -0.089447
    15  C   -0.359863
    16  C    0.163631
    17  C   -0.181637
    18  C   -0.128089
    19  C   -0.130876
    20  C   -0.126655
    21  C   -0.188781
    22  C    0.614954
    23  O   -0.528838
    24  N   -0.592853
    25  C   -0.215378
    26  C    0.140390
    27  C   -0.186185
    28  C   -0.127859
    29  C   -0.128254
    30  C   -0.129920
    31  C   -0.167736
    32  H    0.153957
    33  H    0.150101
    34  H    0.162114
    35  H    0.154456
    36  H    0.165620
    37  H    0.156867
    38  H    0.132981
    39  H    0.194821
    40  H    0.155457
    41  H    0.134210
    42  H    0.133634
    43  H    0.131178
    44  H    0.134181
    45  H    0.176204
    46  H    0.184419
    47  H    0.185590
    48  H    0.155749
    49  H    0.131676
    50  H    0.134672
    51  H    0.131506
    52  H    0.131445
    53  H    0.128505
    54  H    0.347103
    55  H    0.163705
    56  H    0.191689
    57  H    0.135325
    58  H    0.130715
    59  H    0.130764
    60  H    0.131399
    61  H    0.134391
 Sum of Mulliken charges =  -0.00000

 Dipole moment (field-independent basis, Debye):
    X=              0.1216    Y=             -0.8097    Z=             -1.2238  Tot=              1.4724
 Quadrupole moment (field-independent basis, Debye-Ang):
   XX=           -196.1152   YY=           -167.7466   ZZ=           -171.6523
   XY=             -9.4073   XZ=             -1.4335   YZ=             -4.8735

 Normal termination of Gaussian 16 at Sat Nov  5 09:44:36 2022.
