 Gaussian 16, Revision B.01,
 Gaussian 16:  ES64L-G16RevB.01 20-Dec-2017

 -------------------------------------------------------------------
 #p b3lyp/6-31g(d) 6D 10F nosymm GFInput td=(50-50,nstate=2) SCF=XQC
 -------------------------------------------------------------------

 ------------------------------
 Gaussian input prepared by ASE
 ------------------------------
 Symbolic Z-matrix:
 Charge =  0 Multiplicity = 1

                          Input orientation:
 ---------------------------------------------------------------------
 Center     Atomic      Atomic             Coordinates (Angstroms)
 Number     Number       Type             X           Y           Z
 ---------------------------------------------------------------------
      1          6           0        4.815534   -0.731758    0.506929
      2          6           0        3.828648   -0.377470   -0.618341
      3          6           0        4.283106   -0.960946   -1.967687
      4          6           0        2.446070   -0.934378   -0.270608
      5          8           0        2.246168   -2.125411   -0.089898
      6          7           0        1.443634    0.015967   -0.174708
      7          6           0        0.101370   -0.262108    0.075705
      8          6           0       -0.581048   -1.453504    0.206274
      9          6           0       -1.939119   -1.070853    0.368348
     10          6           0       -3.109876   -1.940918    0.552995
     11          6           0       -4.397420   -1.404928    0.707454
     12          6           0       -5.474021   -2.270031    0.876936
     13          7           0       -5.370115   -3.606980    0.904569
     14          6           0       -4.138655   -4.111029    0.757685
     15          6           0       -2.992807   -3.337132    0.581844
     16          7           0       -2.085764    0.255382    0.342290
     17          7           0       -0.827528    0.750506    0.179791
     18          6           0       -0.634508    2.154734    0.077785
     19          6           0        0.399782    2.785504    0.780785
     20          6           0        0.578020    4.164823    0.654902
     21          6           0       -0.283259    4.916086   -0.144562
     22          6           0       -1.330883    4.282986   -0.819652
     23          6           0       -1.507418    2.905315   -0.718178
     24          1           0        4.520878   -0.276387    1.459182
     25          1           0        5.821813   -0.378541    0.256918
     26          1           0        4.849838   -1.816464    0.646302
     27          1           0        3.773063    0.716805   -0.708021
     28          1           0        3.606379   -0.672587   -2.779964
     29          1           0        5.287844   -0.603792   -2.218295
     30          1           0        4.303895   -2.053770   -1.914720
     31          1           0        1.678557    0.977935   -0.380457
     32          1           0       -0.140257   -2.434548    0.173225
     33          1           0       -4.542965   -0.330330    0.695668
     34          1           0       -6.479204   -1.868671    0.998344
     35          1           0       -4.060915   -5.197152    0.781690
     36          1           0       -2.027330   -3.820592    0.469801
     37          1           0        1.030536    2.210154    1.451822
     38          1           0        1.379339    4.651711    1.203543
     39          1           0       -0.146839    5.989899   -0.233775
     40          1           0       -2.010882    4.864252   -1.435977
     41          1           0       -2.313663    2.398218   -1.235944
 ---------------------------------------------------------------------

 SCF Done:  E(RB3LYP) =  -990.993447215     A.U. after   15 cycles

 Excitation energies and oscillator strengths:

 Excited state symmetry could not be determined.
 Excited State   1:      Triplet-?Sym    3.1358 eV  395.38 nm  f=0.0000  <S**2>=2.000
      76 -> 84        -0.12526
      78 -> 86         0.14438
      81 -> 82         0.61796
      81 -> 84        -0.12048
      81 -> 85        -0.10705
 This state for optimization and/or second-order correction.
 Total Energy, E(TD-HF/TD-DFT) =  -990.878207284
 Copying the excited state density for this state as the 1-particle RhoCI density.

 Excited state symmetry could not be determined.
 Excited State   2:      Triplet-?Sym    3.6165 eV  342.83 nm  f=0.0000  <S**2>=2.000
      75 -> 82        -0.15497
      75 -> 83         0.29226
      76 -> 82        -0.24425
      76 -> 83        -0.20013
      76 -> 84        -0.13837
      76 -> 85        -0.11406
      80 -> 82         0.34763
      80 -> 84         0.19414
      81 -> 84         0.20155
      81 -> 85         0.13270

 Excited state symmetry could not be determined.
 Excited State   3:      Singlet-?Sym    4.3524 eV  284.86 nm  f=0.1659  <S**2>=0.000
      81 -> 82         0.67289
      81 -> 84         0.13667

 Excited state symmetry could not be determined.
 Excited State   4:      Singlet-?Sym    4.5037 eV  275.29 nm  f=0.0029  <S**2>=0.000
      79 -> 82         0.62358
      79 -> 84        -0.32086

 Alpha  occ. eigenvalues --  -19.13137 -14.42616 -14.39653 -14.35158 -14.31677
 Alpha  occ. eigenvalues --  -10.30350 -10.27488 -10.25528 -10.21886 -10.21730
 Alpha  occ. eigenvalues --  -10.21614 -10.21490 -10.21243 -10.21139 -10.21079
 Alpha  occ. eigenvalues --  -10.21069 -10.21017 -10.20861 -10.18944 -10.18913
 Alpha  occ. eigenvalues --  -10.18893 -10.18490 -10.18270  -1.06500  -1.04856
 Alpha  occ. eigenvalues --   -0.95357  -0.92719  -0.89150  -0.84630  -0.81577
 Alpha  occ. eigenvalues --   -0.79817  -0.78429  -0.76863  -0.74863  -0.74283
 Alpha  occ. eigenvalues --   -0.69699  -0.67063  -0.65828  -0.63996  -0.62183
 Alpha  occ. eigenvalues --   -0.61919  -0.59786  -0.58453  -0.56875  -0.56257
 Alpha  occ. eigenvalues --   -0.52425  -0.50859  -0.49746  -0.48718  -0.48247
 Alpha  occ. eigenvalues --   -0.46343  -0.46193  -0.45764  -0.45317  -0.44404
 Alpha  occ. eigenvalues --   -0.44274  -0.43734  -0.43408  -0.42819  -0.41521
 Alpha  occ. eigenvalues --   -0.40159  -0.39529  -0.39143  -0.38871  -0.38210
 Alpha  occ. eigenvalues --   -0.37900  -0.37577  -0.36860  -0.35451  -0.35315
 Alpha  occ. eigenvalues --   -0.35113  -0.32498  -0.30953  -0.29673  -0.27489
 Alpha  occ. eigenvalues --   -0.27211  -0.26464  -0.25113  -0.24357  -0.23395
 Alpha  occ. eigenvalues --   -0.22124
 Alpha virt. eigenvalues --   -0.04350  -0.02599  -0.02117  -0.00554   0.00362
 Alpha virt. eigenvalues --    0.05693   0.05964   0.07804   0.09353   0.10174
 Alpha virt. eigenvalues --    0.11212   0.12433   0.13045   0.13437   0.13723

 Mulliken charges:
               1
     1  C   -0.443491
     2  C   -0.177725
     3  C   -0.444078
     4  C    0.627559
     5  O   -0.503516
     6  N   -0.749391
     7  C    0.620883
     8  C   -0.299173
     9  C    0.278237
    10  C    0.143029
    11  C   -0.180407
    12  C    0.033075
    13  N   -0.412228
    14  C    0.031853
    15  C   -0.192680
    16  N   -0.386171
    17  N   -0.428561
    18  C    0.280853
    19  C   -0.189032
    20  C   -0.140037
    21  C   -0.119939
    22  C   -0.141770
    23  C   -0.126491
    24  H    0.147542
    25  H    0.148426
    26  H    0.177736
    27  H    0.121587
    28  H    0.149390
    29  H    0.149280
    30  H    0.176744
    31  H    0.343627
    32  H    0.180402
    33  H    0.156480
    34  H    0.136586
    35  H    0.137349
    36  H    0.139353
    37  H    0.157652
    38  H    0.142982
    39  H    0.141020
    40  H    0.145732
    41  H    0.167315
 Sum of Mulliken charges =  -0.00000

 Dipole moment (field-independent basis, Debye):
    X=              4.9301    Y=              5.7995    Z=             -1.4564  Tot=              7.7500
 Quadrupole moment (field-independent basis, Debye-Ang):
   XX=           -142.3184   YY=           -128.9154   ZZ=           -134.2443
   XY=             -8.3314   XZ=              4.6889   YZ=              0.5930

 Normal termination of Gaussian 16 at Sat Nov  5 09:35:05 2022.
