 Gaussian 16, Revision B.01,
 Gaussian 16:  ES64L-G16RevB.01 20-Dec-2017

 -----------------------------
 #p b3lyp/6-31g(d) opt SCF=XQC
 -----------------------------

 ------------------------------
 Gaussian input prepared by ASE
 ------------------------------
 Symbolic Z-matrix:
 Charge =  0 Multiplicity = 1

 SCF Done:  E(RB3LYP) =  -990.987488129     A.U. after   15 cycles
 SCF Done:  E(RB3LYP) =  -990.992364573     A.U. after   12 cycles
 SCF Done:  E(RB3LYP) =  -990.992697428     A.U. after   12 cycles
 SCF Done:  E(RB3LYP) =  -990.992927551     A.U. after   12 cycles
 SCF Done:  E(RB3LYP) =  -990.993043601     A.U. after   11 cycles
 SCF Done:  E(RB3LYP) =  -990.993139207     A.U. after   11 cycles
 SCF Done:  E(RB3LYP) =  -990.993290294     A.U. after   12 cycles
 SCF Done:  E(RB3LYP) =  -990.993379451     A.U. after   11 cycles
 SCF Done:  E(RB3LYP) =  -990.993400699     A.U. after   10 cycles
 SCF Done:  E(RB3LYP) =  -990.993419969     A.U. after   10 cycles
 SCF Done:  E(RB3LYP) =  -990.993443610     A.U. after   11 cycles
 SCF Done:  E(RB3LYP) =  -990.993445293     A.U. after    9 cycles
 SCF Done:  E(RB3LYP) =  -990.993445783     A.U. after    8 cycles
 SCF Done:  E(RB3LYP) =  -990.993445912     A.U. after    7 cycles
 SCF Done:  E(RB3LYP) =  -990.993445978     A.U. after    7 cycles
 Optimization completed.
    -- Stationary point found.

                         Standard orientation:
 ---------------------------------------------------------------------
 Center     Atomic      Atomic             Coordinates (Angstroms)
 Number     Number       Type             X           Y           Z
 ---------------------------------------------------------------------
      1          6           0        4.304170   -2.957932    1.067568
      2          6           0        3.748529   -2.216832   -0.160329
      3          6           0        4.061529   -2.974748   -1.462368
      4          6           0        2.231797   -2.069851   -0.017126
      5          8           0        1.487439   -3.032229    0.087454
      6          7           0        1.771959   -0.763803   -0.012774
      7          6           0        0.431129   -0.389819    0.050602
      8          6           0       -0.730991   -1.132510    0.043165
      9          6           0       -1.771891   -0.166294    0.043960
     10          6           0       -3.223748   -0.398405    0.040150
     11          6           0       -4.131520    0.671543    0.048772
     12          6           0       -5.496290    0.400332    0.042301
     13          7           0       -6.019771   -0.834483    0.028496
     14          6           0       -5.147726   -1.850171    0.021440
     15          6           0       -3.762908   -1.691881    0.026829
     16          7           0       -1.291099    1.078629    0.053367
     17          7           0        0.063328    0.938034    0.075106
     18          6           0        0.888586    2.094803    0.056323
     19          6           0        1.992574    2.197394    0.912198
     20          6           0        2.796635    3.338254    0.866833
     21          6           0        2.489425    4.382013   -0.005825
     22          6           0        1.368921    4.284111   -0.835864
     23          6           0        0.570369    3.143368   -0.814394
     24          1           0        4.126131   -2.396265    1.991582
     25          1           0        5.383854   -3.111142    0.964262
     26          1           0        3.819879   -3.934152    1.165785
     27          1           0        4.211847   -1.221207   -0.211669
     28          1           0        3.706704   -2.427151   -2.342788
     29          1           0        5.141739   -3.123768   -1.566302
     30          1           0        3.573176   -3.953984   -1.451837
     31          1           0        2.445741   -0.021572   -0.146994
     32          1           0       -0.787445   -2.206938    0.027286
     33          1           0       -3.766697    1.692723    0.062185
     34          1           0       -6.212906    1.220477    0.049149
     35          1           0       -5.579071   -2.850228    0.010904
     36          1           0       -3.119988   -2.566551    0.020778
     37          1           0        2.194635    1.412622    1.635021
     38          1           0        3.650596    3.416227    1.533803
     39          1           0        3.112162    5.271461   -0.032738
     40          1           0        1.118960    5.097977   -1.510598
     41          1           0       -0.301283    3.050412   -1.452236
 ---------------------------------------------------------------------

 The electronic state is 1-A.
 Alpha  occ. eigenvalues --  -19.13137 -14.42616 -14.39653 -14.35158 -14.31677
 Alpha  occ. eigenvalues --  -10.30350 -10.27488 -10.25528 -10.21886 -10.21730
 Alpha  occ. eigenvalues --  -10.21614 -10.21490 -10.21243 -10.21139 -10.21079
 Alpha  occ. eigenvalues --  -10.21069 -10.21017 -10.20861 -10.18944 -10.18913
 Alpha  occ. eigenvalues --  -10.18893 -10.18490 -10.18270  -1.06500  -1.04856
 Alpha  occ. eigenvalues --   -0.95357  -0.92719  -0.89149  -0.84630  -0.81577
 Alpha  occ. eigenvalues --   -0.79817  -0.78429  -0.76863  -0.74863  -0.74283
 Alpha  occ. eigenvalues --   -0.69699  -0.67063  -0.65828  -0.63996  -0.62183
 Alpha  occ. eigenvalues --   -0.61919  -0.59786  -0.58453  -0.56875  -0.56257
 Alpha  occ. eigenvalues --   -0.52425  -0.50859  -0.49746  -0.48718  -0.48247
 Alpha  occ. eigenvalues --   -0.46343  -0.46193  -0.45764  -0.45317  -0.44404
 Alpha  occ. eigenvalues --   -0.44274  -0.43734  -0.43408  -0.42819  -0.41521
 Alpha  occ. eigenvalues --   -0.40159  -0.39529  -0.39143  -0.38871  -0.38210
 Alpha  occ. eigenvalues --   -0.37900  -0.37577  -0.36860  -0.35451  -0.35315
 Alpha  occ. eigenvalues --   -0.35113  -0.32498  -0.30953  -0.29672  -0.27489
 Alpha  occ. eigenvalues --   -0.27211  -0.26464  -0.25113  -0.24357  -0.23395
 Alpha  occ. eigenvalues --   -0.22124
 Alpha virt. eigenvalues --   -0.04350  -0.02599  -0.02117  -0.00554   0.00362
 Alpha virt. eigenvalues --    0.05693   0.05963   0.07804   0.09353   0.10174
 Alpha virt. eigenvalues --    0.11212   0.12433   0.13045   0.13437   0.13723

 Mulliken charges:
               1
     1  C   -0.443496
     2  C   -0.177715
     3  C   -0.444083
     4  C    0.627552
     5  O   -0.503516
     6  N   -0.749362
     7  C    0.620871
     8  C   -0.299183
     9  C    0.278246
    10  C    0.143030
    11  C   -0.180414
    12  C    0.033087
    13  N   -0.412233
    14  C    0.031853
    15  C   -0.192677
    16  N   -0.386176
    17  N   -0.428567
    18  C    0.280858
    19  C   -0.189036
    20  C   -0.140035
    21  C   -0.119943
    22  C   -0.141758
    23  C   -0.126498
    24  H    0.147545
    25  H    0.148426
    26  H    0.177735
    27  H    0.121584
    28  H    0.149390
    29  H    0.149280
    30  H    0.176744
    31  H    0.343627
    32  H    0.180400
    33  H    0.156480
    34  H    0.136586
    35  H    0.137348
    36  H    0.139354
    37  H    0.157651
    38  H    0.142982
    39  H    0.141019
    40  H    0.145730
    41  H    0.167315
 Sum of Mulliken charges =  -0.00000

 Dipole moment (field-independent basis, Debye):
    X=              7.1808    Y=              2.8592    Z=             -0.5693  Tot=              7.7500
 Quadrupole moment (field-independent basis, Debye-Ang):
   XX=           -140.4674   YY=           -125.6652   ZZ=           -133.1794
   XY=              1.5170   XZ=              2.1998   YZ=             -1.7343

 Normal termination of Gaussian 16 at Fri Nov  4 08:46:37 2022.
