 Gaussian 16, Revision B.01,
 Gaussian 16:  ES64L-G16RevB.01 20-Dec-2017

 -----------------------------
 #p b3lyp/6-31g(d) opt SCF=XQC
 -----------------------------

 ------------------------------
 Gaussian input prepared by ASE
 ------------------------------
 Symbolic Z-matrix:
 Charge =  0 Multiplicity = 1

 SCF Done:  E(RB3LYP) =  -1433.62111109     A.U. after   16 cycles
 SCF Done:  E(RB3LYP) =  -1433.62869206     A.U. after   15 cycles
 SCF Done:  E(RB3LYP) =  -1433.63279312     A.U. after   15 cycles
 SCF Done:  E(RB3LYP) =  -1433.63441009     A.U. after   13 cycles
 SCF Done:  E(RB3LYP) =  -1433.63458700     A.U. after   12 cycles
 SCF Done:  E(RB3LYP) =  -1433.63485067     A.U. after   12 cycles
 SCF Done:  E(RB3LYP) =  -1433.63495089     A.U. after   11 cycles
 SCF Done:  E(RB3LYP) =  -1433.63502071     A.U. after   11 cycles
 SCF Done:  E(RB3LYP) =  -1433.63504670     A.U. after   10 cycles
 SCF Done:  E(RB3LYP) =  -1433.63506182     A.U. after   10 cycles
 SCF Done:  E(RB3LYP) =  -1433.63507731     A.U. after   10 cycles
 SCF Done:  E(RB3LYP) =  -1433.63509089     A.U. after   10 cycles
 SCF Done:  E(RB3LYP) =  -1433.63509952     A.U. after   10 cycles
 SCF Done:  E(RB3LYP) =  -1433.63510433     A.U. after   10 cycles
 SCF Done:  E(RB3LYP) =  -1433.63510534     A.U. after    9 cycles
 SCF Done:  E(RB3LYP) =  -1433.63510558     A.U. after    8 cycles
 SCF Done:  E(RB3LYP) =  -1433.63510569     A.U. after    8 cycles
 SCF Done:  E(RB3LYP) =  -1433.63510570     A.U. after    6 cycles
 Optimization completed.
    -- Stationary point found.

                         Standard orientation:
 ---------------------------------------------------------------------
 Center     Atomic      Atomic             Coordinates (Angstroms)
 Number     Number       Type             X           Y           Z
 ---------------------------------------------------------------------
      1          6           0        2.131560    2.363893   -0.891545
      2          6           0        0.889579    1.568683   -0.570191
      3          6           0       -0.333134    2.204831   -0.255761
      4          6           0       -0.359993    3.631037   -0.148126
      5          7           0       -0.333221    4.792421   -0.061043
      6          6           0       -1.484021    1.409550   -0.000505
      7          6           0       -2.825255    1.976562    0.313894
      8          6           0       -3.649752    1.291596    1.223020
      9          6           0       -4.917023    1.775384    1.535462
     10          6           0       -5.392221    2.942043    0.931273
     11          6           0       -4.591295    3.617121    0.009913
     12          6           0       -3.316795    3.140791   -0.297074
     13          7           0       -1.416020    0.078888   -0.007295
     14          6           0       -0.262722   -0.557897   -0.286586
     15          6           0       -0.242633   -2.014073   -0.275898
     16          6           0       -1.263343   -2.896920   -0.128582
     17          8           0       -0.882624   -4.203869    0.047038
     18          6           0       -2.730388   -2.687960   -0.125157
     19          6           0       -3.510880   -3.344181    0.842617
     20          6           0       -4.901785   -3.234390    0.826349
     21          6           0       -5.529744   -2.486235   -0.169391
     22          6           0       -4.761504   -1.843226   -1.144726
     23          6           0       -3.373402   -1.940174   -1.123586
     24          6           0        0.920150    0.169878   -0.578340
     25          6           0        2.211435   -0.514901   -0.973125
     26          8           0        2.623316   -0.504852   -2.129001
     27          7           0        2.879153   -1.118976    0.054079
     28          6           0        4.179599   -1.769572   -0.121630
     29          6           0        5.352978   -0.884565    0.255232
     30          6           0        5.728318    0.180003   -0.578218
     31          6           0        6.791729    1.010340   -0.226841
     32          6           0        7.496661    0.786592    0.959342
     33          6           0        7.133369   -0.272759    1.790751
     34          6           0        6.066165   -1.102617    1.438376
     35          1           0        2.990951    1.998952   -0.318665
     36          1           0        2.000224    3.426397   -0.681383
     37          1           0        2.383310    2.243395   -1.950709
     38          1           0       -3.281277    0.377223    1.674742
     39          1           0       -5.536144    1.239801    2.250250
     40          1           0       -6.382137    3.319426    1.173973
     41          1           0       -4.957107    4.516957   -0.476800
     42          1           0       -2.716886    3.672035   -1.027080
     43          1           0        0.735103   -2.478184   -0.344761
     44          1           0       -1.658542   -4.769833   -0.097144
     45          1           0       -3.022746   -3.916294    1.627858
     46          1           0       -5.491171   -3.732839    1.591096
     47          1           0       -6.613011   -2.403577   -0.188004
     48          1           0       -5.247292   -1.264401   -1.925062
     49          1           0       -2.778733   -1.443264   -1.881591
     50          1           0        2.534125   -0.978659    0.994382
     51          1           0        4.232606   -2.052995   -1.175451
     52          1           0        4.186582   -2.686120    0.478166
     53          1           0        5.181948    0.346097   -1.503010
     54          1           0        7.076028    1.829508   -0.882133
     55          1           0        8.327067    1.432998    1.230478
     56          1           0        7.679418   -0.455725    2.712485
     57          1           0        5.788852   -1.930485    2.088205
 ---------------------------------------------------------------------

 The electronic state is 1-A.
 Alpha  occ. eigenvalues --  -19.19268 -19.12172 -14.37155 -14.33179 -14.32793
 Alpha  occ. eigenvalues --  -10.29751 -10.27068 -10.25053 -10.25020 -10.23469
 Alpha  occ. eigenvalues --  -10.23199 -10.23093 -10.22332 -10.21485 -10.21110
 Alpha  occ. eigenvalues --  -10.20740 -10.20401 -10.20346 -10.20263 -10.20100
 Alpha  occ. eigenvalues --  -10.20053 -10.20032 -10.19518 -10.19444 -10.19358
 Alpha  occ. eigenvalues --  -10.19304 -10.19190 -10.19121 -10.19036 -10.18938
 Alpha  occ. eigenvalues --  -10.18922 -10.18886 -10.18837 -10.18716  -1.07328
 Alpha  occ. eigenvalues --   -1.04020  -0.95771  -0.93086  -0.89829  -0.86792
 Alpha  occ. eigenvalues --   -0.85732  -0.85540  -0.83741  -0.81595  -0.78312
 Alpha  occ. eigenvalues --   -0.77231  -0.75787  -0.75168  -0.74709  -0.74425
 Alpha  occ. eigenvalues --   -0.73991  -0.72246  -0.69776  -0.67090  -0.64566
 Alpha  occ. eigenvalues --   -0.62502  -0.61681  -0.61074  -0.60479  -0.60418
 Alpha  occ. eigenvalues --   -0.58766  -0.58158  -0.57393  -0.55728  -0.55262
 Alpha  occ. eigenvalues --   -0.52821  -0.52357  -0.51700  -0.49893  -0.49386
 Alpha  occ. eigenvalues --   -0.47950  -0.46742  -0.46685  -0.46589  -0.45734
 Alpha  occ. eigenvalues --   -0.45581  -0.44963  -0.44828  -0.43673  -0.43511
 Alpha  occ. eigenvalues --   -0.43334  -0.43097  -0.42336  -0.41975  -0.41707
 Alpha  occ. eigenvalues --   -0.41142  -0.40609  -0.39932  -0.39731  -0.39422
 Alpha  occ. eigenvalues --   -0.38506  -0.38420  -0.37793  -0.37270  -0.36350
 Alpha  occ. eigenvalues --   -0.36316  -0.35897  -0.35496  -0.35391  -0.35063
 Alpha  occ. eigenvalues --   -0.34985  -0.34746  -0.34314  -0.34229  -0.32467
 Alpha  occ. eigenvalues --   -0.29816  -0.28457  -0.27818  -0.27009  -0.26554
 Alpha  occ. eigenvalues --   -0.25999  -0.25393  -0.25000  -0.24826  -0.24545
 Alpha  occ. eigenvalues --   -0.23664  -0.21334
 Alpha virt. eigenvalues --   -0.06858  -0.04799  -0.02050  -0.01296  -0.01105
 Alpha virt. eigenvalues --   -0.00446   0.00080   0.00782   0.02539   0.03958
 Alpha virt. eigenvalues --    0.04502   0.07811   0.07892   0.08684   0.09411

 Mulliken charges:
               1
     1  C   -0.549207
     2  C    0.181646
     3  C    0.055546
     4  C    0.215405
     5  N   -0.511834
     6  C    0.232255
     7  C    0.099769
     8  C   -0.142720
     9  C   -0.138936
    10  C   -0.121617
    11  C   -0.139743
    12  C   -0.162352
    13  N   -0.596651
    14  C    0.330387
    15  C   -0.264635
    16  C    0.301772
    17  O   -0.606312
    18  C    0.080059
    19  C   -0.194034
    20  C   -0.133125
    21  C   -0.121830
    22  C   -0.135655
    23  C   -0.118282
    24  C   -0.070107
    25  C    0.502072
    26  O   -0.511154
    27  N   -0.561989
    28  C   -0.236610
    29  C    0.164537
    30  C   -0.185826
    31  C   -0.130929
    32  C   -0.127540
    33  C   -0.126691
    34  C   -0.187207
    35  H    0.174848
    36  H    0.185768
    37  H    0.201300
    38  H    0.151944
    39  H    0.130198
    40  H    0.131130
    41  H    0.136247
    42  H    0.153462
    43  H    0.153612
    44  H    0.408778
    45  H    0.143949
    46  H    0.136892
    47  H    0.137793
    48  H    0.142191
    49  H    0.151669
    50  H    0.332779
    51  H    0.198673
    52  H    0.156008
    53  H    0.161002
    54  H    0.135499
    55  H    0.132848
    56  H    0.131923
    57  H    0.123024
 Sum of Mulliken charges =  -0.00000

 Dipole moment (field-independent basis, Debye):
    X=             -1.6549    Y=             -4.9061    Z=              2.3221  Tot=              5.6746
 Quadrupole moment (field-independent basis, Debye-Ang):
   XX=           -160.3566   YY=           -202.3235   ZZ=           -193.8195
   XY=              9.4809   XZ=              8.4376   YZ=             -9.2000

 Normal termination of Gaussian 16 at Fri Nov  4 22:12:09 2022.
