 Gaussian 16, Revision B.01,
 Gaussian 16:  ES64L-G16RevB.01 20-Dec-2017

 -------------------------------------------------------------------
 #p b3lyp/6-31g(d) 6D 10F nosymm GFInput td=(50-50,nstate=2) SCF=XQC
 -------------------------------------------------------------------

 ------------------------------
 Gaussian input prepared by ASE
 ------------------------------
 Symbolic Z-matrix:
 Charge =  0 Multiplicity = 1

                          Input orientation:
 ---------------------------------------------------------------------
 Center     Atomic      Atomic             Coordinates (Angstroms)
 Number     Number       Type             X           Y           Z
 ---------------------------------------------------------------------
      1          6           0        2.494960    2.074646   -0.643160
      2          6           0        1.119523    1.484196   -0.449027
      3          6           0        0.005910    2.295841   -0.133314
      4          6           0        0.214752    3.691703    0.099764
      5          7           0        0.432703    4.819969    0.291145
      6          6           0       -1.276037    1.694795   -0.000943
      7          6           0       -2.517960    2.459183    0.303353
      8          6           0       -3.498531    1.857214    1.110569
      9          6           0       -4.681672    2.527221    1.408756
     10          6           0       -4.916055    3.803377    0.890643
     11          6           0       -3.959630    4.400718    0.069333
     12          6           0       -2.768434    3.736338   -0.222443
     13          7           0       -1.434143    0.377468   -0.123345
     14          6           0       -0.390992   -0.425560   -0.407209
     15          6           0       -0.618521   -1.859157   -0.525522
     16          6           0       -1.780893   -2.560111   -0.502627
     17          8           0       -1.638046   -3.923149   -0.427629
     18          6           0       -3.188972   -2.100333   -0.545231
     19          6           0       -4.124826   -2.686442    0.324844
     20          6           0       -5.473641   -2.335651    0.257158
     21          6           0       -5.906200   -1.412288   -0.694610
     22          6           0       -4.984192   -0.836411   -1.573927
     23          6           0       -3.636246   -1.174501   -1.500371
     24          6           0        0.913132    0.106600   -0.580506
     25          6           0        2.090688   -0.758246   -0.977490
     26          8           0        2.565498   -0.727203   -2.108591
     27          7           0        2.584919   -1.549627    0.020184
     28          6           0        3.764409   -2.400095   -0.155359
     29          6           0        5.046550   -1.765620    0.350245
     30          6           0        5.645098   -0.719083   -0.367616
     31          6           0        6.811289   -0.117110    0.102909
     32          6           0        7.397216   -0.554423    1.294324
     33          6           0        6.811525   -1.597769    2.011151
     34          6           0        5.641743   -2.198534    1.539508
     35          1           0        3.244954    1.521126   -0.067791
     36          1           0        2.533385    3.123460   -0.345094
     37          1           0        2.784438    1.997624   -1.696724
     38          1           0       -3.317450    0.859461    1.494762
     39          1           0       -5.423475    2.051777    2.044967
     40          1           0       -5.840263    4.326341    1.122168
     41          1           0       -4.138498    5.386547   -0.350857
     42          1           0       -2.045374    4.212084   -0.875029
     43          1           0        0.268801   -2.479079   -0.592340
     44          1           0       -2.488792   -4.332230   -0.655747
     45          1           0       -3.787642   -3.395824    1.076692
     46          1           0       -6.182833   -2.783825    0.947701
     47          1           0       -6.956818   -1.141405   -0.753494
     48          1           0       -5.318220   -0.121241   -2.320191
     49          1           0       -2.922512   -0.729296   -2.184110
     50          1           0        2.214013   -1.427404    0.953133
     51          1           0        3.830453   -2.602919   -1.226889
     52          1           0        3.580789   -3.349042    0.360052
     53          1           0        5.190042   -0.386892   -1.297090
     54          1           0        7.268236    0.690090   -0.463570
     55          1           0        8.307735   -0.086045    1.658340
     56          1           0        7.263588   -1.946220    2.936063
     57          1           0        5.190515   -3.015047    2.100083
 ---------------------------------------------------------------------

 SCF Done:  E(RB3LYP) =  -1433.63509315     A.U. after   16 cycles

 Excitation energies and oscillator strengths:

 Excited state symmetry could not be determined.
 Excited State   1:      Triplet-?Sym    2.3328 eV  531.47 nm  f=0.0000  <S**2>=2.000
     117 ->118         0.67415
 This state for optimization and/or second-order correction.
 Total Energy, E(TD-HF/TD-DFT) =  -1433.54936311
 Copying the excited state density for this state as the 1-particle RhoCI density.

 Excited state symmetry could not be determined.
 Excited State   2:      Triplet-?Sym    3.1738 eV  390.65 nm  f=0.0000  <S**2>=2.000
     114 ->124         0.13141
     116 ->118         0.28233
     116 ->119         0.23161
     117 ->119         0.49487
     117 ->120         0.10780

 Excited state symmetry could not be determined.
 Excited State   3:      Singlet-?Sym    3.6370 eV  340.89 nm  f=0.4367  <S**2>=0.000
     117 ->118         0.64850
     117 ->119        -0.24254

 Excited state symmetry could not be determined.
 Excited State   4:      Singlet-?Sym    3.7462 eV  330.96 nm  f=0.0194  <S**2>=0.000
     113 ->118         0.16893
     116 ->118         0.57474
     117 ->119        -0.33222

 Alpha  occ. eigenvalues --  -19.19268 -19.12172 -14.37155 -14.33179 -14.32793
 Alpha  occ. eigenvalues --  -10.29751 -10.27068 -10.25053 -10.25020 -10.23469
 Alpha  occ. eigenvalues --  -10.23199 -10.23093 -10.22332 -10.21485 -10.21110
 Alpha  occ. eigenvalues --  -10.20740 -10.20401 -10.20346 -10.20263 -10.20100
 Alpha  occ. eigenvalues --  -10.20053 -10.20032 -10.19518 -10.19444 -10.19358
 Alpha  occ. eigenvalues --  -10.19304 -10.19190 -10.19121 -10.19036 -10.18938
 Alpha  occ. eigenvalues --  -10.18922 -10.18886 -10.18837 -10.18716  -1.07328
 Alpha  occ. eigenvalues --   -1.04020  -0.95771  -0.93086  -0.89829  -0.86792
 Alpha  occ. eigenvalues --   -0.85732  -0.85540  -0.83741  -0.81595  -0.78312
 Alpha  occ. eigenvalues --   -0.77231  -0.75787  -0.75168  -0.74709  -0.74425
 Alpha  occ. eigenvalues --   -0.73991  -0.72246  -0.69776  -0.67090  -0.64566
 Alpha  occ. eigenvalues --   -0.62502  -0.61681  -0.61074  -0.60479  -0.60418
 Alpha  occ. eigenvalues --   -0.58766  -0.58158  -0.57393  -0.55728  -0.55261
 Alpha  occ. eigenvalues --   -0.52821  -0.52357  -0.51700  -0.49893  -0.49386
 Alpha  occ. eigenvalues --   -0.47950  -0.46742  -0.46685  -0.46589  -0.45734
 Alpha  occ. eigenvalues --   -0.45581  -0.44963  -0.44828  -0.43673  -0.43511
 Alpha  occ. eigenvalues --   -0.43334  -0.43097  -0.42336  -0.41975  -0.41707
 Alpha  occ. eigenvalues --   -0.41142  -0.40608  -0.39932  -0.39731  -0.39422
 Alpha  occ. eigenvalues --   -0.38506  -0.38420  -0.37793  -0.37270  -0.36350
 Alpha  occ. eigenvalues --   -0.36316  -0.35897  -0.35496  -0.35391  -0.35063
 Alpha  occ. eigenvalues --   -0.34985  -0.34746  -0.34314  -0.34229  -0.32467
 Alpha  occ. eigenvalues --   -0.29816  -0.28457  -0.27818  -0.27009  -0.26554
 Alpha  occ. eigenvalues --   -0.25998  -0.25393  -0.25000  -0.24826  -0.24545
 Alpha  occ. eigenvalues --   -0.23664  -0.21334
 Alpha virt. eigenvalues --   -0.06858  -0.04799  -0.02050  -0.01296  -0.01105
 Alpha virt. eigenvalues --   -0.00446   0.00080   0.00782   0.02539   0.03958
 Alpha virt. eigenvalues --    0.04502   0.07811   0.07892   0.08684   0.09411

 Mulliken charges:
               1
     1  C   -0.549202
     2  C    0.181654
     3  C    0.055536
     4  C    0.215411
     5  N   -0.511835
     6  C    0.232226
     7  C    0.099811
     8  C   -0.142709
     9  C   -0.138963
    10  C   -0.121604
    11  C   -0.139742
    12  C   -0.162371
    13  N   -0.596648
    14  C    0.330388
    15  C   -0.264637
    16  C    0.301764
    17  O   -0.606310
    18  C    0.080089
    19  C   -0.194048
    20  C   -0.133131
    21  C   -0.121810
    22  C   -0.135667
    23  C   -0.118288
    24  C   -0.070111
    25  C    0.502077
    26  O   -0.511156
    27  N   -0.561988
    28  C   -0.236622
    29  C    0.164552
    30  C   -0.185842
    31  C   -0.130915
    32  C   -0.127545
    33  C   -0.126699
    34  C   -0.187200
    35  H    0.174846
    36  H    0.185767
    37  H    0.201299
    38  H    0.151942
    39  H    0.130199
    40  H    0.131130
    41  H    0.136246
    42  H    0.153464
    43  H    0.153613
    44  H    0.408778
    45  H    0.143948
    46  H    0.136892
    47  H    0.137791
    48  H    0.142191
    49  H    0.151668
    50  H    0.332779
    51  H    0.198674
    52  H    0.156009
    53  H    0.161002
    54  H    0.135498
    55  H    0.132848
    56  H    0.131923
    57  H    0.123023
 Sum of Mulliken charges =  -0.00000

 Dipole moment (field-independent basis, Debye):
    X=             -2.5956    Y=             -4.7142    Z=              1.8002  Tot=              5.6746
 Quadrupole moment (field-independent basis, Debye-Ang):
   XX=           -159.0238   YY=           -203.0543   ZZ=           -194.8589
   XY=              1.9362   XZ=              9.0188   YZ=            -10.7631

 Normal termination of Gaussian 16 at Sat Nov  5 09:41:07 2022.
