 Gaussian 16, Revision B.01,
 Gaussian 16:  ES64L-G16RevB.01 20-Dec-2017

 -------------------------------------------------------------------
 #p b3lyp/6-31g(d) 6D 10F nosymm GFInput td=(50-50,nstate=2) SCF=XQC
 -------------------------------------------------------------------

 ------------------------------
 Gaussian input prepared by ASE
 ------------------------------
 Symbolic Z-matrix:
 Charge =  0 Multiplicity = 1

                          Input orientation:
 ---------------------------------------------------------------------
 Center     Atomic      Atomic             Coordinates (Angstroms)
 Number     Number       Type             X           Y           Z
 ---------------------------------------------------------------------
      1          6           0      -12.980255   -2.296013    2.000010
      2          6           0      -11.710514   -1.542723    2.409212
      3          6           0      -10.828226   -1.148932    1.217099
      4          6           0       -9.556334   -0.394435    1.629290
      5          6           0       -8.602475   -0.049976    0.473143
      6          6           0       -9.174922    0.954093   -0.536392
      7          6           0       -8.202486    1.385141   -1.633529
      8          8           0       -7.121088    2.163493   -1.104992
      9          6           0       -5.842443    1.690776   -1.054026
     10          6           0       -4.859584    2.653922   -0.772618
     11          6           0       -3.524799    2.293901   -0.681010
     12          6           0       -3.112988    0.959898   -0.864115
     13          6           0       -1.676312    0.606778   -0.755649
     14          6           0       -1.231438   -0.718780   -0.603091
     15          6           0        0.130956   -0.980151   -0.515759
     16          6           0        1.017612    0.089093   -0.573680
     17          8           0        2.380333   -0.187173   -0.571953
     18          6           0        3.197735    0.442901    0.347448
     19          8           0        2.784433    1.219423    1.173508
     20          6           0        4.608275    0.021255    0.157845
     21          6           0        4.998938   -0.834250   -0.888421
     22          6           0        6.324260   -1.214038   -1.055564
     23          6           0        7.322367   -0.756012   -0.180674
     24          6           0        8.772336   -1.132484   -0.384950
     25          6           0        9.509909   -0.149641   -1.323830
     26          6           0       10.990776   -0.499902   -1.589371
     27          6           0       12.021240    0.137766   -0.639724
     28          6           0       11.946844   -0.285811    0.833850
     29          6           0       13.094011    0.289817    1.671688
     30          6           0        6.946223    0.092398    0.865314
     31          6           0        5.618495    0.469864    1.024355
     32          9           0        5.327045    1.280352    2.050164
     33          6           0        0.506544    1.381027   -0.710605
     34          7           0       -0.797966    1.629731   -0.800215
     35          6           0       -4.104503    0.011486   -1.149556
     36          6           0       -5.452552    0.358600   -1.241311
     37          1           0      -13.605189   -1.687987    1.334140
     38          1           0      -13.586654   -2.562852    2.873092
     39          1           0      -12.736827   -3.223900    1.467674
     40          1           0      -11.124600   -2.161831    3.103410
     41          1           0      -11.986054   -0.637718    2.969185
     42          1           0      -11.422069   -0.537610    0.522938
     43          1           0      -10.547039   -2.055828    0.660026
     44          1           0       -9.008649   -1.002506    2.362937
     45          1           0       -9.836244    0.531486    2.153385
     46          1           0       -7.675931    0.360909    0.892038
     47          1           0       -8.321595   -0.976178   -0.050733
     48          1           0       -9.511199    1.856066   -0.007020
     49          1           0      -10.060449    0.535716   -1.034088
     50          1           0       -7.827308    0.526573   -2.200415
     51          1           0       -8.715744    2.046048   -2.341632
     52          1           0       -5.173645    3.683410   -0.630654
     53          1           0       -2.770345    3.043260   -0.469496
     54          1           0       -1.937630   -1.538687   -0.532587
     55          1           0        0.509839   -1.990807   -0.397100
     56          1           0        4.238921   -1.198372   -1.569187
     57          1           0        6.592251   -1.878745   -1.872666
     58          1           0        8.829783   -2.139582   -0.817808
     59          1           0        9.279493   -1.178364    0.584465
     60          1           0        9.434604    0.868116   -0.916419
     61          1           0        8.965901   -0.130421   -2.276926
     62          1           0       11.114211   -1.593027   -1.584243
     63          1           0       11.242529   -0.177729   -2.608107
     64          1           0       13.025321   -0.101875   -1.018816
     65          1           0       11.931551    1.232671   -0.701227
     66          1           0       10.991839    0.037457    1.268604
     67          1           0       11.959943   -1.383329    0.899862
     68          1           0       14.067176   -0.047082    1.293954
     69          1           0       13.018229   -0.018292    2.720611
     70          1           0       13.091668    1.386483    1.645643
     71          1           0        7.675646    0.470763    1.575236
     72          1           0        1.174983    2.236774   -0.748139
     73          1           0       -3.836021   -1.026538   -1.322552
     74          1           0       -6.180146   -0.416950   -1.449275
 ---------------------------------------------------------------------

 SCF Done:  E(RB3LYP) =  -1584.47538656     A.U. after   15 cycles

 Excitation energies and oscillator strengths:

 Excited state symmetry could not be determined.
 Excited State   1:      Triplet-?Sym    2.9405 eV  421.65 nm  f=0.0000  <S**2>=2.000
     131 ->137         0.12183
     132 ->133        -0.30792
     132 ->134         0.54893
     132 ->135         0.18589
 This state for optimization and/or second-order correction.
 Total Energy, E(TD-HF/TD-DFT) =  -1584.36732597
 Copying the excited state density for this state as the 1-particle RhoCI density.

 Excited state symmetry could not be determined.
 Excited State   2:      Triplet-?Sym    3.4637 eV  357.95 nm  f=0.0000  <S**2>=2.000
     127 ->133         0.39397
     127 ->136         0.14121
     129 ->133         0.40539
     129 ->136        -0.23220
     130 ->133        -0.14318
     132 ->133         0.18634
     132 ->134         0.10099

 Excited state symmetry could not be determined.
 Excited State   3:      Singlet-?Sym    3.5849 eV  345.85 nm  f=0.1585  <S**2>=0.000
     132 ->133         0.70266

 Excited state symmetry could not be determined.
 Excited State   4:      Singlet-?Sym    4.2477 eV  291.88 nm  f=0.4219  <S**2>=0.000
     132 ->134         0.58636
     132 ->135        -0.36535

 Alpha  occ. eigenvalues --  -24.71061 -19.20312 -19.17193 -19.14023 -14.32477
 Alpha  occ. eigenvalues --  -10.32679 -10.28801 -10.25267 -10.24606 -10.24109
 Alpha  occ. eigenvalues --  -10.22721 -10.22031 -10.21850 -10.21655 -10.21084
 Alpha  occ. eigenvalues --  -10.20674 -10.20244 -10.20044 -10.19826 -10.19747
 Alpha  occ. eigenvalues --  -10.19215 -10.18990 -10.18697 -10.18622 -10.18584
 Alpha  occ. eigenvalues --  -10.18499 -10.18463 -10.18373 -10.18095 -10.18004
 Alpha  occ. eigenvalues --  -10.17899 -10.17887 -10.17773 -10.17740 -10.17667
 Alpha  occ. eigenvalues --  -10.17255  -1.22510  -1.10953  -1.05606  -1.02578
 Alpha  occ. eigenvalues --   -0.93906  -0.87764  -0.84802  -0.81958  -0.80948
 Alpha  occ. eigenvalues --   -0.80647  -0.79356  -0.78581  -0.77350  -0.76196
 Alpha  occ. eigenvalues --   -0.75668  -0.74444  -0.73865  -0.72228  -0.71201
 Alpha  occ. eigenvalues --   -0.68042  -0.67038  -0.65427  -0.64147  -0.62760
 Alpha  occ. eigenvalues --   -0.62698  -0.61615  -0.60465  -0.59626  -0.59060
 Alpha  occ. eigenvalues --   -0.58210  -0.57383  -0.57029  -0.56396  -0.54410
 Alpha  occ. eigenvalues --   -0.53489  -0.51859  -0.51294  -0.50523  -0.49969
 Alpha  occ. eigenvalues --   -0.47774  -0.47470  -0.47383  -0.47034  -0.46874
 Alpha  occ. eigenvalues --   -0.46418  -0.45800  -0.45305  -0.45093  -0.44676
 Alpha  occ. eigenvalues --   -0.44423  -0.44380  -0.43674  -0.43307  -0.42612
 Alpha  occ. eigenvalues --   -0.42389  -0.41841  -0.41673  -0.41393  -0.41314
 Alpha  occ. eigenvalues --   -0.40653  -0.40009  -0.39758  -0.39485  -0.39040
 Alpha  occ. eigenvalues --   -0.38984  -0.38355  -0.38208  -0.37588  -0.37009
 Alpha  occ. eigenvalues --   -0.36521  -0.36298  -0.35897  -0.35710  -0.35657
 Alpha  occ. eigenvalues --   -0.34837  -0.34797  -0.34417  -0.34335  -0.33149
 Alpha  occ. eigenvalues --   -0.33117  -0.32674  -0.32293  -0.31934  -0.31845
 Alpha  occ. eigenvalues --   -0.31613  -0.31575  -0.31071  -0.30504  -0.28584
 Alpha  occ. eigenvalues --   -0.27279  -0.26424  -0.25626  -0.25239  -0.24853
 Alpha  occ. eigenvalues --   -0.24483  -0.20083
 Alpha virt. eigenvalues --   -0.05466  -0.02940  -0.01764  -0.00944   0.00724
 Alpha virt. eigenvalues --    0.04117   0.05270   0.07245   0.08622   0.08906
 Alpha virt. eigenvalues --    0.09130   0.09801   0.10124   0.10709   0.11158

 Mulliken charges:
               1
     1  C   -0.441913
     2  C   -0.246806
     3  C   -0.248544
     4  C   -0.257051
     5  C   -0.264930
     6  C   -0.268654
     7  C   -0.044748
     8  O   -0.527242
     9  C    0.384383
    10  C   -0.181948
    11  C   -0.166663
    12  C    0.106671
    13  C    0.254403
    14  C   -0.175626
    15  C   -0.133846
    16  C    0.336991
    17  O   -0.558409
    18  C    0.603929
    19  O   -0.451617
    20  C   -0.043910
    21  C   -0.159772
    22  C   -0.183666
    23  C    0.186023
    24  C   -0.359993
    25  C   -0.253208
    26  C   -0.262153
    27  C   -0.249047
    28  C   -0.249171
    29  C   -0.442798
    30  C   -0.261900
    31  C    0.358551
    32  F   -0.264787
    33  C    0.040921
    34  N   -0.496526
    35  C   -0.196263
    36  C   -0.195121
    37  H    0.140774
    38  H    0.142620
    39  H    0.140824
    40  H    0.131111
    41  H    0.131610
    42  H    0.130170
    43  H    0.124579
    44  H    0.131318
    45  H    0.130755
    46  H    0.153677
    47  H    0.123329
    48  H    0.147539
    49  H    0.136154
    50  H    0.142197
    51  H    0.150418
    52  H    0.137723
    53  H    0.160696
    54  H    0.140440
    55  H    0.148836
    56  H    0.167066
    57  H    0.133527
    58  H    0.146503
    59  H    0.157715
    60  H    0.141242
    61  H    0.139444
    62  H    0.130213
    63  H    0.135642
    64  H    0.130253
    65  H    0.130357
    66  H    0.132966
    67  H    0.130395
    68  H    0.143337
    69  H    0.143835
    70  H    0.143831
    71  H    0.146571
    72  H    0.158528
    73  H    0.125930
    74  H    0.132318
 Sum of Mulliken charges =  -0.00000

 Dipole moment (field-independent basis, Debye):
    X=              1.4253    Y=             -4.2107    Z=             -2.2511  Tot=              4.9829
 Quadrupole moment (field-independent basis, Debye-Ang):
   XX=           -147.5485   YY=           -214.0216   ZZ=           -217.0383
   XY=             -2.2120   XZ=             -4.1758   YZ=              0.8156

 Normal termination of Gaussian 16 at Sat Nov  5 09:38:22 2022.
