 Gaussian 16, Revision B.01,
 Gaussian 16:  ES64L-G16RevB.01 20-Dec-2017

 -----------------------------
 #p b3lyp/6-31g(d) opt SCF=XQC
 -----------------------------

 ------------------------------
 Gaussian input prepared by ASE
 ------------------------------
 Symbolic Z-matrix:
 Charge =  0 Multiplicity = 1

 SCF Done:  E(RB3LYP) =  -1584.46695384     A.U. after   15 cycles
 SCF Done:  E(RB3LYP) =  -1584.47364259     A.U. after   12 cycles
 SCF Done:  E(RB3LYP) =  -1584.47453608     A.U. after   11 cycles
 SCF Done:  E(RB3LYP) =  -1584.47481252     A.U. after   11 cycles
 SCF Done:  E(RB3LYP) =  -1584.47474500     A.U. after   12 cycles
 SCF Done:  E(RB3LYP) =  -1584.47512821     A.U. after   11 cycles
 SCF Done:  E(RB3LYP) =  -1584.47524768     A.U. after   11 cycles
 SCF Done:  E(RB3LYP) =  -1584.47531574     A.U. after   11 cycles
 SCF Done:  E(RB3LYP) =  -1584.47534046     A.U. after   10 cycles
 SCF Done:  E(RB3LYP) =  -1584.47535697     A.U. after   10 cycles
 SCF Done:  E(RB3LYP) =  -1584.47538106     A.U. after   10 cycles
 SCF Done:  E(RB3LYP) =  -1584.47538374     A.U. after   10 cycles
 SCF Done:  E(RB3LYP) =  -1584.47538503     A.U. after    9 cycles
 SCF Done:  E(RB3LYP) =  -1584.47538595     A.U. after    9 cycles
 SCF Done:  E(RB3LYP) =  -1584.47538624     A.U. after    7 cycles
 SCF Done:  E(RB3LYP) =  -1584.47538638     A.U. after    7 cycles
 SCF Done:  E(RB3LYP) =  -1584.47538643     A.U. after    7 cycles
 SCF Done:  E(RB3LYP) =  -1584.47538646     A.U. after    6 cycles
 SCF Done:  E(RB3LYP) =  -1584.47538646     A.U. after    6 cycles
 SCF Done:  E(RB3LYP) =  -1584.47538647     A.U. after    6 cycles
 Optimization completed.
    -- Stationary point found.

                         Standard orientation:
 ---------------------------------------------------------------------
 Center     Atomic      Atomic             Coordinates (Angstroms)
 Number     Number       Type             X           Y           Z
 ---------------------------------------------------------------------
      1          6           0       13.204455    3.116897   -0.478038
      2          6           0       11.947027    2.870567    0.361801
      3          6           0       11.047062    1.763936   -0.203946
      4          6           0        9.787543    1.518836    0.638916
      5          6           0        8.816305    0.473164    0.065819
      6          6           0        9.378070   -0.954508    0.031396
      7          6           0        8.389854   -2.021066   -0.438742
      8          8           0        7.322956   -2.203595    0.500948
      9          6           0        6.042224   -1.819819    0.229965
     10          6           0        5.070846   -2.307777    1.119446
     11          6           0        3.735440   -1.976142    0.957073
     12          6           0        3.311578   -1.143683   -0.096509
     13          6           0        1.874633   -0.804529   -0.240250
     14          6           0        1.423536    0.255923   -1.046626
     15          6           0        0.061115    0.514001   -1.142879
     16          6           0       -0.819190   -0.287133   -0.424518
     17          8           0       -2.183508   -0.077998   -0.592542
     18          6           0       -2.980740    0.116239    0.519722
     19          8           0       -2.548093    0.131602    1.646116
     20          6           0       -4.397133    0.296739    0.114006
     21          6           0       -4.811458    0.184488   -1.225737
     22          6           0       -6.141981    0.349995   -1.587636
     23          6           0       -7.121808    0.637949   -0.624070
     24          6           0       -8.577572    0.776102   -1.008172
     25          6           0       -9.324533   -0.577772   -0.984417
     26          6           0      -10.812067   -0.500881   -1.393680
     27          6           0      -11.821752   -0.289504   -0.250807
     28          6           0      -11.724908    1.040325    0.509819
     29          6           0      -12.853615    1.219161    1.531263
     30          6           0       -6.722053    0.755200    0.710779
     31          6           0       -5.389279    0.585699    1.065207
     32          9           0       -5.074805    0.716705    2.360608
     33          6           0       -0.301867   -1.313045    0.368523
     34          7           0        1.002555   -1.563209    0.455303
     35          6           0        4.291639   -0.669168   -0.978766
     36          6           0        5.640219   -0.991740   -0.825714
     37          1           0       13.821935    2.212379   -0.542733
     38          1           0       13.823951    3.912185   -0.047996
     39          1           0       12.945680    3.413521   -1.502081
     40          1           0       11.368972    3.802489    0.438432
     41          1           0       12.238228    2.609381    1.389182
     42          1           0       11.632993    0.837568   -0.286108
     43          1           0       10.750252    2.028538   -1.230467
     44          1           0        9.248462    2.470047    0.750879
     45          1           0       10.082638    1.217623    1.655057
     46          1           0        7.899879    0.476789    0.668258
     47          1           0        8.520243    0.774739   -0.950345
     48          1           0        9.729452   -1.235268    1.033682
     49          1           0       10.252083   -1.007357   -0.632085
     50          1           0        7.999226   -1.797300   -1.437038
     51          1           0        8.895309   -2.992144   -0.494992
     52          1           0        5.394220   -2.949724    1.933060
     53          1           0        2.989789   -2.361037    1.643614
     54          1           0        2.125302    0.888228   -1.579206
     55          1           0       -0.322465    1.324447   -1.755335
     56          1           0       -4.065714   -0.033913   -1.980601
     57          1           0       -6.428434    0.259615   -2.632187
     58          1           0       -8.649221    1.197521   -2.019203
     59          1           0       -9.068300    1.487917   -0.336173
     60          1           0       -9.235396   -1.024693    0.015482
     61          1           0       -8.796860   -1.259357   -1.663909
     62          1           0      -10.942748    0.287823   -2.149361
     63          1           0      -11.079108   -1.439859   -1.895683
     64          1           0      -12.833787   -0.374477   -0.672568
     65          1           0      -11.725767   -1.118514    0.466252
     66          1           0      -10.760422    1.104425    1.030594
     67          1           0      -11.744256    1.873804   -0.207129
     68          1           0      -13.835370    1.204690    1.042201
     69          1           0      -12.761902    2.170333    2.067709
     70          1           0      -12.844340    0.414211    2.276467
     71          1           0       -7.436611    0.983475    1.495957
     72          1           0       -0.965080   -1.948366    0.949075
     73          1           0        4.013246   -0.043039   -1.821359
     74          1           0        6.358898   -0.585388   -1.527497
 ---------------------------------------------------------------------

 The electronic state is 1-A.
 Alpha  occ. eigenvalues --  -24.71061 -19.20312 -19.17193 -19.14023 -14.32477
 Alpha  occ. eigenvalues --  -10.32680 -10.28801 -10.25267 -10.24607 -10.24109
 Alpha  occ. eigenvalues --  -10.22721 -10.22031 -10.21850 -10.21655 -10.21084
 Alpha  occ. eigenvalues --  -10.20674 -10.20244 -10.20045 -10.19826 -10.19747
 Alpha  occ. eigenvalues --  -10.19215 -10.18990 -10.18698 -10.18622 -10.18584
 Alpha  occ. eigenvalues --  -10.18499 -10.18463 -10.18373 -10.18095 -10.18004
 Alpha  occ. eigenvalues --  -10.17899 -10.17887 -10.17773 -10.17740 -10.17667
 Alpha  occ. eigenvalues --  -10.17255  -1.22510  -1.10953  -1.05606  -1.02578
 Alpha  occ. eigenvalues --   -0.93906  -0.87764  -0.84802  -0.81958  -0.80948
 Alpha  occ. eigenvalues --   -0.80647  -0.79356  -0.78581  -0.77350  -0.76196
 Alpha  occ. eigenvalues --   -0.75668  -0.74444  -0.73865  -0.72228  -0.71201
 Alpha  occ. eigenvalues --   -0.68042  -0.67038  -0.65427  -0.64147  -0.62760
 Alpha  occ. eigenvalues --   -0.62698  -0.61615  -0.60465  -0.59626  -0.59060
 Alpha  occ. eigenvalues --   -0.58210  -0.57383  -0.57029  -0.56396  -0.54411
 Alpha  occ. eigenvalues --   -0.53489  -0.51859  -0.51294  -0.50523  -0.49969
 Alpha  occ. eigenvalues --   -0.47774  -0.47470  -0.47383  -0.47034  -0.46874
 Alpha  occ. eigenvalues --   -0.46418  -0.45800  -0.45305  -0.45094  -0.44676
 Alpha  occ. eigenvalues --   -0.44423  -0.44380  -0.43674  -0.43307  -0.42612
 Alpha  occ. eigenvalues --   -0.42389  -0.41841  -0.41673  -0.41393  -0.41314
 Alpha  occ. eigenvalues --   -0.40653  -0.40009  -0.39758  -0.39485  -0.39040
 Alpha  occ. eigenvalues --   -0.38984  -0.38355  -0.38208  -0.37588  -0.37009
 Alpha  occ. eigenvalues --   -0.36521  -0.36298  -0.35897  -0.35710  -0.35657
 Alpha  occ. eigenvalues --   -0.34837  -0.34797  -0.34417  -0.34335  -0.33149
 Alpha  occ. eigenvalues --   -0.33117  -0.32674  -0.32293  -0.31934  -0.31845
 Alpha  occ. eigenvalues --   -0.31613  -0.31575  -0.31071  -0.30504  -0.28584
 Alpha  occ. eigenvalues --   -0.27279  -0.26424  -0.25626  -0.25239  -0.24853
 Alpha  occ. eigenvalues --   -0.24483  -0.20083
 Alpha virt. eigenvalues --   -0.05466  -0.02940  -0.01764  -0.00944   0.00724
 Alpha virt. eigenvalues --    0.04117   0.05270   0.07245   0.08622   0.08906
 Alpha virt. eigenvalues --    0.09130   0.09801   0.10124   0.10709   0.11158

 Mulliken charges:
               1
     1  C   -0.441910
     2  C   -0.246807
     3  C   -0.248535
     4  C   -0.257053
     5  C   -0.264934
     6  C   -0.268652
     7  C   -0.044747
     8  O   -0.527245
     9  C    0.384367
    10  C   -0.181949
    11  C   -0.166641
    12  C    0.106642
    13  C    0.254412
    14  C   -0.175630
    15  C   -0.133852
    16  C    0.336996
    17  O   -0.558415
    18  C    0.603925
    19  O   -0.451609
    20  C   -0.043887
    21  C   -0.159800
    22  C   -0.183663
    23  C    0.186033
    24  C   -0.359989
    25  C   -0.253205
    26  C   -0.262177
    27  C   -0.249033
    28  C   -0.249162
    29  C   -0.442795
    30  C   -0.261922
    31  C    0.358549
    32  F   -0.264785
    33  C    0.040936
    34  N   -0.496539
    35  C   -0.196251
    36  C   -0.195107
    37  H    0.140773
    38  H    0.142619
    39  H    0.140823
    40  H    0.131110
    41  H    0.131610
    42  H    0.130167
    43  H    0.124578
    44  H    0.131317
    45  H    0.130757
    46  H    0.153678
    47  H    0.123330
    48  H    0.147539
    49  H    0.136153
    50  H    0.142197
    51  H    0.150418
    52  H    0.137723
    53  H    0.160695
    54  H    0.140441
    55  H    0.148837
    56  H    0.167067
    57  H    0.133527
    58  H    0.146502
    59  H    0.157716
    60  H    0.141241
    61  H    0.139445
    62  H    0.130216
    63  H    0.135646
    64  H    0.130252
    65  H    0.130355
    66  H    0.132962
    67  H    0.130392
    68  H    0.143336
    69  H    0.143834
    70  H    0.143831
    71  H    0.146574
    72  H    0.158528
    73  H    0.125931
    74  H    0.132317
 Sum of Mulliken charges =  -0.00000

 Dipole moment (field-independent basis, Debye):
    X=             -1.4921    Y=              1.4630    Z=             -4.5235  Tot=              4.9829
 Quadrupole moment (field-independent basis, Debye-Ang):
   XX=           -148.0188   YY=           -215.8213   ZZ=           -214.0576
   XY=              0.8557   XZ=              2.5792   YZ=             -2.4783

 Normal termination of Gaussian 16 at Fri Nov  4 22:06:48 2022.
