 Gaussian 16, Revision B.01,
 Gaussian 16:  ES64L-G16RevB.01 20-Dec-2017

 -------------------------------------------------------------------
 #p b3lyp/6-31g(d) 6D 10F nosymm GFInput td=(50-50,nstate=2) SCF=XQC
 -------------------------------------------------------------------

 ------------------------------
 Gaussian input prepared by ASE
 ------------------------------
 Symbolic Z-matrix:
 Charge =  0 Multiplicity = 1

                          Input orientation:
 ---------------------------------------------------------------------
 Center     Atomic      Atomic             Coordinates (Angstroms)
 Number     Number       Type             X           Y           Z
 ---------------------------------------------------------------------
      1          6           0        4.593903    0.911667   -2.069985
      2          6           0        4.119367    0.445342   -0.712931
      3          6           0        5.019980    0.180607    0.320626
      4          6           0        4.552763   -0.236229    1.569064
      5          6           0        3.193003   -0.392283    1.834559
      6          6           0        2.706916   -0.843159    3.190606
      7          6           0        2.278438   -0.120458    0.788077
      8          7           0        0.905619   -0.292181    1.067242
      9          6           0       -0.178032   -0.029729    0.240621
     10          6           0       -0.497048    1.060976   -0.575440
     11          6           0        0.118461    2.357611   -0.812098
     12          6           0       -0.170385    3.118268   -1.962936
     13          6           0        0.407582    4.374190   -2.121261
     14          7           0        1.249224    4.932209   -1.241271
     15          6           0        1.528539    4.204749   -0.149951
     16          6           0        1.004442    2.942395    0.112423
     17          7           0       -1.737796    0.753159   -1.170924
     18          6           0       -2.217656   -0.428419   -0.724888
     19          6           0       -1.274017   -0.957094    0.146690
     20          6           0       -1.481685   -2.212059    0.835549
     21          8           0       -0.716405   -2.645406    1.700912
     22          6           0       -2.725871   -2.987806    0.397773
     23          6           0       -3.941384   -2.108026   -0.008069
     24          6           0       -5.049612   -3.007999   -0.580217
     25          6           0       -4.487119   -1.361449    1.225995
     26          6           0       -3.505225   -1.087160   -1.100954
     27          6           0        2.750658    0.282525   -0.465602
     28          1           0        4.104435    0.357777   -2.879974
     29          1           0        4.368598    1.974811   -2.226090
     30          1           0        5.675418    0.782684   -2.180480
     31          1           0        6.087670    0.299847    0.154177
     32          1           0        5.265549   -0.443999    2.364294
     33          1           0        2.229253   -1.832899    3.154074
     34          1           0        3.539267   -0.911167    3.897437
     35          1           0        1.963854   -0.149568    3.604395
     36          1           0        0.699743   -1.091560    1.664222
     37          1           0       -0.809913    2.728124   -2.750986
     38          1           0        0.188263    4.961779   -3.012028
     39          1           0        2.210932    4.662190    0.564810
     40          1           0        1.262363    2.428437    1.030596
     41          1           0       -2.258734    1.413804   -1.728742
     42          1           0       -2.997234   -3.674764    1.206397
     43          1           0       -2.429291   -3.610768   -0.460489
     44          1           0       -4.698520   -3.571177   -1.453370
     45          1           0       -5.391332   -3.730649    0.169749
     46          1           0       -5.918307   -2.413515   -0.889429
     47          1           0       -5.370867   -0.768123    0.961556
     48          1           0       -4.784242   -2.072549    2.005289
     49          1           0       -3.743607   -0.683889    1.658197
     50          1           0       -4.301454   -0.346984   -1.260318
     51          1           0       -3.380858   -1.617277   -2.058146
     52          1           0        2.042357    0.455202   -1.268751
 ---------------------------------------------------------------------

 SCF Done:  E(RB3LYP) =  -1131.01583611     A.U. after   15 cycles

 Excitation energies and oscillator strengths:

 Excited state symmetry could not be determined.
 Excited State   1:      Triplet-?Sym    2.6605 eV  466.02 nm  f=0.0000  <S**2>=2.000
      95 -> 97         0.16610
      95 -> 98        -0.14739
      96 -> 97         0.61999
      96 -> 98        -0.19199
 This state for optimization and/or second-order correction.
 Total Energy, E(TD-HF/TD-DFT) =  -1130.91806527
 Copying the excited state density for this state as the 1-particle RhoCI density.

 Excited state symmetry could not be determined.
 Excited State   2:      Triplet-?Sym    3.0263 eV  409.69 nm  f=0.0000  <S**2>=2.000
      95 -> 98         0.17026
      96 -> 97         0.24366
      96 -> 98         0.62231

 Excited state symmetry could not be determined.
 Excited State   3:      Singlet-?Sym    3.3493 eV  370.17 nm  f=0.0995  <S**2>=0.000
      96 -> 97         0.59784
      96 -> 98         0.36821

 Excited state symmetry could not be determined.
 Excited State   4:      Singlet-?Sym    3.4669 eV  357.62 nm  f=0.1052  <S**2>=0.000
      96 -> 97        -0.36749
      96 -> 98         0.59247

 Alpha  occ. eigenvalues --  -19.13023 -14.40164 -14.35232 -14.32024 -10.27109
 Alpha  occ. eigenvalues --  -10.24345 -10.23447 -10.22716 -10.22186 -10.21957
 Alpha  occ. eigenvalues --  -10.21864 -10.21819 -10.21672 -10.21513 -10.19768
 Alpha  occ. eigenvalues --  -10.19469 -10.19047 -10.18916 -10.18529 -10.18466
 Alpha  occ. eigenvalues --  -10.18377 -10.18246 -10.17570 -10.17484 -10.17322
 Alpha  occ. eigenvalues --  -10.17019 -10.16818  -1.02702  -1.00137  -0.93854
 Alpha  occ. eigenvalues --   -0.93180  -0.85521  -0.84050  -0.81850  -0.79540
 Alpha  occ. eigenvalues --   -0.77188  -0.75845  -0.75523  -0.73369  -0.71903
 Alpha  occ. eigenvalues --   -0.70929  -0.69873  -0.69483  -0.64841  -0.64504
 Alpha  occ. eigenvalues --   -0.62868  -0.62375  -0.60573  -0.57863  -0.56898
 Alpha  occ. eigenvalues --   -0.55904  -0.53972  -0.51795  -0.50277  -0.49411
 Alpha  occ. eigenvalues --   -0.48636  -0.48060  -0.47436  -0.46743  -0.46294
 Alpha  occ. eigenvalues --   -0.46070  -0.45079  -0.44618  -0.44046  -0.42663
 Alpha  occ. eigenvalues --   -0.42541  -0.42123  -0.41830  -0.41336  -0.41130
 Alpha  occ. eigenvalues --   -0.40423  -0.39740  -0.39571  -0.39112  -0.38869
 Alpha  occ. eigenvalues --   -0.38514  -0.38390  -0.37917  -0.36593  -0.36276
 Alpha  occ. eigenvalues --   -0.35966  -0.35111  -0.34486  -0.33999  -0.33648
 Alpha  occ. eigenvalues --   -0.33343  -0.32662  -0.31386  -0.29495  -0.25965
 Alpha  occ. eigenvalues --   -0.25214  -0.24904  -0.24526  -0.22423  -0.21976
 Alpha  occ. eigenvalues --   -0.18260
 Alpha virt. eigenvalues --   -0.03862  -0.03365  -0.00692   0.01547   0.02309
 Alpha virt. eigenvalues --    0.04875   0.05988   0.06984   0.10049   0.10367
 Alpha virt. eigenvalues --    0.11255   0.11552   0.11963   0.13091   0.13355

 Mulliken charges:
               1
     1  C   -0.530164
     2  C    0.167283
     3  C   -0.180773
     4  C   -0.200599
     5  C    0.147959
     6  C   -0.549324
     7  C    0.250956
     8  N   -0.828277
     9  C    0.238406
    10  C    0.247790
    11  C    0.142126
    12  C   -0.207349
    13  C    0.037356
    14  N   -0.415941
    15  C    0.029198
    16  C   -0.174874
    17  N   -0.744120
    18  C    0.336072
    19  C   -0.010326
    20  C    0.398756
    21  O   -0.515318
    22  C   -0.355773
    23  C    0.075122
    24  C   -0.450052
    25  C   -0.451458
    26  C   -0.343119
    27  C   -0.213177
    28  H    0.154265
    29  H    0.168270
    30  H    0.151341
    31  H    0.113291
    32  H    0.117404
    33  H    0.171532
    34  H    0.155071
    35  H    0.162974
    36  H    0.369353
    37  H    0.115698
    38  H    0.135171
    39  H    0.142092
    40  H    0.162265
    41  H    0.332806
    42  H    0.162476
    43  H    0.160688
    44  H    0.142103
    45  H    0.150861
    46  H    0.143003
    47  H    0.140929
    48  H    0.151310
    49  H    0.159908
    50  H    0.146788
    51  H    0.162081
    52  H    0.127942
 Sum of Mulliken charges =  -0.00000

 Dipole moment (field-independent basis, Debye):
    X=             -4.7226    Y=             -1.3973    Z=             -2.2668  Tot=              5.4216
 Quadrupole moment (field-independent basis, Debye-Ang):
   XX=           -142.5193   YY=           -177.8952   ZZ=           -152.6425
   XY=             -1.6462   XZ=              9.2578   YZ=              4.4307

 Normal termination of Gaussian 16 at Sat Nov  5 09:38:57 2022.
