 Gaussian 16, Revision B.01,
 Gaussian 16:  ES64L-G16RevB.01 20-Dec-2017

 -----------------------------
 #p b3lyp/6-31g(d) opt SCF=XQC
 -----------------------------

 ------------------------------
 Gaussian input prepared by ASE
 ------------------------------
 Symbolic Z-matrix:
 Charge =  0 Multiplicity = 1

 SCF Done:  E(RB3LYP) =  -1131.00656704     A.U. after   15 cycles
 SCF Done:  E(RB3LYP) =  -1131.00799504     A.U. after   13 cycles
 SCF Done:  E(RB3LYP) =  -1131.01321451     A.U. after   14 cycles
 SCF Done:  E(RB3LYP) =  -1131.01507024     A.U. after   12 cycles
 SCF Done:  E(RB3LYP) =  -1131.01535780     A.U. after   12 cycles
 SCF Done:  E(RB3LYP) =  -1131.01557565     A.U. after   12 cycles
 SCF Done:  E(RB3LYP) =  -1131.01569959     A.U. after   11 cycles
 SCF Done:  E(RB3LYP) =  -1131.01577681     A.U. after   11 cycles
 SCF Done:  E(RB3LYP) =  -1131.01581661     A.U. after   11 cycles
 SCF Done:  E(RB3LYP) =  -1131.01582980     A.U. after   10 cycles
 SCF Done:  E(RB3LYP) =  -1131.01583573     A.U. after    9 cycles
 SCF Done:  E(RB3LYP) =  -1131.01583739     A.U. after    8 cycles
 SCF Done:  E(RB3LYP) =  -1131.01583846     A.U. after    8 cycles
 SCF Done:  E(RB3LYP) =  -1131.01583875     A.U. after    7 cycles
 Optimization completed.
    -- Stationary point found.

                         Standard orientation:
 ---------------------------------------------------------------------
 Center     Atomic      Atomic             Coordinates (Angstroms)
 Number     Number       Type             X           Y           Z
 ---------------------------------------------------------------------
      1          6           0       -4.331935   -0.243936    2.376679
      2          6           0       -3.641467   -1.094242    1.335297
      3          6           0       -4.270746   -2.205075    0.770066
      4          6           0       -3.614232   -2.965364   -0.200290
      5          6           0       -2.331727   -2.647354   -0.645080
      6          6           0       -1.638382   -3.480767   -1.695378
      7          6           0       -1.693986   -1.518682   -0.075143
      8          7           0       -0.392066   -1.213932   -0.527014
      9          6           0        0.407700   -0.134934   -0.176842
     10          6           0        0.144179    1.234371   -0.063149
     11          6           0       -1.017565    2.064378   -0.341639
     12          6           0       -1.165456    3.348279    0.220667
     13          6           0       -2.271907    4.123192   -0.113592
     14          7           0       -3.242169    3.729788   -0.949029
     15          6           0       -3.103805    2.505436   -1.478191
     16          6           0       -2.037775    1.649234   -1.218280
     17          7           0        1.359670    1.834806    0.325263
     18          6           0        2.355847    0.925157    0.399494
     19          6           0        1.806488   -0.316643    0.106683
     20          6           0        2.606657   -1.521092    0.066403
     21          8           0        2.169461   -2.613642   -0.304394
     22          6           0        4.051415   -1.349553    0.540410
     23          6           0        4.693417    0.027195    0.210881
     24          6           0        6.071520    0.118530    0.887612
     25          6           0        4.871355    0.174396   -1.313845
     26          6           0        3.786213    1.170199    0.756152
     27          6           0       -2.348598   -0.768106    0.907312
     28          1           0       -3.671373   -0.031752    3.225850
     29          1           0       -4.639448    0.723893    1.959368
     30          1           0       -5.229035   -0.737599    2.764013
     31          1           0       -5.274592   -2.478978    1.084956
     32          1           0       -4.113982   -3.831435   -0.629002
     33          1           0       -0.753142   -3.998639   -1.298842
     34          1           0       -2.312719   -4.247203   -2.088938
     35          1           0       -1.293449   -2.865587   -2.536215
     36          1           0        0.188655   -2.032058   -0.703677
     37          1           0       -0.448768    3.734235    0.941520
     38          1           0       -2.389574    5.114291    0.323107
     39          1           0       -3.892786    2.189539   -2.159009
     40          1           0       -1.987708    0.682597   -1.704926
     41          1           0        1.486496    2.834860    0.378153
     42          1           0        4.645219   -2.165891    0.115661
     43          1           0        4.049601   -1.494355    1.632053
     44          1           0        5.992949    0.003069    1.975419
     45          1           0        6.741860   -0.664470    0.514783
     46          1           0        6.545718    1.086833    0.684687
     47          1           0        5.361109    1.124995   -1.557722
     48          1           0        5.498085   -0.633924   -1.707637
     49          1           0        3.913965    0.143075   -1.844052
     50          1           0        4.133820    2.139065    0.371825
     51          1           0        3.888705    1.218194    1.851551
     52          1           0       -1.836604    0.074024    1.360340
 ---------------------------------------------------------------------

 The electronic state is 1-A.
 Alpha  occ. eigenvalues --  -19.13023 -14.40164 -14.35232 -14.32024 -10.27109
 Alpha  occ. eigenvalues --  -10.24345 -10.23447 -10.22716 -10.22186 -10.21957
 Alpha  occ. eigenvalues --  -10.21864 -10.21819 -10.21672 -10.21513 -10.19768
 Alpha  occ. eigenvalues --  -10.19469 -10.19047 -10.18916 -10.18529 -10.18466
 Alpha  occ. eigenvalues --  -10.18377 -10.18246 -10.17570 -10.17484 -10.17322
 Alpha  occ. eigenvalues --  -10.17019 -10.16818  -1.02702  -1.00137  -0.93854
 Alpha  occ. eigenvalues --   -0.93180  -0.85521  -0.84050  -0.81850  -0.79540
 Alpha  occ. eigenvalues --   -0.77188  -0.75845  -0.75523  -0.73369  -0.71903
 Alpha  occ. eigenvalues --   -0.70929  -0.69874  -0.69483  -0.64841  -0.64504
 Alpha  occ. eigenvalues --   -0.62868  -0.62375  -0.60573  -0.57863  -0.56898
 Alpha  occ. eigenvalues --   -0.55904  -0.53972  -0.51795  -0.50277  -0.49411
 Alpha  occ. eigenvalues --   -0.48636  -0.48060  -0.47436  -0.46743  -0.46294
 Alpha  occ. eigenvalues --   -0.46070  -0.45079  -0.44618  -0.44046  -0.42664
 Alpha  occ. eigenvalues --   -0.42541  -0.42123  -0.41830  -0.41336  -0.41130
 Alpha  occ. eigenvalues --   -0.40423  -0.39740  -0.39571  -0.39112  -0.38869
 Alpha  occ. eigenvalues --   -0.38514  -0.38390  -0.37917  -0.36593  -0.36276
 Alpha  occ. eigenvalues --   -0.35966  -0.35111  -0.34486  -0.33999  -0.33648
 Alpha  occ. eigenvalues --   -0.33343  -0.32662  -0.31386  -0.29495  -0.25965
 Alpha  occ. eigenvalues --   -0.25214  -0.24904  -0.24526  -0.22423  -0.21976
 Alpha  occ. eigenvalues --   -0.18260
 Alpha virt. eigenvalues --   -0.03862  -0.03365  -0.00692   0.01547   0.02309
 Alpha virt. eigenvalues --    0.04875   0.05988   0.06984   0.10049   0.10367
 Alpha virt. eigenvalues --    0.11255   0.11552   0.11963   0.13091   0.13355

 Mulliken charges:
               1
     1  C   -0.530166
     2  C    0.167286
     3  C   -0.180768
     4  C   -0.200600
     5  C    0.147956
     6  C   -0.549333
     7  C    0.250963
     8  N   -0.828270
     9  C    0.238405
    10  C    0.247797
    11  C    0.142117
    12  C   -0.207342
    13  C    0.037355
    14  N   -0.415937
    15  C    0.029183
    16  C   -0.174869
    17  N   -0.744117
    18  C    0.336045
    19  C   -0.010308
    20  C    0.398747
    21  O   -0.515325
    22  C   -0.355755
    23  C    0.075129
    24  C   -0.450052
    25  C   -0.451464
    26  C   -0.343119
    27  C   -0.213192
    28  H    0.154265
    29  H    0.168270
    30  H    0.151342
    31  H    0.113292
    32  H    0.117404
    33  H    0.171536
    34  H    0.155071
    35  H    0.162974
    36  H    0.369353
    37  H    0.115697
    38  H    0.135172
    39  H    0.142093
    40  H    0.162265
    41  H    0.332807
    42  H    0.162475
    43  H    0.160685
    44  H    0.142103
    45  H    0.150859
    46  H    0.143004
    47  H    0.140929
    48  H    0.151312
    49  H    0.159909
    50  H    0.146789
    51  H    0.162084
    52  H    0.127946
 Sum of Mulliken charges =  -0.00000

 Dipole moment (field-independent basis, Debye):
    X=              4.7327    Y=              2.1173    Z=              1.5852  Tot=              5.4216
 Quadrupole moment (field-independent basis, Debye-Ang):
   XX=           -150.3712   YY=           -163.5029   ZZ=           -157.1297
   XY=             18.8229   XZ=              1.3177   YZ=              7.9641

 Normal termination of Gaussian 16 at Fri Nov  4 21:57:54 2022.
