 Gaussian 16, Revision B.01,
 Gaussian 16:  ES64L-G16RevB.01 20-Dec-2017

 -------------------------------------------------------------------
 #p b3lyp/6-31g(d) 6D 10F nosymm GFInput td=(50-50,nstate=2) SCF=XQC
 -------------------------------------------------------------------

 ------------------------------
 Gaussian input prepared by ASE
 ------------------------------
 Symbolic Z-matrix:
 Charge =  0 Multiplicity = 1

                          Input orientation:
 ---------------------------------------------------------------------
 Center     Atomic      Atomic             Coordinates (Angstroms)
 Number     Number       Type             X           Y           Z
 ---------------------------------------------------------------------
      1          8           0       -6.365800   -1.178613    0.402147
      2          7           0       -5.807512   -1.841839    1.280836
      3          8           0       -6.392560   -2.560694    2.098340
      4          6           0       -4.365054   -1.797757    1.399026
      5          6           0       -3.633369   -1.039720    0.565728
      6          6           0       -2.179637   -0.933040    0.552733
      7          6           0       -1.382825   -1.911150    1.190001
      8          6           0       -0.011318   -1.857296    1.128602
      9          9           0        0.729043   -2.804218    1.729699
     10          6           0        0.655035   -0.833881    0.425046
     11          8           0        2.005763   -0.888108    0.438915
     12          6           0        2.736742    0.080826   -0.325606
     13          6           0        4.208289   -0.235045   -0.229677
     14          6           0        4.668514   -1.549278   -0.380842
     15          6           0        6.033868   -1.825522   -0.333595
     16          6           0        6.954754   -0.791614   -0.145047
     17          6           0        6.502435    0.519297    0.004945
     18          6           0        5.133930    0.793862   -0.031337
     19          6           0       -0.124609    0.138104   -0.203213
     20          6           0       -1.529542    0.112315   -0.149873
     21          6           0       -2.267769    1.215064   -0.825914
     22          6           0       -1.985055    1.535176   -2.164794
     23          6           0       -2.643321    2.585682   -2.802158
     24          6           0       -3.593482    3.340608   -2.111521
     25          6           0       -3.879652    3.038061   -0.779586
     26          6           0       -3.222380    1.986251   -0.141535
     27          1           0       -4.011673   -2.414083    2.213456
     28          1           0       -4.188183   -0.458997   -0.164475
     29          1           0       -1.834111   -2.747950    1.711567
     30          1           0        2.391032    0.039330   -1.369155
     31          1           0        2.531984    1.089350    0.056708
     32          1           0        3.952338   -2.354013   -0.517617
     33          1           0        6.380425   -2.849416   -0.444767
     34          1           0        8.018863   -1.008888   -0.110589
     35          1           0        7.211360    1.327987    0.160236
     36          1           0        4.784669    1.815919    0.098215
     37          1           0        0.352940    0.959701   -0.722950
     38          1           0       -1.259589    0.939382   -2.712327
     39          1           0       -2.419050    2.809805   -3.841539
     40          1           0       -4.107815    4.158424   -2.608490
     41          1           0       -4.612758    3.623596   -0.231860
     42          1           0       -3.434916    1.772383    0.901983
 ---------------------------------------------------------------------

 SCF Done:  E(RB3LYP) =  -1190.00920012     A.U. after   15 cycles

 Excitation energies and oscillator strengths:

 Excited state symmetry could not be determined.
 Excited State   1:      Triplet-?Sym    2.3874 eV  519.33 nm  f=0.0000  <S**2>=2.000
      82 -> 92        -0.15905
      90 -> 92        -0.13871
      91 -> 92         0.64808
 This state for optimization and/or second-order correction.
 Total Energy, E(TD-HF/TD-DFT) =  -1189.92146543
 Copying the excited state density for this state as the 1-particle RhoCI density.

 Excited state symmetry could not be determined.
 Excited State   2:      Triplet-?Sym    2.7557 eV  449.93 nm  f=0.0000  <S**2>=2.000
      83 -> 92         0.38862
      83 -> 94         0.16237
      84 -> 92        -0.52138
      84 -> 94        -0.21675
      84 <- 92        -0.11170

 Excited state symmetry could not be determined.
 Excited State   3:      Singlet-?Sym    3.5046 eV  353.77 nm  f=0.3639  <S**2>=0.000
      90 -> 92         0.20875
      91 -> 92         0.66890

 Excited state symmetry could not be determined.
 Excited State   4:      Singlet-?Sym    3.5623 eV  348.04 nm  f=0.0005  <S**2>=0.000
      86 -> 92         0.67982
      86 -> 94         0.16169

 Alpha  occ. eigenvalues --  -24.71865 -19.20525 -19.16490 -19.16405 -14.55801
 Alpha  occ. eigenvalues --  -10.28760 -10.27920 -10.26710 -10.23959 -10.22849
 Alpha  occ. eigenvalues --  -10.22803 -10.22621 -10.21696 -10.21532 -10.21456
 Alpha  occ. eigenvalues --  -10.21093 -10.20443 -10.20394 -10.20328 -10.20300
 Alpha  occ. eigenvalues --  -10.20263 -10.20208 -10.20089 -10.20022 -10.19975
 Alpha  occ. eigenvalues --  -10.19916  -1.23152  -1.20636  -1.09234  -1.03332
 Alpha  occ. eigenvalues --   -0.89450  -0.86825  -0.86303  -0.83850  -0.80266
 Alpha  occ. eigenvalues --   -0.78976  -0.77080  -0.75684  -0.75454  -0.74147
 Alpha  occ. eigenvalues --   -0.71803  -0.68556  -0.64933  -0.63187  -0.61861
 Alpha  occ. eigenvalues --   -0.61501  -0.59777  -0.59191  -0.57429  -0.56149
 Alpha  occ. eigenvalues --   -0.54220  -0.53788  -0.52553  -0.51989  -0.51576
 Alpha  occ. eigenvalues --   -0.51006  -0.50195  -0.49509  -0.47981  -0.47319
 Alpha  occ. eigenvalues --   -0.47122  -0.46211  -0.46079  -0.45747  -0.44545
 Alpha  occ. eigenvalues --   -0.43609  -0.43257  -0.42950  -0.42662  -0.42148
 Alpha  occ. eigenvalues --   -0.39896  -0.39419  -0.38279  -0.37565  -0.37085
 Alpha  occ. eigenvalues --   -0.36903  -0.36068  -0.35551  -0.35515  -0.35098
 Alpha  occ. eigenvalues --   -0.34475  -0.30499  -0.29383  -0.29359  -0.27900
 Alpha  occ. eigenvalues --   -0.27565  -0.26301  -0.26045  -0.25716  -0.25337
 Alpha  occ. eigenvalues --   -0.22966
 Alpha virt. eigenvalues --   -0.09018  -0.03594  -0.02118  -0.01707  -0.01291
 Alpha virt. eigenvalues --   -0.01073   0.00657   0.05066   0.07174   0.08232
 Alpha virt. eigenvalues --    0.08541   0.09410   0.10762   0.11912   0.12639

 Mulliken charges:
               1
     1  O   -0.411504
     2  N    0.434510
     3  O   -0.400054
     4  C    0.000190
     5  C   -0.185030
     6  C    0.138896
     7  C   -0.277451
     8  C    0.346302
     9  F   -0.279536
    10  C    0.341788
    11  O   -0.507259
    12  C   -0.122537
    13  C    0.136257
    14  C   -0.156155
    15  C   -0.132235
    16  C   -0.124822
    17  C   -0.128500
    18  C   -0.179892
    19  C   -0.253102
    20  C    0.026818
    21  C    0.052163
    22  C   -0.164713
    23  C   -0.132798
    24  C   -0.122996
    25  C   -0.128874
    26  C   -0.167275
    27  H    0.175038
    28  H    0.208174
    29  H    0.157810
    30  H    0.161284
    31  H    0.156413
    32  H    0.145853
    33  H    0.137056
    34  H    0.135209
    35  H    0.135239
    36  H    0.127986
    37  H    0.157800
    38  H    0.135193
    39  H    0.137311
    40  H    0.138340
    41  H    0.142388
    42  H    0.146716
 Sum of Mulliken charges =  -0.00000

 Dipole moment (field-independent basis, Debye):
    X=              6.3928    Y=              3.3516    Z=             -2.3259  Tot=              7.5836
 Quadrupole moment (field-independent basis, Debye-Ang):
   XX=           -178.8882   YY=           -142.1946   ZZ=           -146.6081
   XY=            -15.9715   XZ=              5.0939   YZ=              1.3370

 Normal termination of Gaussian 16 at Sat Nov  5 09:43:53 2022.
