 Gaussian 16, Revision B.01,
 Gaussian 16:  ES64L-G16RevB.01 20-Dec-2017

 -----------------------------
 #p b3lyp/6-31g(d) opt SCF=XQC
 -----------------------------

 ------------------------------
 Gaussian input prepared by ASE
 ------------------------------
 Symbolic Z-matrix:
 Charge =  0 Multiplicity = 1

 SCF Done:  E(RB3LYP) =  -1190.00376810     A.U. after   15 cycles
 SCF Done:  E(RB3LYP) =  -1190.00861420     A.U. after   14 cycles
 SCF Done:  E(RB3LYP) =  -1190.00885110     A.U. after   13 cycles
 SCF Done:  E(RB3LYP) =  -1190.00838789     A.U. after   13 cycles
 SCF Done:  E(RB3LYP) =  -1190.00901030     A.U. after   13 cycles
 SCF Done:  E(RB3LYP) =  -1190.00903533     A.U. after   10 cycles
 SCF Done:  E(RB3LYP) =  -1190.00904416     A.U. after   10 cycles
 SCF Done:  E(RB3LYP) =  -1190.00905657     A.U. after   11 cycles
 SCF Done:  E(RB3LYP) =  -1190.00907243     A.U. after   11 cycles
 SCF Done:  E(RB3LYP) =  -1190.00908943     A.U. after   12 cycles
 SCF Done:  E(RB3LYP) =  -1190.00916968     A.U. after   12 cycles
 SCF Done:  E(RB3LYP) =  -1190.00920148     A.U. after   14 cycles
 SCF Done:  E(RB3LYP) =  -1190.00920456     A.U. after   12 cycles
 SCF Done:  E(RB3LYP) =  -1190.00920491     A.U. after   11 cycles
 SCF Done:  E(RB3LYP) =  -1190.00920596     A.U. after   11 cycles
 SCF Done:  E(RB3LYP) =  -1190.00920611     A.U. after   10 cycles
 SCF Done:  E(RB3LYP) =  -1190.00920621     A.U. after    9 cycles
 SCF Done:  E(RB3LYP) =  -1190.00920623     A.U. after    7 cycles
 SCF Done:  E(RB3LYP) =  -1190.00920624     A.U. after    7 cycles
 SCF Done:  E(RB3LYP) =  -1190.00920624     A.U. after    7 cycles
 Optimization completed.
    -- Stationary point found.

                         Standard orientation:
 ---------------------------------------------------------------------
 Center     Atomic      Atomic             Coordinates (Angstroms)
 Number     Number       Type             X           Y           Z
 ---------------------------------------------------------------------
      1          8           0       -5.932671   -1.005953   -0.473599
      2          7           0       -5.383342   -2.030179   -0.057848
      3          8           0       -5.971555   -3.081266    0.218860
      4          6           0       -3.948753   -2.040273    0.138240
      5          6           0       -3.214941   -0.946019   -0.123480
      6          6           0       -1.766546   -0.832922   -0.004129
      7          6           0       -0.958708   -1.991366    0.051776
      8          6           0        0.411270   -1.897906    0.097919
      9          9           0        1.162928   -3.011274    0.137096
     10          6           0        1.065435   -0.649598    0.084091
     11          8           0        2.415818   -0.687941    0.135012
     12          6           0        3.138742    0.547671    0.043902
     13          6           0        4.616266    0.245727    0.030497
     14          6           0        5.129141   -0.778565   -0.775513
     15          6           0        6.500965   -1.022159   -0.814210
     16          6           0        7.376159   -0.239457   -0.056608
     17          6           0        6.871342    0.782744    0.747035
     18          6           0        5.496030    1.019018    0.793933
     19          6           0        0.274633    0.499040    0.033385
     20          6           0       -1.129448    0.433233   -0.006263
     21          6           0       -1.881879    1.718359   -0.025396
     22          6           0       -1.561961    2.708200   -0.970312
     23          6           0       -2.234062    3.929380   -0.980656
     24          6           0       -3.235740    4.187163   -0.042632
     25          6           0       -3.559491    3.215838    0.905624
     26          6           0       -2.888361    1.993177    0.915802
     27          1           0       -3.603399   -2.992758    0.514452
     28          1           0       -3.763262   -0.070892   -0.457772
     29          1           0       -1.398180   -2.982290    0.022479
     30          1           0        2.833349    1.067105   -0.876509
     31          1           0        2.883596    1.192857    0.894693
     32          1           0        4.448162   -1.393108   -1.356733
     33          1           0        6.888315   -1.823827   -1.437193
     34          1           0        8.445468   -0.429712   -0.089821
     35          1           0        7.544257    1.390642    1.345630
     36          1           0        5.105371    1.809272    1.431313
     37          1           0        0.740819    1.476433    0.057435
     38          1           0       -0.795714    2.505811   -1.713930
     39          1           0       -1.980031    4.677256   -1.726974
     40          1           0       -3.760813    5.138248   -0.051441
     41          1           0       -4.333003    3.409373    1.643543
     42          1           0       -3.131197    1.251881    1.671680
 ---------------------------------------------------------------------

 The electronic state is 1-A.
 Alpha  occ. eigenvalues --  -24.71865 -19.20526 -19.16490 -19.16405 -14.55801
 Alpha  occ. eigenvalues --  -10.28760 -10.27920 -10.26710 -10.23959 -10.22849
 Alpha  occ. eigenvalues --  -10.22803 -10.22621 -10.21696 -10.21532 -10.21456
 Alpha  occ. eigenvalues --  -10.21093 -10.20443 -10.20394 -10.20328 -10.20300
 Alpha  occ. eigenvalues --  -10.20263 -10.20208 -10.20089 -10.20022 -10.19975
 Alpha  occ. eigenvalues --  -10.19916  -1.23152  -1.20636  -1.09234  -1.03332
 Alpha  occ. eigenvalues --   -0.89450  -0.86825  -0.86303  -0.83850  -0.80266
 Alpha  occ. eigenvalues --   -0.78976  -0.77080  -0.75684  -0.75454  -0.74147
 Alpha  occ. eigenvalues --   -0.71803  -0.68556  -0.64933  -0.63187  -0.61861
 Alpha  occ. eigenvalues --   -0.61501  -0.59777  -0.59191  -0.57429  -0.56149
 Alpha  occ. eigenvalues --   -0.54220  -0.53788  -0.52553  -0.51989  -0.51576
 Alpha  occ. eigenvalues --   -0.51006  -0.50195  -0.49509  -0.47981  -0.47319
 Alpha  occ. eigenvalues --   -0.47122  -0.46211  -0.46079  -0.45747  -0.44545
 Alpha  occ. eigenvalues --   -0.43609  -0.43257  -0.42949  -0.42662  -0.42148
 Alpha  occ. eigenvalues --   -0.39896  -0.39419  -0.38279  -0.37565  -0.37085
 Alpha  occ. eigenvalues --   -0.36903  -0.36068  -0.35551  -0.35515  -0.35098
 Alpha  occ. eigenvalues --   -0.34475  -0.30499  -0.29383  -0.29359  -0.27900
 Alpha  occ. eigenvalues --   -0.27565  -0.26301  -0.26045  -0.25716  -0.25337
 Alpha  occ. eigenvalues --   -0.22966
 Alpha virt. eigenvalues --   -0.09018  -0.03594  -0.02118  -0.01707  -0.01291
 Alpha virt. eigenvalues --   -0.01073   0.00657   0.05066   0.07174   0.08232
 Alpha virt. eigenvalues --    0.08541   0.09410   0.10762   0.11912   0.12639

 Mulliken charges:
               1
     1  O   -0.411504
     2  N    0.434511
     3  O   -0.400056
     4  C    0.000189
     5  C   -0.185032
     6  C    0.138899
     7  C   -0.277451
     8  C    0.346301
     9  F   -0.279536
    10  C    0.341774
    11  O   -0.507256
    12  C   -0.122532
    13  C    0.136254
    14  C   -0.156147
    15  C   -0.132238
    16  C   -0.124820
    17  C   -0.128505
    18  C   -0.179887
    19  C   -0.253094
    20  C    0.026814
    21  C    0.052178
    22  C   -0.164731
    23  C   -0.132785
    24  C   -0.123000
    25  C   -0.128874
    26  C   -0.167278
    27  H    0.175039
    28  H    0.208177
    29  H    0.157809
    30  H    0.161283
    31  H    0.156413
    32  H    0.145845
    33  H    0.137057
    34  H    0.135209
    35  H    0.135240
    36  H    0.127986
    37  H    0.157798
    38  H    0.135195
    39  H    0.137310
    40  H    0.138340
    41  H    0.142389
    42  H    0.146714
 Sum of Mulliken charges =  -0.00000

 Dipole moment (field-independent basis, Debye):
    X=              6.3480    Y=              4.1462    Z=              0.1488  Tot=              7.5836
 Quadrupole moment (field-independent basis, Debye-Ang):
   XX=           -172.9727   YY=           -142.7477   ZZ=           -144.6132
   XY=            -13.3075   XZ=             -5.0499   YZ=              2.2899

 Normal termination of Gaussian 16 at Fri Nov  4 21:59:32 2022.
