 Gaussian 16, Revision B.01,
 Gaussian 16:  ES64L-G16RevB.01 20-Dec-2017

 -------------------------------------------------------------------
 #p b3lyp/6-31g(d) 6D 10F nosymm GFInput td=(50-50,nstate=2) SCF=XQC
 -------------------------------------------------------------------

 ------------------------------
 Gaussian input prepared by ASE
 ------------------------------
 Symbolic Z-matrix:
 Charge =  0 Multiplicity = 1

                          Input orientation:
 ---------------------------------------------------------------------
 Center     Atomic      Atomic             Coordinates (Angstroms)
 Number     Number       Type             X           Y           Z
 ---------------------------------------------------------------------
      1          6           0       -6.381533   -1.311055    2.081560
      2          6           0       -6.211613   -1.424073    0.563077
      3          6           0       -6.266100   -0.064399   -0.148408
      4          6           0       -6.091831   -0.155030   -1.677576
      5          6           0       -4.654925   -0.454671   -2.165575
      6          6           0       -3.823474    0.780985   -2.556556
      7          6           0       -3.601988    1.806130   -1.442483
      8          8           0       -3.018794    1.248024   -0.261523
      9          6           0       -1.674640    1.001792   -0.200679
     10          6           0       -0.744891    1.345050   -1.205542
     11          6           0        0.600299    1.069477   -1.026299
     12          6           0        1.096397    0.446470    0.138553
     13          6           0        0.145590    0.102143    1.147844
     14          6           0        0.597021   -0.534329    2.353742
     15          6           0        1.912882   -0.814834    2.548426
     16          6           0        2.905134   -0.490500    1.562662
     17          6           0        4.270043   -0.791107    1.793008
     18          6           0        5.221222   -0.472280    0.848593
     19          6           0        4.833357    0.156873   -0.356862
     20          6           0        3.509596    0.458497   -0.604475
     21          6           0        2.506650    0.144788    0.346254
     22          6           0        6.048736    0.393137   -1.227700
     23          6           0        7.234287    0.283238   -0.230950
     24          6           0        8.565470   -0.115508   -0.865677
     25          6           0        6.717788   -0.694666    0.859261
     26          6           0       -1.220114    0.386382    0.956786
     27          1           0       -7.341457   -0.846672    2.340035
     28          1           0       -5.588104   -0.695527    2.522983
     29          1           0       -6.347408   -2.294974    2.563490
     30          1           0       -6.996498   -2.076210    0.153011
     31          1           0       -5.257230   -1.921374    0.343336
     32          1           0       -7.235649    0.405528    0.071373
     33          1           0       -5.498236    0.590781    0.282211
     34          1           0       -6.769056   -0.935666   -2.050660
     35          1           0       -6.440418    0.779498   -2.140896
     36          1           0       -4.698807   -1.104283   -3.048789
     37          1           0       -4.110640   -1.023929   -1.402650
     38          1           0       -2.852287    0.446220   -2.942024
     39          1           0       -4.319771    1.309761   -3.383815
     40          1           0       -4.558254    2.212003   -1.101162
     41          1           0       -3.000855    2.651941   -1.800651
     42          1           0       -1.066174    1.822527   -2.123769
     43          1           0        1.282069    1.347809   -1.822926
     44          1           0       -0.140731   -0.788109    3.110991
     45          1           0        2.241581   -1.296934    3.466376
     46          1           0        4.548553   -1.270547    2.729732
     47          1           0        3.242947    0.947205   -1.536669
     48          1           0        6.029183    1.352702   -1.757792
     49          1           0        6.127070   -0.392052   -1.996561
     50          1           0        7.350918    1.267500    0.244668
     51          1           0        8.878794    0.610863   -1.625128
     52          1           0        8.490578   -1.096339   -1.352622
     53          1           0        9.362946   -0.175698   -0.115390
     54          1           0        7.180693   -0.520150    1.837646
     55          1           0        6.953180   -1.733509    0.578118
     56          1           0       -1.941504    0.127108    1.726467
 ---------------------------------------------------------------------

 SCF Done:  E(RB3LYP) =  -1045.99534870     A.U. after   14 cycles

 Excitation energies and oscillator strengths:

 Excited state symmetry could not be determined.
 Excited State   1:      Triplet-?Sym    2.6910 eV  460.74 nm  f=0.0000  <S**2>=2.000
      92 -> 97         0.10893
      93 -> 95         0.49643
      93 -> 96        -0.13189
      94 -> 95         0.30989
      94 -> 96         0.31678
 This state for optimization and/or second-order correction.
 Total Energy, E(TD-HF/TD-DFT) =  -1045.89645778
 Copying the excited state density for this state as the 1-particle RhoCI density.

 Excited state symmetry could not be determined.
 Excited State   2:      Triplet-?Sym    3.2908 eV  376.76 nm  f=0.0000  <S**2>=2.000
      93 -> 95        -0.33590
      93 -> 96         0.18376
      94 -> 95         0.56271

 Excited state symmetry could not be determined.
 Excited State   3:      Singlet-?Sym    3.8117 eV  325.27 nm  f=0.0218  <S**2>=0.000
      93 -> 95        -0.17633
      93 -> 96        -0.31605
      94 -> 95         0.58195
      94 -> 96        -0.14239

 Excited state symmetry could not be determined.
 Excited State   4:      Singlet-?Sym    4.1172 eV  301.14 nm  f=0.0118  <S**2>=0.000
      93 -> 95         0.50042
      94 -> 95         0.22457
      94 -> 96         0.43377

 Alpha  occ. eigenvalues --  -19.17208 -10.24388 -10.23933 -10.19272 -10.19217
 Alpha  occ. eigenvalues --  -10.19013 -10.18925 -10.18863 -10.18836 -10.18667
 Alpha  occ. eigenvalues --  -10.18627 -10.18379 -10.18323 -10.18320 -10.18309
 Alpha  occ. eigenvalues --  -10.18250 -10.18154 -10.18092 -10.18072 -10.17811
 Alpha  occ. eigenvalues --  -10.17687 -10.17654 -10.17507 -10.17306 -10.17095
 Alpha  occ. eigenvalues --  -10.16735  -1.05626  -0.87481  -0.85443  -0.82178
 Alpha  occ. eigenvalues --   -0.80435  -0.78844  -0.77743  -0.76177  -0.74921
 Alpha  occ. eigenvalues --   -0.73378  -0.72211  -0.71429  -0.68441  -0.67738
 Alpha  occ. eigenvalues --   -0.66539  -0.62718  -0.62046  -0.60426  -0.59404
 Alpha  occ. eigenvalues --   -0.57745  -0.57529  -0.56130  -0.55677  -0.51783
 Alpha  occ. eigenvalues --   -0.51454  -0.50184  -0.48314  -0.47619  -0.46954
 Alpha  occ. eigenvalues --   -0.46830  -0.46292  -0.44640  -0.44460  -0.42525
 Alpha  occ. eigenvalues --   -0.42467  -0.42031  -0.41869  -0.41392  -0.41172
 Alpha  occ. eigenvalues --   -0.40588  -0.40108  -0.39827  -0.39745  -0.39114
 Alpha  occ. eigenvalues --   -0.38622  -0.38200  -0.37274  -0.37000  -0.36060
 Alpha  occ. eigenvalues --   -0.35129  -0.34891  -0.34352  -0.33667  -0.33491
 Alpha  occ. eigenvalues --   -0.33226  -0.32999  -0.32126  -0.31573  -0.31479
 Alpha  occ. eigenvalues --   -0.30969  -0.30783  -0.30510  -0.30398  -0.29668
 Alpha  occ. eigenvalues --   -0.25293  -0.24887  -0.20399  -0.19627
 Alpha virt. eigenvalues --   -0.03161  -0.01967   0.01490   0.04604   0.08316
 Alpha virt. eigenvalues --    0.08939   0.09137   0.09621   0.10177   0.10984
 Alpha virt. eigenvalues --    0.11489   0.11953   0.12143   0.13172   0.13454

 Mulliken charges:
               1
     1  C   -0.442279
     2  C   -0.247847
     3  C   -0.260911
     4  C   -0.266964
     5  C   -0.255891
     6  C   -0.290901
     7  C   -0.043775
     8  O   -0.532950
     9  C    0.395402
    10  C   -0.197056
    11  C   -0.202199
    12  C    0.057635
    13  C    0.151052
    14  C   -0.197660
    15  C   -0.194973
    16  C    0.146224
    17  C   -0.300172
    18  C    0.146911
    19  C    0.135757
    20  C   -0.277898
    21  C    0.068389
    22  C   -0.350421
    23  C   -0.086346
    24  C   -0.450665
    25  C   -0.351027
    26  C   -0.283017
    27  H    0.139270
    28  H    0.144615
    29  H    0.139906
    30  H    0.126440
    31  H    0.137101
    32  H    0.122521
    33  H    0.152151
    34  H    0.130680
    35  H    0.124376
    36  H    0.132311
    37  H    0.154683
    38  H    0.145558
    39  H    0.134117
    40  H    0.157405
    41  H    0.142855
    42  H    0.131867
    43  H    0.133175
    44  H    0.127410
    45  H    0.125947
    46  H    0.121629
    47  H    0.124660
    48  H    0.144731
    49  H    0.147447
    50  H    0.136524
    51  H    0.143451
    52  H    0.140737
    53  H    0.143740
    54  H    0.145591
    55  H    0.147422
    56  H    0.133264
 Sum of Mulliken charges =  -0.00000

 Dipole moment (field-independent basis, Debye):
    X=              0.3805    Y=              0.4164    Z=             -1.5322  Tot=              1.6327
 Quadrupole moment (field-independent basis, Debye-Ang):
   XX=           -140.4695   YY=           -156.4409   ZZ=           -148.2570
   XY=             -2.5995   XZ=              3.7861   YZ=             -7.0687

 Normal termination of Gaussian 16 at Sat Nov  5 09:44:33 2022.
