 Gaussian 16, Revision B.01,
 Gaussian 16:  ES64L-G16RevB.01 20-Dec-2017

 -----------------------------
 #p b3lyp/6-31g(d) opt SCF=XQC
 -----------------------------

 ------------------------------
 Gaussian input prepared by ASE
 ------------------------------
 Symbolic Z-matrix:
 Charge =  0 Multiplicity = 1

 SCF Done:  E(RB3LYP) =  -1045.98949163     A.U. after   14 cycles
 SCF Done:  E(RB3LYP) =  -1045.99447423     A.U. after   12 cycles
 SCF Done:  E(RB3LYP) =  -1045.99505567     A.U. after   11 cycles
 SCF Done:  E(RB3LYP) =  -1045.99523539     A.U. after   11 cycles
 SCF Done:  E(RB3LYP) =  -1045.99528293     A.U. after   10 cycles
 SCF Done:  E(RB3LYP) =  -1045.99530445     A.U. after   10 cycles
 SCF Done:  E(RB3LYP) =  -1045.99532774     A.U. after   10 cycles
 SCF Done:  E(RB3LYP) =  -1045.99534011     A.U. after   10 cycles
 SCF Done:  E(RB3LYP) =  -1045.99534799     A.U. after    9 cycles
 SCF Done:  E(RB3LYP) =  -1045.99535080     A.U. after    9 cycles
 SCF Done:  E(RB3LYP) =  -1045.99535108     A.U. after    7 cycles
 SCF Done:  E(RB3LYP) =  -1045.99535112     A.U. after    6 cycles
 Optimization completed.
    -- Stationary point found.

                         Standard orientation:
 ---------------------------------------------------------------------
 Center     Atomic      Atomic             Coordinates (Angstroms)
 Number     Number       Type             X           Y           Z
 ---------------------------------------------------------------------
      1          6           0       -6.563500    2.785827    0.284638
      2          6           0       -6.468954    1.443775    1.017711
      3          6           0       -6.564051    0.237239    0.072661
      4          6           0       -6.465780   -1.123987    0.789838
      5          6           0       -5.053804   -1.511293    1.288780
      6          6           0       -4.247632   -2.416689    0.339376
      7          6           0       -3.974922   -1.837842   -1.050481
      8          8           0       -3.331502   -0.560595   -1.020194
      9          6           0       -1.985044   -0.466549   -0.798186
     10          6           0       -1.107811   -1.565843   -0.679769
     11          6           0        0.245691   -1.352052   -0.479938
     12          6           0        0.801571   -0.058534   -0.385389
     13          6           0       -0.096470    1.046217   -0.505022
     14          6           0        0.416896    2.384721   -0.415930
     15          6           0        1.741892    2.615969   -0.218487
     16          6           0        2.682575    1.538933   -0.089661
     17          6           0        4.058411    1.808618    0.112192
     18          6           0        4.960153    0.773386    0.228250
     19          6           0        4.510325   -0.564674    0.146725
     20          6           0        3.174722   -0.852412   -0.048219
     21          6           0        2.221573    0.188875   -0.172429
     22          6           0        5.679919   -1.511265    0.312074
     23          6           0        6.914039   -0.615092    0.020629
     24          6           0        8.213504   -1.089888    0.668616
     25          6           0        6.456243    0.804794    0.451873
     26          6           0       -1.471081    0.819062   -0.708214
     27          1           0       -7.511154    2.873927   -0.261353
     28          1           0       -5.751464    2.895518   -0.444625
     29          1           0       -6.501620    3.629232    0.982030
     30          1           0       -7.270753    1.377332    1.767500
     31          1           0       -5.524779    1.404766    1.577580
     32          1           0       -7.523266    0.288314   -0.462558
     33          1           0       -5.778240    0.321913   -0.688680
     34          1           0       -7.157715   -1.108730    1.643190
     35          1           0       -6.840612   -1.915294    0.124364
     36          1           0       -5.139090   -2.043802    2.244367
     37          1           0       -4.470014   -0.607741    1.501241
     38          1           0       -3.295553   -2.674384    0.819996
     39          1           0       -4.786540   -3.364258    0.191169
     40          1           0       -4.914571   -1.650389   -1.577356
     41          1           0       -3.395640   -2.541422   -1.662404
     42          1           0       -1.476253   -2.583136   -0.740702
     43          1           0        0.885873   -2.223512   -0.392655
     44          1           0       -0.281255    3.212850   -0.510257
     45          1           0        2.117745    3.634573   -0.153103
     46          1           0        4.385063    2.845550    0.166541
     47          1           0        2.860106   -1.889612   -0.112676
     48          1           0        5.630289   -2.389081   -0.342999
     49          1           0        5.722913   -1.889475    1.345957
     50          1           0        7.050398   -0.594988   -1.070055
     51          1           0        8.485819   -2.095481    0.326300
     52          1           0        8.118255   -1.123670    1.761566
     53          1           0        9.047571   -0.420171    0.427097
     54          1           0        6.966605    1.600596   -0.103287
     55          1           0        6.681361    0.967577    1.517926
     56          1           0       -2.152250    1.659998   -0.802394
 ---------------------------------------------------------------------

 The electronic state is 1-A.
 Alpha  occ. eigenvalues --  -19.17208 -10.24388 -10.23933 -10.19272 -10.19217
 Alpha  occ. eigenvalues --  -10.19013 -10.18925 -10.18863 -10.18836 -10.18667
 Alpha  occ. eigenvalues --  -10.18627 -10.18379 -10.18323 -10.18320 -10.18309
 Alpha  occ. eigenvalues --  -10.18249 -10.18154 -10.18092 -10.18072 -10.17811
 Alpha  occ. eigenvalues --  -10.17687 -10.17654 -10.17507 -10.17306 -10.17095
 Alpha  occ. eigenvalues --  -10.16735  -1.05626  -0.87481  -0.85443  -0.82178
 Alpha  occ. eigenvalues --   -0.80435  -0.78844  -0.77743  -0.76177  -0.74921
 Alpha  occ. eigenvalues --   -0.73378  -0.72211  -0.71429  -0.68441  -0.67738
 Alpha  occ. eigenvalues --   -0.66539  -0.62718  -0.62046  -0.60426  -0.59404
 Alpha  occ. eigenvalues --   -0.57745  -0.57529  -0.56130  -0.55677  -0.51783
 Alpha  occ. eigenvalues --   -0.51454  -0.50184  -0.48314  -0.47619  -0.46954
 Alpha  occ. eigenvalues --   -0.46830  -0.46292  -0.44640  -0.44460  -0.42525
 Alpha  occ. eigenvalues --   -0.42467  -0.42031  -0.41869  -0.41392  -0.41172
 Alpha  occ. eigenvalues --   -0.40588  -0.40108  -0.39827  -0.39745  -0.39114
 Alpha  occ. eigenvalues --   -0.38622  -0.38200  -0.37274  -0.37000  -0.36060
 Alpha  occ. eigenvalues --   -0.35129  -0.34891  -0.34352  -0.33667  -0.33491
 Alpha  occ. eigenvalues --   -0.33226  -0.32999  -0.32126  -0.31573  -0.31479
 Alpha  occ. eigenvalues --   -0.30969  -0.30783  -0.30510  -0.30398  -0.29668
 Alpha  occ. eigenvalues --   -0.25293  -0.24887  -0.20399  -0.19627
 Alpha virt. eigenvalues --   -0.03161  -0.01967   0.01490   0.04604   0.08316
 Alpha virt. eigenvalues --    0.08939   0.09137   0.09621   0.10177   0.10984
 Alpha virt. eigenvalues --    0.11489   0.11953   0.12143   0.13172   0.13454

 Mulliken charges:
               1
     1  C   -0.442279
     2  C   -0.247841
     3  C   -0.260926
     4  C   -0.266968
     5  C   -0.255876
     6  C   -0.290903
     7  C   -0.043769
     8  O   -0.532963
     9  C    0.395418
    10  C   -0.197050
    11  C   -0.202209
    12  C    0.057649
    13  C    0.151048
    14  C   -0.197664
    15  C   -0.194967
    16  C    0.146215
    17  C   -0.300175
    18  C    0.146908
    19  C    0.135764
    20  C   -0.277894
    21  C    0.068385
    22  C   -0.350434
    23  C   -0.086355
    24  C   -0.450670
    25  C   -0.351000
    26  C   -0.283031
    27  H    0.139270
    28  H    0.144616
    29  H    0.139906
    30  H    0.126440
    31  H    0.137101
    32  H    0.122523
    33  H    0.152151
    34  H    0.130681
    35  H    0.124378
    36  H    0.132309
    37  H    0.154678
    38  H    0.145556
    39  H    0.134115
    40  H    0.157403
    41  H    0.142854
    42  H    0.131867
    43  H    0.133175
    44  H    0.127410
    45  H    0.125947
    46  H    0.121629
    47  H    0.124660
    48  H    0.144733
    49  H    0.147449
    50  H    0.136524
    51  H    0.143453
    52  H    0.140739
    53  H    0.143742
    54  H    0.145588
    55  H    0.147418
    56  H    0.133272
 Sum of Mulliken charges =  -0.00000

 Dipole moment (field-independent basis, Debye):
    X=              0.3020    Y=             -1.5833    Z=              0.2603  Tot=              1.6327
 Quadrupole moment (field-independent basis, Debye-Ang):
   XX=           -140.2699   YY=           -144.9110   ZZ=           -160.2988
   XY=              4.7830   XZ=              1.1588   YZ=              1.5170

 1\1\GINC-NODE03\FOpt\RB3LYP\6-31G(d)\C25H30O1\WYKGROUP\04-Nov-2022\0\\
 #p b3lyp/6-31g(d) opt SCF=XQC\\Gaussian input prepared by ASE\\0,1\C,-
 6.3815332889,-1.3110553623,2.0815603983\C,-6.2116131532,-1.4240727858,
 0.5630767994\C,-6.2660996728,-0.0643987938,-0.1484077899\C,-6.09183126
 97,-0.1550304043,-1.6775760196\C,-4.6549253573,-0.4546711573,-2.165575
 3566\C,-3.8234738271,0.7809845274,-2.5565557202\C,-3.6019883575,1.8061
 304014,-1.44248289\O,-3.018793641,1.2480235539,-0.2615232877\C,-1.6746
 398202,1.0017917268,-0.200678878\C,-0.7448914637,1.3450499097,-1.20554

 Normal termination of Gaussian 16 at Fri Nov  4 21:52:46 2022.
