 Gaussian 16, Revision B.01,
 Gaussian 16:  ES64L-G16RevB.01 20-Dec-2017

 -------------------------------------------------------------------
 #p b3lyp/6-31g(d) 6D 10F nosymm GFInput td=(50-50,nstate=2) SCF=XQC
 -------------------------------------------------------------------

 ------------------------------
 Gaussian input prepared by ASE
 ------------------------------
 Symbolic Z-matrix:
 Charge =  0 Multiplicity = 1

                          Input orientation:
 ---------------------------------------------------------------------
 Center     Atomic      Atomic             Coordinates (Angstroms)
 Number     Number       Type             X           Y           Z
 ---------------------------------------------------------------------
      1          6           0        0.834359    3.395011   -0.286853
      2          8           0       -0.012810    2.351239    0.172099
      3         14           0        0.054230    0.802116   -0.454139
      4          6           0       -1.519667   -0.085352    0.057873
      5          6           0       -1.431250   -1.215974    0.888425
      6          6           0       -2.566390   -1.924376    1.286941
      7          6           0       -3.820607   -1.502703    0.852639
      8          6           0       -3.929920   -0.380870    0.028544
      9          6           0       -2.800848    0.338044   -0.378332
     10          6           0       -2.970985    1.553945   -1.263012
     11          6           0        1.598274   -0.064802    0.189625
     12          6           0        2.228529    0.473123    1.326156
     13          6           0        3.384267   -0.096728    1.862603
     14          6           0        3.932019   -1.226563    1.258563
     15          6           0        3.320385   -1.776709    0.130800
     16          6           0        2.159922   -1.216015   -0.415597
     17          6           0        1.525387   -1.854903   -1.632752
     18          1           0        0.491570    4.332682    0.161679
     19          1           0        1.878366    3.226404    0.009615
     20          1           0        0.796417    3.496484   -1.380757
     21          1           0        0.134413    0.914802   -1.943235
     22          1           0       -0.455227   -1.547021    1.234649
     23          1           0       -2.469265   -2.794150    1.931339
     24          1           0       -4.715692   -2.041931    1.152813
     25          1           0       -4.912854   -0.055226   -0.305016
     26          1           0       -2.577195    2.453962   -0.777975
     27          1           0       -2.431826    1.439909   -2.212192
     28          1           0       -4.025611    1.726542   -1.499274
     29          1           0        1.801684    1.354106    1.799739
     30          1           0        3.850605    0.338135    2.742839
     31          1           0        4.832838   -1.682623    1.661618
     32          1           0        3.751346   -2.660337   -0.335119
     33          1           0        0.499077   -2.184150   -1.426877
     34          1           0        1.472815   -1.155427   -2.476008
     35          1           0        2.093647   -2.730645   -1.961421
 ---------------------------------------------------------------------

 SCF Done:  E(RB3LYP) =  -947.207685427     A.U. after   14 cycles

 Excitation energies and oscillator strengths:

 Excited state symmetry could not be determined.
 Excited State   1:      Triplet-?Sym    3.6440 eV  340.25 nm  f=0.0000  <S**2>=2.000
      62 -> 66         0.23650
      62 -> 67         0.13585
      62 -> 69        -0.10556
      63 -> 66         0.24679
      63 -> 67         0.20523
      63 -> 69        -0.13773
      65 -> 66         0.30344
      65 -> 67         0.20965
      65 -> 68         0.14602
      65 -> 69         0.33560
 This state for optimization and/or second-order correction.
 Total Energy, E(TD-HF/TD-DFT) =  -947.073772429
 Copying the excited state density for this state as the 1-particle RhoCI density.

 Excited state symmetry could not be determined.
 Excited State   2:      Triplet-?Sym    3.6613 eV  338.63 nm  f=0.0000  <S**2>=2.000
      62 -> 66         0.19731
      62 -> 67        -0.25753
      62 -> 68         0.16838
      63 -> 66        -0.18422
      63 -> 67         0.16760
      63 -> 68        -0.13220
      64 -> 66        -0.20980
      64 -> 67         0.30525
      64 -> 68         0.33191
      64 -> 69        -0.14102

 Excited state symmetry could not be determined.
 Excited State   3:      Singlet-?Sym    5.1694 eV  239.84 nm  f=0.0180  <S**2>=0.000
      62 -> 66        -0.12446
      62 -> 69        -0.16920
      63 -> 66        -0.17353
      63 -> 69        -0.21550
      65 -> 66         0.51364
      65 -> 67         0.20224
      65 -> 68        -0.10556
      65 -> 69        -0.17462

 Excited state symmetry could not be determined.
 Excited State   4:      Singlet-?Sym    5.2166 eV  237.67 nm  f=0.0109  <S**2>=0.000
      62 -> 66         0.11883
      62 -> 67        -0.16339
      62 -> 68        -0.22146
      63 -> 67         0.14686
      63 -> 68         0.17685
      64 -> 66         0.46479
      64 -> 67        -0.25231
      64 -> 68         0.20665

 Alpha  occ. eigenvalues --  -66.14101 -19.13754 -10.22993 -10.19900 -10.19697
 Alpha  occ. eigenvalues --  -10.18938 -10.18793 -10.18787 -10.18662 -10.18520
 Alpha  occ. eigenvalues --  -10.18477 -10.18301 -10.18233 -10.18069 -10.17606
 Alpha  occ. eigenvalues --  -10.17334 -10.17281  -5.28444  -3.64488  -3.64271
 Alpha  occ. eigenvalues --   -3.64222  -0.99794  -0.84920  -0.84636  -0.76719
 Alpha  occ. eigenvalues --   -0.76452  -0.74133  -0.73338  -0.68279  -0.67856
 Alpha  occ. eigenvalues --   -0.67631  -0.60223  -0.59490  -0.58213  -0.57439
 Alpha  occ. eigenvalues --   -0.52543  -0.49775  -0.49007  -0.45964  -0.45517
 Alpha  occ. eigenvalues --   -0.44734  -0.44459  -0.44082  -0.43714  -0.42231
 Alpha  occ. eigenvalues --   -0.41783  -0.41018  -0.40573  -0.40295  -0.39043
 Alpha  occ. eigenvalues --   -0.38113  -0.37312  -0.36981  -0.35025  -0.34727
 Alpha  occ. eigenvalues --   -0.33609  -0.33423  -0.31262  -0.31160  -0.29126
 Alpha  occ. eigenvalues --   -0.26943  -0.24731  -0.24629  -0.23887  -0.23634
 Alpha virt. eigenvalues --   -0.01807  -0.01087   0.00336   0.00755   0.07031
 Alpha virt. eigenvalues --    0.08950   0.09451   0.11048   0.11436   0.11989
 Alpha virt. eigenvalues --    0.12694   0.13836   0.14204   0.14489   0.15027

 Mulliken charges:
               1
     1  C   -0.196851
     2  O   -0.560824
     3  Si   0.647862
     4  C   -0.095751
     5  C   -0.181433
     6  C   -0.122922
     7  C   -0.127056
     8  C   -0.169763
     9  C    0.133776
    10  C   -0.541180
    11  C   -0.135157
    12  C   -0.180431
    13  C   -0.122933
    14  C   -0.128636
    15  C   -0.169862
    16  C    0.134119
    17  C   -0.541959
    18  H    0.154357
    19  H    0.145895
    20  H    0.141846
    21  H   -0.135218
    22  H    0.140280
    23  H    0.127823
    24  H    0.129175
    25  H    0.121815
    26  H    0.189510
    27  H    0.168532
    28  H    0.148189
    29  H    0.145379
    30  H    0.127991
    31  H    0.129581
    32  H    0.122153
    33  H    0.177442
    34  H    0.172143
    35  H    0.152107
 Sum of Mulliken charges =  -0.00000

 Dipole moment (field-independent basis, Debye):
    X=              0.5653    Y=             -0.1643    Z=             -0.5230  Tot=              0.7875
 Quadrupole moment (field-independent basis, Debye-Ang):
   XX=            -99.9548   YY=           -101.0835   ZZ=           -107.0640
   XY=              0.2976   XZ=              2.5132   YZ=             -2.2584

 Normal termination of Gaussian 16 at Sat Nov  5 09:33:13 2022.
