 Gaussian 16, Revision B.01,
 Gaussian 16:  ES64L-G16RevB.01 20-Dec-2017

 -----------------------------
 #p b3lyp/6-31g(d) opt SCF=XQC
 -----------------------------

 ------------------------------
 Gaussian input prepared by ASE
 ------------------------------
 Symbolic Z-matrix:
 Charge =  0 Multiplicity = 1

 SCF Done:  E(RB3LYP) =  -947.201259794     A.U. after   14 cycles
 SCF Done:  E(RB3LYP) =  -947.206785565     A.U. after   12 cycles
 SCF Done:  E(RB3LYP) =  -947.207258561     A.U. after   11 cycles
 SCF Done:  E(RB3LYP) =  -947.207497969     A.U. after   11 cycles
 SCF Done:  E(RB3LYP) =  -947.207567355     A.U. after   10 cycles
 SCF Done:  E(RB3LYP) =  -947.207616059     A.U. after   10 cycles
 SCF Done:  E(RB3LYP) =  -947.207642694     A.U. after   10 cycles
 SCF Done:  E(RB3LYP) =  -947.207673864     A.U. after   10 cycles
 SCF Done:  E(RB3LYP) =  -947.207687617     A.U. after   10 cycles
 SCF Done:  E(RB3LYP) =  -947.207689819     A.U. after    8 cycles
 SCF Done:  E(RB3LYP) =  -947.207690004     A.U. after    7 cycles
 SCF Done:  E(RB3LYP) =  -947.207690513     A.U. after    7 cycles
 SCF Done:  E(RB3LYP) =  -947.207690805     A.U. after    7 cycles
 SCF Done:  E(RB3LYP) =  -947.207690856     A.U. after    7 cycles
 Optimization completed.
    -- Stationary point found.

                         Standard orientation:
 ---------------------------------------------------------------------
 Center     Atomic      Atomic             Coordinates (Angstroms)
 Number     Number       Type             X           Y           Z
 ---------------------------------------------------------------------
      1          6           0       -0.504464    3.482890   -0.219104
      2          8           0        0.204938    2.291301   -0.526767
      3         14           0        0.070849    0.904576    0.398144
      4          6           0        1.508858   -0.217249   -0.049684
      5          6           0        1.247118   -1.470804   -0.629368
      6          6           0        2.275762   -2.352200   -0.967335
      7          6           0        3.596730   -1.983215   -0.725714
      8          6           0        3.877841   -0.741567   -0.152237
      9          6           0        2.856896    0.151082    0.191330
     10          6           0        3.211992    1.490050    0.800503
     11          6           0       -1.594731    0.089882    0.063230
     12          6           0       -2.285392    0.461678   -1.104264
     13          6           0       -3.530843   -0.081339   -1.423981
     14          6           0       -4.109164   -1.014710   -0.566201
     15          6           0       -3.438833   -1.398248    0.596624
     16          6           0       -2.188490   -0.862750    0.927509
     17          6           0       -1.494133   -1.318204    2.193489
     18          1           0       -0.130283    4.278764   -0.870629
     19          1           0       -1.582634    3.366261   -0.392937
     20          1           0       -0.352482    3.786677    0.826352
     21          1           0        0.144873    1.306461    1.836735
     22          1           0        0.218110   -1.762354   -0.824881
     23          1           0        2.045010   -3.314673   -1.416324
     24          1           0        4.410805   -2.656627   -0.982318
     25          1           0        4.912030   -0.458397    0.031434
     26          1           0        2.848945    2.315944    0.178845
     27          1           0        2.759717    1.613579    1.792888
     28          1           0        4.295193    1.598039    0.913893
     29          1           0       -1.834959    1.189004   -1.775619
     30          1           0       -4.042632    0.222249   -2.333541
     31          1           0       -5.079434   -1.446704   -0.798314
     32          1           0       -3.894309   -2.129204    1.261341
     33          1           0       -0.523385   -1.781725    1.976932
     34          1           0       -1.302410   -0.479674    2.874093
     35          1           0       -2.098429   -2.053872    2.733384
 ---------------------------------------------------------------------

 The electronic state is 1-A.
 Alpha  occ. eigenvalues --  -66.14101 -19.13754 -10.22993 -10.19900 -10.19697
 Alpha  occ. eigenvalues --  -10.18938 -10.18793 -10.18787 -10.18662 -10.18520
 Alpha  occ. eigenvalues --  -10.18477 -10.18301 -10.18233 -10.18069 -10.17606
 Alpha  occ. eigenvalues --  -10.17334 -10.17281  -5.28444  -3.64488  -3.64270
 Alpha  occ. eigenvalues --   -3.64222  -0.99794  -0.84920  -0.84636  -0.76719
 Alpha  occ. eigenvalues --   -0.76452  -0.74133  -0.73338  -0.68279  -0.67856
 Alpha  occ. eigenvalues --   -0.67631  -0.60223  -0.59490  -0.58213  -0.57439
 Alpha  occ. eigenvalues --   -0.52543  -0.49775  -0.49007  -0.45964  -0.45517
 Alpha  occ. eigenvalues --   -0.44734  -0.44459  -0.44082  -0.43714  -0.42231
 Alpha  occ. eigenvalues --   -0.41783  -0.41018  -0.40573  -0.40295  -0.39043
 Alpha  occ. eigenvalues --   -0.38113  -0.37312  -0.36981  -0.35025  -0.34727
 Alpha  occ. eigenvalues --   -0.33609  -0.33423  -0.31262  -0.31160  -0.29126
 Alpha  occ. eigenvalues --   -0.26943  -0.24731  -0.24629  -0.23887  -0.23634
 Alpha virt. eigenvalues --   -0.01807  -0.01087   0.00336   0.00755   0.07031
 Alpha virt. eigenvalues --    0.08950   0.09451   0.11048   0.11436   0.11989
 Alpha virt. eigenvalues --    0.12694   0.13836   0.14204   0.14488   0.15027

 Mulliken charges:
               1
     1  C   -0.196845
     2  O   -0.560816
     3  Si   0.647819
     4  C   -0.095767
     5  C   -0.181426
     6  C   -0.122928
     7  C   -0.127054
     8  C   -0.169764
     9  C    0.133783
    10  C   -0.541180
    11  C   -0.135169
    12  C   -0.180431
    13  C   -0.122932
    14  C   -0.128626
    15  C   -0.169881
    16  C    0.134156
    17  C   -0.541964
    18  H    0.154354
    19  H    0.145894
    20  H    0.141848
    21  H   -0.135191
    22  H    0.140277
    23  H    0.127823
    24  H    0.129175
    25  H    0.121814
    26  H    0.189510
    27  H    0.168531
    28  H    0.148189
    29  H    0.145380
    30  H    0.127991
    31  H    0.129581
    32  H    0.122153
    33  H    0.177442
    34  H    0.172145
    35  H    0.152107
 Sum of Mulliken charges =  -0.00000

 Dipole moment (field-independent basis, Debye):
    X=             -0.5236    Y=             -0.0042    Z=              0.5881  Tot=              0.7874
 Quadrupole moment (field-independent basis, Debye-Ang):
   XX=            -99.5738   YY=           -100.4869   ZZ=           -107.9278
   XY=              0.1765   XZ=              1.9127   YZ=              0.7144

 Normal termination of Gaussian 16 at Fri Nov  4 21:37:15 2022.
