 Gaussian 16, Revision B.01,
 Gaussian 16:  ES64L-G16RevB.01 20-Dec-2017

 -----------------------------
 #p b3lyp/6-31g(d) opt SCF=XQC
 -----------------------------

 ------------------------------
 Gaussian input prepared by ASE
 ------------------------------
 Symbolic Z-matrix:
 Charge =  0 Multiplicity = 1

 SCF Done:  E(RB3LYP) =  -1316.54163478     A.U. after   14 cycles
 SCF Done:  E(RB3LYP) =  -1316.55049795     A.U. after   14 cycles
 SCF Done:  E(RB3LYP) =  -1316.53711801     A.U. after   13 cycles
 SCF Done:  E(RB3LYP) =  -1316.54806078     A.U. after   13 cycles
 SCF Done:  E(RB3LYP) =  -1316.55157086     A.U. after   11 cycles
 SCF Done:  E(RB3LYP) =  -1316.55333840     A.U. after   12 cycles
 SCF Done:  E(RB3LYP) =  -1316.55387529     A.U. after   11 cycles
 SCF Done:  E(RB3LYP) =  -1316.55384000     A.U. after   12 cycles
 SCF Done:  E(RB3LYP) =  -1316.55419516     A.U. after   12 cycles
 SCF Done:  E(RB3LYP) =  -1316.55430035     A.U. after   10 cycles
 SCF Done:  E(RB3LYP) =  -1316.55433830     A.U. after   10 cycles
 SCF Done:  E(RB3LYP) =  -1316.55434805     A.U. after    9 cycles
 SCF Done:  E(RB3LYP) =  -1316.55435359     A.U. after    9 cycles
 SCF Done:  E(RB3LYP) =  -1316.55435504     A.U. after    8 cycles
 SCF Done:  E(RB3LYP) =  -1316.55435555     A.U. after    7 cycles
 SCF Done:  E(RB3LYP) =  -1316.55435592     A.U. after    7 cycles
 SCF Done:  E(RB3LYP) =  -1316.55435607     A.U. after    7 cycles
 SCF Done:  E(RB3LYP) =  -1316.55435610     A.U. after    7 cycles
 SCF Done:  E(RB3LYP) =  -1316.55435607     A.U. after    6 cycles
 SCF Done:  E(RB3LYP) =  -1316.55435604     A.U. after    5 cycles
 Optimization completed.
    -- Stationary point found.

                         Standard orientation:
 ---------------------------------------------------------------------
 Center     Atomic      Atomic             Coordinates (Angstroms)
 Number     Number       Type             X           Y           Z
 ---------------------------------------------------------------------
      1          6           0       -4.468901   -1.982012    2.249228
      2          6           0       -3.682546   -1.225080    1.202601
      3          6           0       -4.292348   -0.274692    0.386273
      4          6           0       -3.583611    0.439212   -0.591715
      5          6           0       -4.309853    1.479717   -1.464241
      6          6           0       -5.446155    0.789071   -2.255239
      7          6           0       -4.912867    2.580097   -0.558924
      8          6           0       -3.365866    2.157318   -2.475545
      9          6           0       -2.223193    0.151309   -0.721976
     10          6           0       -1.550786   -0.792977    0.071366
     11          6           0       -0.047981   -0.994884   -0.183181
     12          6           0        0.455107   -2.474706   -0.122252
     13          6           0        1.718071   -2.683617   -0.931933
     14          6           0        1.645711   -2.996370   -2.296811
     15          6           0        2.802181   -3.171539   -3.057626
     16          6           0        4.057726   -3.036803   -2.462021
     17          6           0        4.144704   -2.727343   -1.103659
     18          6           0        2.984846   -2.553097   -0.347092
     19          6           0        0.839754   -0.012469    0.593154
     20          6           0        1.495783    0.992922   -0.129385
     21          6           0        2.349140    1.936456    0.454254
     22          6           0        3.034127    3.004218   -0.418716
     23          6           0        1.960751    3.860782   -1.131428
     24          6           0        3.923418    2.314525   -1.480530
     25          6           0        3.925185    3.950349    0.408501
     26          6           0        2.538051    1.838819    1.837713
     27          6           0        1.911951    0.858866    2.610033
     28          6           0        2.130929    0.774285    4.100398
     29          6           0        1.054562   -0.064856    1.985954
     30          8           0        0.495376   -0.990137    2.822444
     31          6           0       -2.308937   -1.465859    1.033881
     32          8           0       -1.662270   -2.401665    1.831618
     33          1           0       -4.434167   -3.068970    2.089337
     34          1           0       -4.106783   -1.784469    3.269708
     35          1           0       -5.521799   -1.688268    2.228928
     36          1           0       -5.355247   -0.094646    0.525218
     37          1           0       -5.047147    0.008866   -2.913527
     38          1           0       -6.180542    0.321490   -1.590661
     39          1           0       -5.978152    1.519587   -2.877057
     40          1           0       -5.439758    3.327435   -1.164932
     41          1           0       -5.630321    2.169551    0.159611
     42          1           0       -4.128443    3.093473    0.008539
     43          1           0       -2.926909    1.434152   -3.172388
     44          1           0       -3.925736    2.888652   -3.069326
     45          1           0       -2.549600    2.692167   -1.977064
     46          1           0       -1.632987    0.676514   -1.465032
     47          1           0        0.077074   -0.708513   -1.232844
     48          1           0       -0.339047   -3.121438   -0.512639
     49          1           0        0.631008   -2.783842    0.909960
     50          1           0        0.670247   -3.111167   -2.766206
     51          1           0        2.722637   -3.419394   -4.113217
     52          1           0        4.960589   -3.176102   -3.050916
     53          1           0        5.117515   -2.623157   -0.629816
     54          1           0        3.060709   -2.311409    0.709936
     55          1           0        1.333437    1.019935   -1.204123
     56          1           0        1.314482    3.251449   -1.772224
     57          1           0        2.433471    4.623015   -1.763752
     58          1           0        1.321229    4.371783   -0.402441
     59          1           0        3.342324    1.652184   -2.130610
     60          1           0        4.702208    1.708956   -1.003273
     61          1           0        4.413960    3.062392   -2.116601
     62          1           0        4.388982    4.693117   -0.250881
     63          1           0        3.349218    4.494061    1.166131
     64          1           0        4.732163    3.409711    0.916062
     65          1           0        3.190043    2.538688    2.350592
     66          1           0        2.558191   -0.193852    4.388841
     67          1           0        1.185915    0.868707    4.648781
     68          1           0        2.808174    1.563906    4.441050
     69          1           0       -0.199697   -1.516688    2.382950
     70          1           0       -2.255805   -2.683310    2.544905
 ---------------------------------------------------------------------

 The electronic state is 1-A.
 Alpha  occ. eigenvalues --  -19.20048 -19.14890 -10.25176 -10.22634 -10.20499
 Alpha  occ. eigenvalues --  -10.20468 -10.20384 -10.20057 -10.19748 -10.19143
 Alpha  occ. eigenvalues --  -10.19045 -10.18910 -10.18524 -10.18466 -10.18118
 Alpha  occ. eigenvalues --  -10.18046 -10.17957 -10.17924 -10.17871 -10.17842
 Alpha  occ. eigenvalues --  -10.17571 -10.17530 -10.17446 -10.17425 -10.17290
 Alpha  occ. eigenvalues --  -10.16968 -10.16843 -10.16641 -10.16445 -10.16413
 Alpha  occ. eigenvalues --  -10.16396 -10.16199  -1.07655  -1.03046  -0.86537
 Alpha  occ. eigenvalues --   -0.84698  -0.84054  -0.81801  -0.80775  -0.79506
 Alpha  occ. eigenvalues --   -0.76989  -0.75217  -0.73831  -0.73210  -0.71855
 Alpha  occ. eigenvalues --   -0.70298  -0.69593  -0.68401  -0.68054  -0.67797
 Alpha  occ. eigenvalues --   -0.67207  -0.66167  -0.63863  -0.61916  -0.60370
 Alpha  occ. eigenvalues --   -0.59390  -0.58911  -0.57175  -0.56947  -0.55369
 Alpha  occ. eigenvalues --   -0.53521  -0.52833  -0.50865  -0.50034  -0.48983
 Alpha  occ. eigenvalues --   -0.47605  -0.46696  -0.45739  -0.45266  -0.44834
 Alpha  occ. eigenvalues --   -0.44550  -0.43734  -0.43629  -0.42922  -0.42660
 Alpha  occ. eigenvalues --   -0.42525  -0.42020  -0.41700  -0.41582  -0.41224
 Alpha  occ. eigenvalues --   -0.40937  -0.40723  -0.40280  -0.39673  -0.39265
 Alpha  occ. eigenvalues --   -0.38750  -0.38554  -0.38428  -0.38063  -0.37710
 Alpha  occ. eigenvalues --   -0.37550  -0.37075  -0.36581  -0.36040  -0.35984
 Alpha  occ. eigenvalues --   -0.35826  -0.35438  -0.35293  -0.34722  -0.34080
 Alpha  occ. eigenvalues --   -0.33846  -0.32829  -0.32655  -0.32549  -0.32214
 Alpha  occ. eigenvalues --   -0.32056  -0.31685  -0.31456  -0.30418  -0.29981
 Alpha  occ. eigenvalues --   -0.29625  -0.24605  -0.23878  -0.23141  -0.22375
 Alpha  occ. eigenvalues --   -0.21965  -0.19298
 Alpha virt. eigenvalues --   -0.00791   0.00417   0.00872   0.01185   0.02200
 Alpha virt. eigenvalues --    0.02941   0.04795   0.07585   0.08855   0.09946
 Alpha virt. eigenvalues --    0.10573   0.11148   0.12105   0.12782   0.12922

 Mulliken charges:
               1
     1  C   -0.586850
     2  C    0.193857
     3  C   -0.275705
     4  C    0.211678
     5  C    0.013953
     6  C   -0.438062
     7  C   -0.438918
     8  C   -0.457819
     9  C   -0.289026
    10  C    0.188880
    11  C   -0.301628
    12  C   -0.350586
    13  C    0.168409
    14  C   -0.183799
    15  C   -0.129249
    16  C   -0.131222
    17  C   -0.130405
    18  C   -0.174375
    19  C    0.180481
    20  C   -0.286255
    21  C    0.205096
    22  C    0.017487
    23  C   -0.436493
    24  C   -0.436508
    25  C   -0.453920
    26  C   -0.279501
    27  C    0.152217
    28  C   -0.508590
    29  C    0.199238
    30  O   -0.699878
    31  C    0.177292
    32  O   -0.682124
    33  H    0.167651
    34  H    0.162686
    35  H    0.175799
    36  H    0.119609
    37  H    0.146465
    38  H    0.139965
    39  H    0.138922
    40  H    0.138514
    41  H    0.139786
    42  H    0.150716
    43  H    0.144515
    44  H    0.141426
    45  H    0.150946
    46  H    0.127834
    47  H    0.153386
    48  H    0.144659
    49  H    0.152776
    50  H    0.118657
    51  H    0.123968
    52  H    0.124318
    53  H    0.126821
    54  H    0.137904
    55  H    0.115319
    56  H    0.137712
    57  H    0.133023
    58  H    0.143628
    59  H    0.145234
    60  H    0.145653
    61  H    0.131221
    62  H    0.136549
    63  H    0.142984
    64  H    0.143657
    65  H    0.112822
    66  H    0.160460
    67  H    0.159422
    68  H    0.140120
    69  H    0.460039
    70  H    0.427159
 Sum of Mulliken charges =  -0.00000

 Dipole moment (field-independent basis, Debye):
    X=             -3.4527    Y=             -0.6059    Z=             -0.0667  Tot=              3.5061
 Quadrupole moment (field-independent basis, Debye-Ang):
   XX=           -177.7859   YY=           -192.3338   ZZ=           -187.2106
   XY=              6.7075   XZ=             -7.0868   YZ=             -5.5006

 1\1\GINC-NODE91\FOpt\RB3LYP\6-31G(d)\C30H38O2\WYKGROUP\04-Nov-2022\0\\
 #p b3lyp/6-31g(d) opt SCF=XQC\\Gaussian input prepared by ASE\\0,1\C,-
 3.8235205274,-0.5627759175,-3.8863583913\C,-3.2099412305,-0.6557657775
 ,-2.5073718571\C,-3.6215614805,-1.626188236,-1.5961440343\C,-3.0676071
 165,-1.7312956361,-0.3114209784\C,-3.5606307469,-2.8255701157,0.653396
 0143\C,-5.0749362351,-2.642714641,0.9128041284\C,-3.3143669841,-4.2169
 844828,0.0230129792\C,-2.833549189,-2.7805863483,2.010716671\C,-2.0766
 194461,-0.8070116573,0.0265694976\C,-1.6173860876,0.192222852,-0.84740

 Normal termination of Gaussian 16 at Fri Nov  4 22:02:19 2022.
