 Gaussian 16, Revision B.01,
 Gaussian 16:  ES64L-G16RevB.01 20-Dec-2017

 -------------------------------------------------------------------
 #p b3lyp/6-31g(d) 6D 10F nosymm GFInput td=(50-50,nstate=2) SCF=XQC
 -------------------------------------------------------------------

 ------------------------------
 Gaussian input prepared by ASE
 ------------------------------
 Symbolic Z-matrix:
 Charge =  0 Multiplicity = 1

                          Input orientation:
 ---------------------------------------------------------------------
 Center     Atomic      Atomic             Coordinates (Angstroms)
 Number     Number       Type             X           Y           Z
 ---------------------------------------------------------------------
      1          6           0       -3.823521   -0.562776   -3.886358
      2          6           0       -3.209941   -0.655766   -2.507372
      3          6           0       -3.621561   -1.626188   -1.596144
      4          6           0       -3.067607   -1.731296   -0.311421
      5          6           0       -3.560631   -2.825570    0.653396
      6          6           0       -5.074936   -2.642715    0.912804
      7          6           0       -3.314367   -4.216984    0.023013
      8          6           0       -2.833549   -2.780586    2.010717
      9          6           0       -2.076619   -0.807012    0.026569
     10          6           0       -1.617386    0.192223   -0.847406
     11          6           0       -0.513598    1.132382   -0.335806
     12          6           0       -0.666492    2.636223   -0.738010
     13          6           0        0.040613    3.562249    0.229866
     14          6           0       -0.616276    4.030440    1.376704
     15          6           0        0.031078    4.867846    2.285895
     16          6           0        1.353893    5.253813    2.061206
     17          6           0        2.019591    4.796604    0.922661
     18          6           0        1.367533    3.959089    0.016341
     19          6           0        0.903403    0.581622   -0.547188
     20          6           0        1.618628    0.156737    0.580275
     21          6           0        2.924557   -0.344081    0.526988
     22          6           0        3.637936   -0.782857    1.819261
     23          6           0        2.831152   -1.913385    2.501027
     24          6           0        3.746954    0.420019    2.786300
     25          6           0        5.060515   -1.309552    1.550378
     26          6           0        3.520166   -0.406557   -0.738130
     27          6           0        2.857706    0.002316   -1.896905
     28          6           0        3.520797   -0.075259   -3.249896
     29          6           0        1.542505    0.491097   -1.801036
     30          8           0        0.980937    0.874147   -2.986980
     31          6           0       -2.201882    0.240944   -2.116259
     32          8           0       -1.759506    1.219753   -2.997470
     33          1           0       -4.289727    0.415877   -4.068400
     34          1           0       -3.086167   -0.733457   -4.685552
     35          1           0       -4.603339   -1.318328   -4.014089
     36          1           0       -4.401258   -2.316113   -1.908481
     37          1           0       -5.279358   -1.667079    1.368454
     38          1           0       -5.658390   -2.707968   -0.011828
     39          1           0       -5.442987   -3.420037    1.593717
     40          1           0       -3.665841   -5.009025    0.695703
     41          1           0       -3.841819   -4.332383   -0.929908
     42          1           0       -2.246800   -4.378356   -0.164471
     43          1           0       -2.994244   -1.828160    2.528698
     44          1           0       -3.215251   -3.576829    2.659702
     45          1           0       -1.753994   -2.933271    1.900785
     46          1           0       -1.618897   -0.847198    1.009011
     47          1           0       -0.652064    1.126370    0.750577
     48          1           0       -1.735553    2.877197   -0.757640
     49          1           0       -0.288297    2.809573   -1.747410
     50          1           0       -1.650390    3.740412    1.554275
     51          1           0       -0.499354    5.223734    3.165677
     52          1           0        1.859998    5.908898    2.765538
     53          1           0        3.048683    5.093716    0.737089
     54          1           0        1.892841    3.606487   -0.867514
     55          1           0        1.122922    0.239758    1.544396
     56          1           0        1.816529   -1.590477    2.757616
     57          1           0        3.323485   -2.232864    3.428301
     58          1           0        2.746957   -2.785394    1.842207
     59          1           0        2.762861    0.821445    3.049716
     60          1           0        4.325082    1.233429    2.333383
     61          1           0        4.247273    0.122105    3.716597
     62          1           0        5.528104   -1.611948    2.494579
     63          1           0        5.053261   -2.184025    0.889615
     64          1           0        5.699257   -0.543604    1.096005
     65          1           0        4.532413   -0.782610   -0.847200
     66          1           0        3.589277    0.913159   -3.720409
     67          1           0        2.946874   -0.705087   -3.940272
     68          1           0        4.531674   -0.486788   -3.166365
     69          1           0        0.027673    1.067878   -2.901579
     70          1           0       -2.131520    1.054041   -3.877544
 ---------------------------------------------------------------------

 SCF Done:  E(RB3LYP) =  -1316.55434457     A.U. after   14 cycles

 Excitation energies and oscillator strengths:

 Excited state symmetry could not be determined.
 Excited State   1:      Triplet-?Sym    3.5696 eV  347.33 nm  f=0.0000  <S**2>=2.000
     115 ->122        -0.18407
     116 ->118        -0.22244
     116 ->119         0.13338
     116 ->122        -0.21725
     117 ->122        -0.29126
     117 ->123         0.43952
 This state for optimization and/or second-order correction.
 Total Energy, E(TD-HF/TD-DFT) =  -1316.42316239
 Copying the excited state density for this state as the 1-particle RhoCI density.

 Excited state symmetry could not be determined.
 Excited State   2:      Triplet-?Sym    3.6183 eV  342.66 nm  f=0.0000  <S**2>=2.000
     112 ->118         0.35013
     114 ->118        -0.10296
     114 ->119        -0.16308
     115 ->118         0.10633
     115 ->119        -0.31168
     115 ->121        -0.10821
     116 ->118        -0.18221
     116 ->119         0.19850
     116 ->121         0.11421
     116 ->122         0.16595
     117 ->118         0.13618
     117 ->122         0.11803
     117 ->123        -0.17462

 Excited state symmetry could not be determined.
 Excited State   3:      Singlet-?Sym    4.4284 eV  279.97 nm  f=0.0312  <S**2>=0.000
     117 ->118         0.69863

 Excited state symmetry could not be determined.
 Excited State   4:      Singlet-?Sym    4.7778 eV  259.50 nm  f=0.0045  <S**2>=0.000
     117 ->119         0.69231

 Alpha  occ. eigenvalues --  -19.20048 -19.14890 -10.25176 -10.22634 -10.20499
 Alpha  occ. eigenvalues --  -10.20468 -10.20383 -10.20057 -10.19748 -10.19143
 Alpha  occ. eigenvalues --  -10.19045 -10.18910 -10.18524 -10.18466 -10.18118
 Alpha  occ. eigenvalues --  -10.18046 -10.17957 -10.17924 -10.17871 -10.17842
 Alpha  occ. eigenvalues --  -10.17571 -10.17530 -10.17446 -10.17425 -10.17290
 Alpha  occ. eigenvalues --  -10.16968 -10.16843 -10.16641 -10.16445 -10.16413
 Alpha  occ. eigenvalues --  -10.16396 -10.16199  -1.07655  -1.03046  -0.86537
 Alpha  occ. eigenvalues --   -0.84698  -0.84054  -0.81801  -0.80775  -0.79506
 Alpha  occ. eigenvalues --   -0.76989  -0.75217  -0.73831  -0.73210  -0.71855
 Alpha  occ. eigenvalues --   -0.70298  -0.69593  -0.68401  -0.68054  -0.67797
 Alpha  occ. eigenvalues --   -0.67207  -0.66167  -0.63863  -0.61916  -0.60370
 Alpha  occ. eigenvalues --   -0.59390  -0.58911  -0.57175  -0.56947  -0.55369
 Alpha  occ. eigenvalues --   -0.53521  -0.52833  -0.50865  -0.50034  -0.48983
 Alpha  occ. eigenvalues --   -0.47605  -0.46696  -0.45739  -0.45266  -0.44834
 Alpha  occ. eigenvalues --   -0.44550  -0.43734  -0.43629  -0.42922  -0.42659
 Alpha  occ. eigenvalues --   -0.42525  -0.42020  -0.41700  -0.41582  -0.41224
 Alpha  occ. eigenvalues --   -0.40937  -0.40723  -0.40280  -0.39673  -0.39265
 Alpha  occ. eigenvalues --   -0.38750  -0.38554  -0.38428  -0.38063  -0.37710
 Alpha  occ. eigenvalues --   -0.37550  -0.37075  -0.36581  -0.36040  -0.35984
 Alpha  occ. eigenvalues --   -0.35826  -0.35438  -0.35293  -0.34722  -0.34080
 Alpha  occ. eigenvalues --   -0.33846  -0.32829  -0.32655  -0.32549  -0.32214
 Alpha  occ. eigenvalues --   -0.32056  -0.31685  -0.31456  -0.30418  -0.29981
 Alpha  occ. eigenvalues --   -0.29625  -0.24605  -0.23878  -0.23141  -0.22375
 Alpha  occ. eigenvalues --   -0.21965  -0.19298
 Alpha virt. eigenvalues --   -0.00791   0.00417   0.00872   0.01185   0.02200
 Alpha virt. eigenvalues --    0.02941   0.04795   0.07585   0.08855   0.09946
 Alpha virt. eigenvalues --    0.10573   0.11148   0.12105   0.12782   0.12922

 Mulliken charges:
               1
     1  C   -0.586851
     2  C    0.193857
     3  C   -0.275706
     4  C    0.211701
     5  C    0.013950
     6  C   -0.438064
     7  C   -0.438934
     8  C   -0.457801
     9  C   -0.289046
    10  C    0.188866
    11  C   -0.301610
    12  C   -0.350602
    13  C    0.168403
    14  C   -0.183805
    15  C   -0.129246
    16  C   -0.131219
    17  C   -0.130411
    18  C   -0.174357
    19  C    0.180478
    20  C   -0.286237
    21  C    0.205071
    22  C    0.017510
    23  C   -0.436501
    24  C   -0.436507
    25  C   -0.453936
    26  C   -0.279496
    27  C    0.152221
    28  C   -0.508587
    29  C    0.199236
    30  O   -0.699879
    31  C    0.177307
    32  O   -0.682122
    33  H    0.167649
    34  H    0.162686
    35  H    0.175799
    36  H    0.119611
    37  H    0.146464
    38  H    0.139965
    39  H    0.138922
    40  H    0.138517
    41  H    0.139788
    42  H    0.150719
    43  H    0.144511
    44  H    0.141422
    45  H    0.150939
    46  H    0.127832
    47  H    0.153387
    48  H    0.144659
    49  H    0.152777
    50  H    0.118659
    51  H    0.123968
    52  H    0.124318
    53  H    0.126821
    54  H    0.137901
    55  H    0.115317
    56  H    0.137714
    57  H    0.133024
    58  H    0.143628
    59  H    0.145234
    60  H    0.145654
    61  H    0.131217
    62  H    0.136551
    63  H    0.142986
    64  H    0.143659
    65  H    0.112822
    66  H    0.160460
    67  H    0.159420
    68  H    0.140119
    69  H    0.460038
    70  H    0.427159
 Sum of Mulliken charges =  -0.00000

 Dipole moment (field-independent basis, Debye):
    X=             -3.1935    Y=             -1.1286    Z=             -0.9060  Tot=              3.5061
 Quadrupole moment (field-independent basis, Debye-Ang):
   XX=           -182.2949   YY=           -195.4241   ZZ=           -179.8398
   XY=              3.0648   XZ=             10.5998   YZ=              1.4053

 Normal termination of Gaussian 16 at Sat Nov  5 09:46:00 2022.
