 Gaussian 16, Revision B.01,
 Gaussian 16:  ES64L-G16RevB.01 20-Dec-2017

 -------------------------------------------------------------------
 #p b3lyp/6-31g(d) 6D 10F nosymm GFInput td=(50-50,nstate=2) SCF=XQC
 -------------------------------------------------------------------

 ------------------------------
 Gaussian input prepared by ASE
 ------------------------------
 Symbolic Z-matrix:
 Charge =  0 Multiplicity = 1

                          Input orientation:
 ---------------------------------------------------------------------
 Center     Atomic      Atomic             Coordinates (Angstroms)
 Number     Number       Type             X           Y           Z
 ---------------------------------------------------------------------
      1          6           0        1.474714    0.575234    3.578217
      2          6           0        2.003673    0.694295    2.175000
      3          7           0        3.102079   -0.061627    1.826625
      4          6           0        3.465107    0.116476    0.586046
      5          6           0        4.600668   -0.568797   -0.046081
      6          6           0        5.338682   -1.498718    0.708180
      7          6           0        6.419770   -2.166227    0.140592
      8          6           0        6.785136   -1.920351   -1.185788
      9          6           0        6.058463   -0.998374   -1.941651
     10          6           0        4.975406   -0.327637   -1.377670
     11         16           0        2.452876    1.278686   -0.278001
     12          6           0        1.502572    1.496906    1.177075
     13          6           0        0.299695    2.412528    1.218770
     14          6           0        0.528977    3.762848    0.525776
     15          7           0       -0.900404    1.762099    0.685180
     16          6           0       -1.907990    1.300164    1.494774
     17          8           0       -1.908017    1.442945    2.711803
     18          6           0       -3.000437    0.588100    0.764282
     19          6           0       -2.862018   -0.207228   -0.364953
     20          7           0       -4.126635   -0.683093   -0.636263
     21          6           0       -4.582438   -1.529207   -1.631846
     22          6           0       -3.575938   -2.050402   -2.610992
     23          6           0       -5.920869   -1.823615   -1.645453
     24          6           0       -6.812185   -1.285228   -0.674768
     25          6           0       -6.348568   -0.452001    0.311460
     26          6           0       -4.971133   -0.134073    0.353485
     27          7           0       -4.290155    0.627850    1.201827
     28          1           0        1.523194   -0.470894    3.896252
     29          1           0        0.438631    0.912437    3.659279
     30          1           0        2.090004    1.154074    4.279240
     31          1           0        5.045810   -1.680691    1.736435
     32          1           0        6.980604   -2.881927    0.735802
     33          1           0        7.629953   -2.442563   -1.626535
     34          1           0        6.335576   -0.798841   -2.973220
     35          1           0        4.421792    0.389593   -1.978436
     36          1           0        0.064301    2.594227    2.269701
     37          1           0        0.695706    3.641360   -0.552145
     38          1           0        1.407736    4.264125    0.943241
     39          1           0       -0.344239    4.407552    0.664650
     40          1           0       -1.005213    1.684286   -0.317178
     41          1           0       -1.997273   -0.511202   -0.932806
     42          1           0       -2.790723   -2.630146   -2.107936
     43          1           0       -3.081500   -1.232040   -3.151160
     44          1           0       -4.061074   -2.698622   -3.344331
     45          1           0       -6.295765   -2.483817   -2.420340
     46          1           0       -7.865373   -1.543766   -0.722243
     47          1           0       -6.993179   -0.024696    1.070865
 ---------------------------------------------------------------------

 SCF Done:  E(RB3LYP) =  -1504.73077751     A.U. after   16 cycles

 Excitation energies and oscillator strengths:

 Excited state symmetry could not be determined.
 Excited State   1:      Triplet-?Sym    2.6253 eV  472.27 nm  f=0.0000  <S**2>=2.000
      95 ->103        -0.10925
      98 ->100        -0.16606
      99 ->100         0.64247
      99 ->101         0.12642
 This state for optimization and/or second-order correction.
 Total Energy, E(TD-HF/TD-DFT) =  -1504.63429926
 Copying the excited state density for this state as the 1-particle RhoCI density.

 Excited state symmetry could not be determined.
 Excited State   2:      Triplet-?Sym    2.8715 eV  431.78 nm  f=0.0000  <S**2>=2.000
      94 ->101        -0.10520
      97 ->101         0.11688
      98 ->100        -0.16851
      98 ->101         0.60979
      98 ->102        -0.12253
      99 ->101         0.17419

 Excited state symmetry could not be determined.
 Excited State   3:      Singlet-?Sym    4.0254 eV  308.00 nm  f=0.4162  <S**2>=0.000
      98 ->100         0.10509
      98 ->101        -0.11758
      99 ->100         0.67070
      99 ->101        -0.11239

 Excited state symmetry could not be determined.
 Excited State   4:      Singlet-?Sym    4.1619 eV  297.90 nm  f=0.1591  <S**2>=0.000
      98 ->100         0.64553
      98 ->101        -0.19752
      99 ->100        -0.15299

 Alpha  occ. eigenvalues --  -88.90784 -19.10753 -14.42079 -14.35933 -14.32670
 Alpha  occ. eigenvalues --  -14.31468 -10.28601 -10.25721 -10.25386 -10.25338
 Alpha  occ. eigenvalues --  -10.24077 -10.22694 -10.22062 -10.22010 -10.21632
 Alpha  occ. eigenvalues --  -10.21461 -10.20900 -10.20833 -10.20784 -10.20560
 Alpha  occ. eigenvalues --  -10.19776 -10.19541 -10.19480 -10.19305 -10.19106
 Alpha  occ. eigenvalues --  -10.18963 -10.17228  -7.96933  -5.93318  -5.92978
 Alpha  occ. eigenvalues --   -5.92643  -1.03898  -1.02499  -0.95874  -0.92320
 Alpha  occ. eigenvalues --   -0.91421  -0.85905  -0.83831  -0.80947  -0.79204
 Alpha  occ. eigenvalues --   -0.78580  -0.76279  -0.74831  -0.74519  -0.73799
 Alpha  occ. eigenvalues --   -0.71653  -0.67727  -0.66812  -0.64344  -0.62914
 Alpha  occ. eigenvalues --   -0.61274  -0.60937  -0.60289  -0.58292  -0.56072
 Alpha  occ. eigenvalues --   -0.54386  -0.53405  -0.52074  -0.51072  -0.49287
 Alpha  occ. eigenvalues --   -0.47972  -0.47843  -0.47311  -0.46213  -0.45486
 Alpha  occ. eigenvalues --   -0.45332  -0.45031  -0.44048  -0.43351  -0.43007
 Alpha  occ. eigenvalues --   -0.42421  -0.42332  -0.41964  -0.41801  -0.40909
 Alpha  occ. eigenvalues --   -0.40264  -0.39602  -0.39094  -0.38547  -0.38169
 Alpha  occ. eigenvalues --   -0.37670  -0.37205  -0.36436  -0.35857  -0.35242
 Alpha  occ. eigenvalues --   -0.34648  -0.33747  -0.33743  -0.32242  -0.28524
 Alpha  occ. eigenvalues --   -0.27493  -0.26824  -0.26722  -0.25418  -0.25356
 Alpha  occ. eigenvalues --   -0.25070  -0.24222  -0.21695  -0.21201
 Alpha virt. eigenvalues --   -0.05044  -0.04091  -0.01029  -0.00342   0.01766
 Alpha virt. eigenvalues --    0.01969   0.02801   0.06494   0.07456   0.08007
 Alpha virt. eigenvalues --    0.08463   0.09946   0.09987   0.10667   0.11990

 Mulliken charges:
               1
     1  C   -0.534074
     2  C    0.303643
     3  N   -0.474900
     4  C    0.034398
     5  C    0.137439
     6  C   -0.156169
     7  C   -0.132657
     8  C   -0.122912
     9  C   -0.137413
    10  C   -0.193373
    11  S    0.188809
    12  C   -0.152835
    13  C   -0.034623
    14  C   -0.462150
    15  N   -0.601887
    16  C    0.564865
    17  O   -0.505741
    18  C    0.144710
    19  C   -0.033877
    20  N   -0.547388
    21  C    0.381266
    22  C   -0.530348
    23  C   -0.228848
    24  C   -0.115624
    25  C   -0.180119
    26  C    0.530900
    27  N   -0.528439
    28  H    0.170139
    29  H    0.198553
    30  H    0.163018
    31  H    0.163863
    32  H    0.135115
    33  H    0.132772
    34  H    0.133026
    35  H    0.143756
    36  H    0.198818
    37  H    0.148667
    38  H    0.168079
    39  H    0.166281
    40  H    0.320582
    41  H    0.168114
    42  H    0.179319
    43  H    0.173035
    44  H    0.176093
    45  H    0.140482
    46  H    0.144276
    47  H    0.163361
 Sum of Mulliken charges =  -0.00000

 Dipole moment (field-independent basis, Debye):
    X=             -0.2677    Y=             -1.9166    Z=             -6.5118  Tot=              6.7932
 Quadrupole moment (field-independent basis, Debye-Ang):
   XX=           -147.0848   YY=           -155.5783   ZZ=           -164.6602
   XY=              9.0115   XZ=             13.8971   YZ=              0.6990

 Normal termination of Gaussian 16 at Sat Nov  5 09:33:29 2022.
