 Gaussian 16, Revision B.01,
 Gaussian 16:  ES64L-G16RevB.01 20-Dec-2017

 -----------------------------
 #p b3lyp/6-31g(d) opt SCF=XQC
 -----------------------------

 ------------------------------
 Gaussian input prepared by ASE
 ------------------------------
 Symbolic Z-matrix:
 Charge =  0 Multiplicity = 1

 SCF Done:  E(RB3LYP) =  -1504.72294724     A.U. after   16 cycles
 SCF Done:  E(RB3LYP) =  -1504.72974339     A.U. after   12 cycles
 SCF Done:  E(RB3LYP) =  -1504.73017480     A.U. after   12 cycles
 SCF Done:  E(RB3LYP) =  -1504.73036479     A.U. after   11 cycles
 SCF Done:  E(RB3LYP) =  -1504.73047237     A.U. after   11 cycles
 SCF Done:  E(RB3LYP) =  -1504.73053770     A.U. after   11 cycles
 SCF Done:  E(RB3LYP) =  -1504.73059346     A.U. after   11 cycles
 SCF Done:  E(RB3LYP) =  -1504.73066092     A.U. after   11 cycles
 SCF Done:  E(RB3LYP) =  -1504.73071039     A.U. after   11 cycles
 SCF Done:  E(RB3LYP) =  -1504.73073789     A.U. after   11 cycles
 SCF Done:  E(RB3LYP) =  -1504.73075224     A.U. after   11 cycles
 SCF Done:  E(RB3LYP) =  -1504.73076019     A.U. after   11 cycles
 SCF Done:  E(RB3LYP) =  -1504.73076989     A.U. after   11 cycles
 SCF Done:  E(RB3LYP) =  -1504.73077580     A.U. after   11 cycles
 SCF Done:  E(RB3LYP) =  -1504.73077777     A.U. after   10 cycles
 SCF Done:  E(RB3LYP) =  -1504.73077813     A.U. after    8 cycles
 SCF Done:  E(RB3LYP) =  -1504.73077822     A.U. after    7 cycles
 SCF Done:  E(RB3LYP) =  -1504.73077830     A.U. after    7 cycles
 SCF Done:  E(RB3LYP) =  -1504.73077834     A.U. after    7 cycles
 SCF Done:  E(RB3LYP) =  -1504.73077836     A.U. after    7 cycles
 Optimization completed.
    -- Stationary point found.

                         Standard orientation:
 ---------------------------------------------------------------------
 Center     Atomic      Atomic             Coordinates (Angstroms)
 Number     Number       Type             X           Y           Z
 ---------------------------------------------------------------------
      1          6           0        1.564262   -2.644827   -2.015747
      2          6           0        2.048581   -1.733954   -0.920877
      3          7           0        3.132944   -0.923728   -1.179661
      4          6           0        3.456787   -0.172961   -0.162793
      5          6           0        4.569461    0.786519   -0.168972
      6          6           0        5.328229    0.939731   -1.343333
      7          6           0        6.388570    1.839998   -1.384202
      8          6           0        6.712228    2.602572   -0.258609
      9          6           0        5.964719    2.456428    0.911559
     10          6           0        4.902305    1.556336    0.957222
     11         16           0        2.421171   -0.421720    1.247007
     12          6           0        1.518436   -1.619867    0.342875
     13          6           0        0.320377   -2.331785    0.930109
     14          6           0        0.531680   -2.804015    2.375281
     15          7           0       -0.898160   -1.523590    0.830093
     16          6           0       -1.880863   -1.785876   -0.091621
     17          8           0       -1.841636   -2.740124   -0.859357
     18          6           0       -2.998274   -0.793160   -0.092218
     19          6           0       -2.898427    0.568484    0.158446
     20          7           0       -4.172539    1.066872   -0.007576
     21          6           0       -4.662505    2.356528    0.099986
     22          6           0       -3.689378    3.438842    0.453584
     23          6           0       -6.001607    2.543169   -0.124139
     24          6           0       -6.859826    1.457349   -0.457289
     25          6           0       -6.362387    0.183629   -0.567051
     26          6           0       -4.983322   -0.038734   -0.345905
     27          7           0       -4.273254   -1.159672   -0.402853
     28          1           0        1.619577   -2.120142   -2.974666
     29          1           0        0.532353   -2.967610   -1.858521
     30          1           0        2.203405   -3.533599   -2.097307
     31          1           0        5.067723    0.342159   -2.210075
     32          1           0        6.965850    1.947440   -2.298664
     33          1           0        7.540920    3.304547   -0.292951
     34          1           0        6.209423    3.043407    1.792647
     35          1           0        4.332069    1.451871    1.876867
     36          1           0        0.119183   -3.203247    0.303245
     37          1           0        0.663572   -1.958289    3.062175
     38          1           0        1.424871   -3.432380    2.446968
     39          1           0       -0.334637   -3.382638    2.710133
     40          1           0       -1.035120   -0.768618    1.488136
     41          1           0       -2.053186    1.204297    0.368092
     42          1           0       -2.890344    3.519361   -0.295277
     43          1           0       -3.209850    3.245558    1.422429
     44          1           0       -4.199680    4.402939    0.512239
     45          1           0       -6.403089    3.547622   -0.041991
     46          1           0       -7.914798    1.649134   -0.626265
     47          1           0       -6.981113   -0.668909   -0.822327
 ---------------------------------------------------------------------

 The electronic state is 1-A.
 Alpha  occ. eigenvalues --  -88.90784 -19.10753 -14.42079 -14.35933 -14.32670
 Alpha  occ. eigenvalues --  -14.31468 -10.28601 -10.25721 -10.25386 -10.25338
 Alpha  occ. eigenvalues --  -10.24077 -10.22695 -10.22062 -10.22010 -10.21632
 Alpha  occ. eigenvalues --  -10.21461 -10.20900 -10.20833 -10.20784 -10.20560
 Alpha  occ. eigenvalues --  -10.19776 -10.19541 -10.19480 -10.19305 -10.19106
 Alpha  occ. eigenvalues --  -10.18963 -10.17228  -7.96933  -5.93318  -5.92978
 Alpha  occ. eigenvalues --   -5.92643  -1.03898  -1.02499  -0.95874  -0.92320
 Alpha  occ. eigenvalues --   -0.91421  -0.85905  -0.83831  -0.80947  -0.79204
 Alpha  occ. eigenvalues --   -0.78580  -0.76279  -0.74831  -0.74519  -0.73799
 Alpha  occ. eigenvalues --   -0.71653  -0.67727  -0.66812  -0.64344  -0.62914
 Alpha  occ. eigenvalues --   -0.61274  -0.60937  -0.60289  -0.58292  -0.56072
 Alpha  occ. eigenvalues --   -0.54386  -0.53405  -0.52074  -0.51072  -0.49287
 Alpha  occ. eigenvalues --   -0.47972  -0.47843  -0.47311  -0.46213  -0.45486
 Alpha  occ. eigenvalues --   -0.45332  -0.45031  -0.44048  -0.43351  -0.43007
 Alpha  occ. eigenvalues --   -0.42421  -0.42332  -0.41964  -0.41801  -0.40909
 Alpha  occ. eigenvalues --   -0.40264  -0.39602  -0.39094  -0.38547  -0.38169
 Alpha  occ. eigenvalues --   -0.37670  -0.37205  -0.36436  -0.35857  -0.35242
 Alpha  occ. eigenvalues --   -0.34648  -0.33747  -0.33743  -0.32242  -0.28524
 Alpha  occ. eigenvalues --   -0.27493  -0.26824  -0.26721  -0.25418  -0.25356
 Alpha  occ. eigenvalues --   -0.25070  -0.24222  -0.21695  -0.21201
 Alpha virt. eigenvalues --   -0.05044  -0.04091  -0.01029  -0.00342   0.01766
 Alpha virt. eigenvalues --    0.01969   0.02801   0.06494   0.07456   0.08007
 Alpha virt. eigenvalues --    0.08463   0.09946   0.09987   0.10667   0.11990

 Mulliken charges:
               1
     1  C   -0.534079
     2  C    0.303644
     3  N   -0.474892
     4  C    0.034389
     5  C    0.137436
     6  C   -0.156161
     7  C   -0.132659
     8  C   -0.122909
     9  C   -0.137418
    10  C   -0.193372
    11  S    0.188817
    12  C   -0.152844
    13  C   -0.034614
    14  C   -0.462157
    15  N   -0.601879
    16  C    0.564864
    17  O   -0.505745
    18  C    0.144711
    19  C   -0.033886
    20  N   -0.547399
    21  C    0.381288
    22  C   -0.530355
    23  C   -0.228863
    24  C   -0.115617
    25  C   -0.180134
    26  C    0.530915
    27  N   -0.528438
    28  H    0.170140
    29  H    0.198553
    30  H    0.163019
    31  H    0.163861
    32  H    0.135115
    33  H    0.132772
    34  H    0.133026
    35  H    0.143756
    36  H    0.198817
    37  H    0.148668
    38  H    0.168079
    39  H    0.166283
    40  H    0.320583
    41  H    0.168113
    42  H    0.179322
    43  H    0.173037
    44  H    0.176094
    45  H    0.140482
    46  H    0.144278
    47  H    0.163361
 Sum of Mulliken charges =  -0.00000

 Dipole moment (field-independent basis, Debye):
    X=             -0.4812    Y=              5.9214    Z=              3.2946  Tot=              6.7933
 Quadrupole moment (field-independent basis, Debye-Ang):
   XX=           -146.1355   YY=           -157.3363   ZZ=           -160.3647
   XY=            -16.0128   XZ=             -3.3208   YZ=             -3.5583

 Normal termination of Gaussian 16 at Fri Nov  4 21:39:29 2022.
