 Gaussian 16, Revision B.01,
 Gaussian 16:  ES64L-G16RevB.01 20-Dec-2017

 -----------------------------
 #p b3lyp/6-31g(d) opt SCF=XQC
 -----------------------------

 ------------------------------
 Gaussian input prepared by ASE
 ------------------------------
 Symbolic Z-matrix:
 Charge =  0 Multiplicity = 1

 SCF Done:  E(RB3LYP) =  -693.358634152     A.U. after   14 cycles
 SCF Done:  E(RB3LYP) =  -693.362057137     A.U. after   12 cycles
 SCF Done:  E(RB3LYP) =  -693.362234281     A.U. after   11 cycles
 SCF Done:  E(RB3LYP) =  -693.362259444     A.U. after   10 cycles
 SCF Done:  E(RB3LYP) =  -693.362260642     A.U. after    8 cycles
 SCF Done:  E(RB3LYP) =  -693.362260882     A.U. after    8 cycles
 Optimization completed.
    -- Stationary point found.

                         Standard orientation:
 ---------------------------------------------------------------------
 Center     Atomic      Atomic             Coordinates (Angstroms)
 Number     Number       Type             X           Y           Z
 ---------------------------------------------------------------------
      1          6           0       -5.826039    0.133925    0.875902
      2          6           0       -5.106009   -0.414432   -0.369652
      3          6           0       -3.602758   -0.249602   -0.301232
      4          6           0       -2.790377   -1.237008    0.271348
      5          6           0       -1.411196   -1.070282    0.371874
      6          6           0       -0.784287    0.094304   -0.101975
      7          6           0        0.686738    0.270673   -0.003436
      8          6           0        1.238709    1.543779    0.287551
      9          6           0        2.607935    1.755692    0.389109
     10          6           0        3.474295    0.668784    0.197571
     11          6           0        4.901440    0.455486    0.207156
     12          6           0        5.084044   -0.860203   -0.064952
     13          8           0        3.896694   -1.525759   -0.250904
     14          6           0        2.909834   -0.588412   -0.087275
     15          6           0        1.546663   -0.820817   -0.195555
     16          6           0       -1.599460    1.082754   -0.678695
     17          6           0       -2.978510    0.911918   -0.774602
     18          1           0       -5.487565   -0.379708    1.782777
     19          1           0       -6.910714   -0.001082    0.792673
     20          1           0       -5.624992    1.203228    1.006267
     21          1           0       -5.353795   -1.476850   -0.489318
     22          1           0       -5.490768    0.097082   -1.261184
     23          1           0       -3.245814   -2.149650    0.650759
     24          1           0       -0.812806   -1.844905    0.843840
     25          1           0        0.561862    2.374566    0.462953
     26          1           0        2.995239    2.743767    0.621908
     27          1           0        5.677538    1.185522    0.390643
     28          1           0        5.968747   -1.471973   -0.161367
     29          1           0        1.167628   -1.805322   -0.447796
     30          1           0       -1.143607    1.981542   -1.084842
     31          1           0       -3.580637    1.690494   -1.238896
 ---------------------------------------------------------------------

 The electronic state is 1-A.
 Alpha  occ. eigenvalues --  -19.21043 -10.24527 -10.23993 -10.19886 -10.19404
 Alpha  occ. eigenvalues --  -10.19396 -10.19220 -10.19134 -10.19114 -10.19079
 Alpha  occ. eigenvalues --  -10.18705 -10.18595 -10.18521 -10.18519 -10.18398
 Alpha  occ. eigenvalues --  -10.18396 -10.17662  -1.10451  -0.86430  -0.84605
 Alpha  occ. eigenvalues --   -0.80309  -0.78209  -0.74897  -0.74140  -0.73666
 Alpha  occ. eigenvalues --   -0.70333  -0.64121  -0.62515  -0.60116  -0.59756
 Alpha  occ. eigenvalues --   -0.58308  -0.56157  -0.52019  -0.50567  -0.48801
 Alpha  occ. eigenvalues --   -0.46647  -0.46017  -0.45114  -0.44598  -0.43663
 Alpha  occ. eigenvalues --   -0.42721  -0.41967  -0.41424  -0.41055  -0.39739
 Alpha  occ. eigenvalues --   -0.38464  -0.37445  -0.36369  -0.35890  -0.34880
 Alpha  occ. eigenvalues --   -0.33998  -0.33803  -0.32836  -0.32600  -0.29291
 Alpha  occ. eigenvalues --   -0.24934  -0.24596  -0.23429  -0.20550
 Alpha virt. eigenvalues --   -0.02941   0.00042   0.00390   0.02728   0.06296
 Alpha virt. eigenvalues --    0.09779   0.11292   0.11991   0.12421   0.13011
 Alpha virt. eigenvalues --    0.13663   0.14590   0.15273   0.15719   0.16418

 Mulliken charges:
               1
     1  C   -0.433163
     2  C   -0.341037
     3  C    0.181417
     4  C   -0.189074
     5  C   -0.172324
     6  C    0.085725
     7  C    0.078167
     8  C   -0.181786
     9  C   -0.211688
    10  C    0.135167
    11  C   -0.220605
    12  C    0.084118
    13  O   -0.480379
    14  C    0.315068
    15  C   -0.237547
    16  C   -0.174080
    17  C   -0.188690
    18  H    0.149698
    19  H    0.143337
    20  H    0.149264
    21  H    0.142948
    22  H    0.142985
    23  H    0.122409
    24  H    0.130659
    25  H    0.130787
    26  H    0.132574
    27  H    0.146694
    28  H    0.160096
    29  H    0.146495
    30  H    0.130742
    31  H    0.122025
 Sum of Mulliken charges =  -0.00000

 Dipole moment (field-independent basis, Debye):
    X=              0.1835    Y=              0.4976    Z=              0.1503  Tot=              0.5513
 Quadrupole moment (field-independent basis, Debye-Ang):
   XX=            -80.5547   YY=            -92.4912   ZZ=           -102.2436
   XY=              2.0604   XZ=              1.5591   YZ=             -1.1904

 1\1\GINC-NODE40\FOpt\RB3LYP\6-31G(d)\C16H14O1\WYKGROUP\04-Nov-2022\0\\
 #p b3lyp/6-31g(d) opt SCF=XQC\\Gaussian input prepared by ASE\\0,1\C,5
 .2183542746,0.6892454493,-0.3937847297\C,4.4911986884,-0.6422384906,-0
 .1312206499\C,2.9876232578,-0.4861994733,-0.0504429615\C,2.1859131463,
 -0.5844397036,-1.1951650846\C,0.806657516,-0.4014931216,-1.1301390246\
 C,0.1689300372,-0.1155441365,0.0886085764\C,-1.3022383557,0.07164969,0
 .1617749723\C,-1.8592832187,1.0449600927,1.0292495623\C,-3.2288429816,
 1.2547543247,1.130707505\C,-4.0903259543,0.4748648437,0.3444154106\C,-

 Normal termination of Gaussian 16 at Fri Nov  4 21:19:02 2022.
