 Gaussian 16, Revision B.01,
 Gaussian 16:  ES64L-G16RevB.01 20-Dec-2017

 -------------------------------------------------------------------
 #p b3lyp/6-31g(d) 6D 10F nosymm GFInput td=(50-50,nstate=2) SCF=XQC
 -------------------------------------------------------------------

 ------------------------------
 Gaussian input prepared by ASE
 ------------------------------
 Symbolic Z-matrix:
 Charge =  0 Multiplicity = 1

                          Input orientation:
 ---------------------------------------------------------------------
 Center     Atomic      Atomic             Coordinates (Angstroms)
 Number     Number       Type             X           Y           Z
 ---------------------------------------------------------------------
      1          6           0        5.218354    0.689245   -0.393785
      2          6           0        4.491199   -0.642238   -0.131221
      3          6           0        2.987623   -0.486199   -0.050443
      4          6           0        2.185913   -0.584440   -1.195165
      5          6           0        0.806658   -0.401493   -1.130139
      6          6           0        0.168930   -0.115544    0.088609
      7          6           0       -1.302238    0.071650    0.161775
      8          6           0       -1.859283    1.044960    1.029250
      9          6           0       -3.228843    1.254754    1.130708
     10          6           0       -4.090326    0.474865    0.344415
     11          6           0       -5.516054    0.364669    0.150797
     12          6           0       -5.693135   -0.615238   -0.769447
     13          8           0       -4.503463   -1.154787   -1.194779
     14          6           0       -3.520835   -0.484301   -0.513475
     15          6           0       -2.157264   -0.711377   -0.627865
     16          6           0        0.973392   -0.020094    1.236597
     17          6           0        2.352579   -0.201635    1.165549
     18          1           0        4.890515    1.135600   -1.339351
     19          1           0        6.303076    0.539720   -0.445697
     20          1           0        5.012079    1.412645    0.403064
     21          1           0        4.744260   -1.353086   -0.928156
     22          1           0        4.865461   -1.077433    0.804220
     23          1           0        2.649898   -0.801807   -2.155249
     24          1           0        0.216826   -0.460083   -2.040925
     25          1           0       -1.185923    1.664724    1.613691
     26          1           0       -3.620029    2.015701    1.800353
     27          1           0       -6.294897    0.937953    0.634217
     28          1           0       -6.574978   -1.043533   -1.222411
     29          1           0       -1.774531   -1.486128   -1.283471
     30          1           0        0.508850    0.167440    2.200759
     31          1           0        2.946187   -0.134510    2.075180
 ---------------------------------------------------------------------

 SCF Done:  E(RB3LYP) =  -693.362264858     A.U. after   14 cycles

 Excitation energies and oscillator strengths:

 Excited state symmetry could not be determined.
 Excited State   1:      Triplet-?Sym    2.9972 eV  413.67 nm  f=0.0000  <S**2>=2.000
      56 -> 63         0.14126
      58 -> 61         0.12957
      58 -> 62         0.12209
      59 -> 60         0.64515
 This state for optimization and/or second-order correction.
 Total Energy, E(TD-HF/TD-DFT) =  -693.252120678
 Copying the excited state density for this state as the 1-particle RhoCI density.

 Excited state symmetry could not be determined.
 Excited State   2:      Triplet-?Sym    3.6653 eV  338.26 nm  f=0.0000  <S**2>=2.000
      56 -> 60         0.31515
      57 -> 61        -0.24060
      57 -> 62         0.23518
      58 -> 60         0.26647
      59 -> 61         0.25169
      59 -> 62         0.25301
      59 -> 63         0.21916

 Excited state symmetry could not be determined.
 Excited State   3:      Singlet-?Sym    4.4753 eV  277.04 nm  f=0.6537  <S**2>=0.000
      59 -> 60         0.68914

 Excited state symmetry could not be determined.
 Excited State   4:      Singlet-?Sym    4.7118 eV  263.14 nm  f=0.0187  <S**2>=0.000
      58 -> 60         0.49405
      59 -> 61        -0.41163
      59 -> 62        -0.22552
      59 -> 63         0.11197

 Alpha  occ. eigenvalues --  -19.21043 -10.24527 -10.23993 -10.19886 -10.19404
 Alpha  occ. eigenvalues --  -10.19396 -10.19220 -10.19134 -10.19114 -10.19079
 Alpha  occ. eigenvalues --  -10.18705 -10.18595 -10.18521 -10.18519 -10.18398
 Alpha  occ. eigenvalues --  -10.18396 -10.17662  -1.10451  -0.86430  -0.84605
 Alpha  occ. eigenvalues --   -0.80309  -0.78209  -0.74897  -0.74140  -0.73666
 Alpha  occ. eigenvalues --   -0.70333  -0.64121  -0.62515  -0.60116  -0.59756
 Alpha  occ. eigenvalues --   -0.58308  -0.56157  -0.52019  -0.50567  -0.48801
 Alpha  occ. eigenvalues --   -0.46647  -0.46017  -0.45114  -0.44598  -0.43663
 Alpha  occ. eigenvalues --   -0.42721  -0.41967  -0.41424  -0.41055  -0.39739
 Alpha  occ. eigenvalues --   -0.38464  -0.37445  -0.36369  -0.35890  -0.34880
 Alpha  occ. eigenvalues --   -0.33998  -0.33803  -0.32836  -0.32600  -0.29291
 Alpha  occ. eigenvalues --   -0.24934  -0.24596  -0.23429  -0.20550
 Alpha virt. eigenvalues --   -0.02941   0.00041   0.00390   0.02728   0.06296
 Alpha virt. eigenvalues --    0.09779   0.11292   0.11991   0.12421   0.13011
 Alpha virt. eigenvalues --    0.13663   0.14590   0.15273   0.15719   0.16418

 Mulliken charges:
               1
     1  C   -0.433161
     2  C   -0.341035
     3  C    0.181417
     4  C   -0.189072
     5  C   -0.172330
     6  C    0.085724
     7  C    0.078160
     8  C   -0.181782
     9  C   -0.211685
    10  C    0.135173
    11  C   -0.220610
    12  C    0.084125
    13  O   -0.480378
    14  C    0.315057
    15  C   -0.237542
    16  C   -0.174074
    17  C   -0.188695
    18  H    0.149697
    19  H    0.143336
    20  H    0.149263
    21  H    0.142948
    22  H    0.142985
    23  H    0.122409
    24  H    0.130661
    25  H    0.130788
    26  H    0.132573
    27  H    0.146694
    28  H    0.160095
    29  H    0.146495
    30  H    0.130741
    31  H    0.122026
 Sum of Mulliken charges =  -0.00000

 Dipole moment (field-independent basis, Debye):
    X=             -0.1852    Y=              0.4102    Z=              0.3183  Tot=              0.5513
 Quadrupole moment (field-independent basis, Debye-Ang):
   XX=            -80.3307   YY=           -100.1783   ZZ=            -94.6567
   XY=             -2.8051   XZ=             -0.8208   YZ=              4.1220

 Normal termination of Gaussian 16 at Sat Nov  5 09:28:39 2022.
