 Gaussian 16, Revision B.01,
 Gaussian 16:  ES64L-G16RevB.01 20-Dec-2017

 -----------------------------
 #p b3lyp/6-31g(d) opt SCF=XQC
 -----------------------------

 ------------------------------
 Gaussian input prepared by ASE
 ------------------------------
 Symbolic Z-matrix:
 Charge =  0 Multiplicity = 1

 SCF Done:  E(RB3LYP) =  -807.446123564     A.U. after   15 cycles
 SCF Done:  E(RB3LYP) =  -807.448926479     A.U. after   12 cycles
 SCF Done:  E(RB3LYP) =  -807.449021049     A.U. after   11 cycles
 SCF Done:  E(RB3LYP) =  -807.449032271     A.U. after   10 cycles
 SCF Done:  E(RB3LYP) =  -807.449033253     A.U. after    9 cycles
 SCF Done:  E(RB3LYP) =  -807.449033521     A.U. after    8 cycles
 Optimization completed.
    -- Stationary point found.

                         Standard orientation:
 ---------------------------------------------------------------------
 Center     Atomic      Atomic             Coordinates (Angstroms)
 Number     Number       Type             X           Y           Z
 ---------------------------------------------------------------------
      1          8           0        0.116094   -1.929754    0.502841
      2          6           0        0.532439   -0.833616    0.146129
      3          6           0        1.959865   -0.469020    0.098499
      4          6           0        2.903932   -1.430715    0.495632
      5          6           0        4.257943   -1.134149    0.467613
      6          6           0        4.687453    0.133666    0.038282
      7          6           0        3.767169    1.092009   -0.356699
      8          6           0        2.385152    0.811060   -0.333485
      9          6           0        1.387619    1.767425   -0.732861
     10          6           0        0.078317    1.438234   -0.681095
     11          7           0       -0.362390    0.189924   -0.257096
     12          6           0       -1.770204   -0.064289   -0.200656
     13          6           0       -2.345546   -1.153686   -0.862661
     14          6           0       -3.720455   -1.371011   -0.800998
     15          6           0       -4.539986   -0.499176   -0.080183
     16          6           0       -3.982980    0.590438    0.587630
     17          6           0       -2.609140    0.785533    0.526285
     18          9           0       -2.071180    1.836934    1.182233
     19          1           0        2.540090   -2.399612    0.820865
     20          1           0        4.986227   -1.878737    0.775927
     21          1           0        5.749203    0.365121    0.016017
     22          1           0        4.102025    2.071821   -0.687966
     23          1           0        1.680043    2.752392   -1.079763
     24          1           0       -0.706726    2.122681   -0.975101
     25          1           0       -1.702087   -1.830670   -1.411237
     26          1           0       -4.151376   -2.222505   -1.318610
     27          1           0       -5.612138   -0.665955   -0.034309
     28          1           0       -4.586132    1.285410    1.162422
 ---------------------------------------------------------------------

 The electronic state is 1-A.
 Alpha  occ. eigenvalues --  -24.71620 -19.11213 -14.39767 -10.29097 -10.28225
 Alpha  occ. eigenvalues --  -10.24300 -10.23958 -10.21036 -10.20594 -10.20453
 Alpha  occ. eigenvalues --  -10.20415 -10.19993 -10.19989 -10.19932 -10.19590
 Alpha  occ. eigenvalues --  -10.19388 -10.19329 -10.19256  -1.22725  -1.03805
 Alpha  occ. eigenvalues --   -0.96427  -0.87322  -0.85951  -0.80047  -0.76575
 Alpha  occ. eigenvalues --   -0.75847  -0.75041  -0.73402  -0.66237  -0.64687
 Alpha  occ. eigenvalues --   -0.62554  -0.61136  -0.59397  -0.56134  -0.53499
 Alpha  occ. eigenvalues --   -0.53069  -0.51489  -0.50054  -0.48232  -0.46964
 Alpha  occ. eigenvalues --   -0.46885  -0.45209  -0.44324  -0.43721  -0.43306
 Alpha  occ. eigenvalues --   -0.42452  -0.42070  -0.41013  -0.39848  -0.38338
 Alpha  occ. eigenvalues --   -0.36988  -0.36414  -0.36155  -0.35450  -0.34483
 Alpha  occ. eigenvalues --   -0.33917  -0.28693  -0.26336  -0.25607  -0.25170
 Alpha  occ. eigenvalues --   -0.24915  -0.20802
 Alpha virt. eigenvalues --   -0.04145  -0.02822  -0.01124  -0.00349   0.04178
 Alpha virt. eigenvalues --    0.07261   0.08113   0.09742   0.10948   0.13548
 Alpha virt. eigenvalues --    0.14096   0.15024   0.15399   0.16240   0.17113

 Mulliken charges:
               1
     1  O   -0.521163
     2  C    0.580173
     3  C   -0.011940
     4  C   -0.166174
     5  C   -0.139419
     6  C   -0.121694
     7  C   -0.200295
     8  C    0.177851
     9  C   -0.249770
    10  C    0.085240
    11  N   -0.589944
    12  C    0.196592
    13  C   -0.116544
    14  C   -0.147018
    15  C   -0.120838
    16  C   -0.205209
    17  C    0.361985
    18  F   -0.290447
    19  H    0.165778
    20  H    0.135931
    21  H    0.135843
    22  H    0.132505
    23  H    0.139344
    24  H    0.170947
    25  H    0.163172
    26  H    0.141130
    27  H    0.142225
    28  H    0.151742
 Sum of Mulliken charges =  -0.00000

 Dipole moment (field-independent basis, Debye):
    X=             -0.3795    Y=              1.8558    Z=             -1.6671  Tot=              2.5234
 Quadrupole moment (field-independent basis, Debye-Ang):
   XX=            -78.5562   YY=            -99.6553   ZZ=           -102.7819
   XY=              1.6430   XZ=              1.3649   YZ=              0.2972

 Normal termination of Gaussian 16 at Fri Nov  4 21:18:38 2022.
