 Gaussian 16, Revision B.01,
 Gaussian 16:  ES64L-G16RevB.01 20-Dec-2017

 -------------------------------------------------------------------
 #p b3lyp/6-31g(d) 6D 10F nosymm GFInput td=(50-50,nstate=2) SCF=XQC
 -------------------------------------------------------------------

 ------------------------------
 Gaussian input prepared by ASE
 ------------------------------
 Symbolic Z-matrix:
 Charge =  0 Multiplicity = 1

                          Input orientation:
 ---------------------------------------------------------------------
 Center     Atomic      Atomic             Coordinates (Angstroms)
 Number     Number       Type             X           Y           Z
 ---------------------------------------------------------------------
      1          8           0       -0.230905   -1.757855    0.816104
      2          6           0        0.320444   -0.801329    0.283960
      3          6           0        1.782495   -0.632263    0.202926
      4          6           0        2.597697   -1.620831    0.779132
      5          6           0        3.978334   -1.505611    0.727674
      6          6           0        4.564381   -0.395667    0.094640
      7          6           0        3.772350    0.587022   -0.478387
      8          6           0        2.365905    0.489729   -0.434923
      9          6           0        1.496989    1.479397   -1.013498
     10          6           0        0.156606    1.330838   -0.932117
     11          7           0       -0.438083    0.240422   -0.307929
     12          6           0       -1.866663    0.178250   -0.236882
     13          6           0       -2.576807   -0.928867   -0.712318
     14          6           0       -3.968057   -0.958221   -0.641833
     15          6           0       -4.669001    0.121317   -0.099083
     16          6           0       -3.977006    1.231952    0.381665
     17          6           0       -2.589635    1.239781    0.315310
     18          9           0       -1.921403    2.313415    0.790587
     19          1           0        2.114507   -2.465120    1.259365
     20          1           0        4.606868   -2.270528    1.174568
     21          1           0        5.646870   -0.306441    0.054189
     22          1           0        4.228161    1.444554   -0.967033
     23          1           0        1.911335    2.344561   -1.519286
     24          1           0       -0.535829    2.046608   -1.355683
     25          1           0       -2.025467   -1.766085   -1.122653
     26          1           0       -4.504494   -1.825949   -1.013237
     27          1           0       -5.753559    0.100670   -0.046761
     28          1           0       -4.486033    2.086250    0.815523
 ---------------------------------------------------------------------

 SCF Done:  E(RB3LYP) =  -807.449030752     A.U. after   16 cycles

 Excitation energies and oscillator strengths:

 Excited state symmetry could not be determined.
 Excited State   1:      Triplet-?Sym    2.9460 eV  420.86 nm  f=0.0000  <S**2>=2.000
      59 -> 63        -0.11136
      59 -> 64         0.13281
      62 -> 63         0.42748
      62 -> 64         0.48267
      62 -> 65        -0.12527
 This state for optimization and/or second-order correction.
 Total Energy, E(TD-HF/TD-DFT) =  -807.340768873
 Copying the excited state density for this state as the 1-particle RhoCI density.

 Excited state symmetry could not be determined.
 Excited State   2:      Triplet-?Sym    3.2241 eV  384.55 nm  f=0.0000  <S**2>=2.000
      62 -> 63         0.53138
      62 -> 64        -0.42499

 Excited state symmetry could not be determined.
 Excited State   3:      Singlet-?Sym    3.9887 eV  310.84 nm  f=0.1078  <S**2>=0.000
      62 -> 63         0.68754

 Excited state symmetry could not be determined.
 Excited State   4:      Singlet-?Sym    4.3802 eV  283.05 nm  f=0.1636  <S**2>=0.000
      59 -> 63        -0.15557
      60 -> 63        -0.11143
      62 -> 64         0.65942

 Alpha  occ. eigenvalues --  -24.71620 -19.11213 -14.39767 -10.29097 -10.28225
 Alpha  occ. eigenvalues --  -10.24300 -10.23958 -10.21036 -10.20594 -10.20453
 Alpha  occ. eigenvalues --  -10.20415 -10.19993 -10.19989 -10.19932 -10.19590
 Alpha  occ. eigenvalues --  -10.19388 -10.19329 -10.19256  -1.22725  -1.03805
 Alpha  occ. eigenvalues --   -0.96427  -0.87322  -0.85951  -0.80047  -0.76575
 Alpha  occ. eigenvalues --   -0.75847  -0.75041  -0.73402  -0.66237  -0.64687
 Alpha  occ. eigenvalues --   -0.62554  -0.61136  -0.59397  -0.56134  -0.53499
 Alpha  occ. eigenvalues --   -0.53069  -0.51489  -0.50054  -0.48232  -0.46964
 Alpha  occ. eigenvalues --   -0.46885  -0.45209  -0.44324  -0.43721  -0.43306
 Alpha  occ. eigenvalues --   -0.42452  -0.42070  -0.41013  -0.39848  -0.38338
 Alpha  occ. eigenvalues --   -0.36988  -0.36414  -0.36155  -0.35450  -0.34483
 Alpha  occ. eigenvalues --   -0.33917  -0.28693  -0.26336  -0.25607  -0.25170
 Alpha  occ. eigenvalues --   -0.24915  -0.20802
 Alpha virt. eigenvalues --   -0.04145  -0.02822  -0.01124  -0.00349   0.04178
 Alpha virt. eigenvalues --    0.07261   0.08113   0.09742   0.10948   0.13548
 Alpha virt. eigenvalues --    0.14096   0.15024   0.15399   0.16240   0.17113

 Mulliken charges:
               1
     1  O   -0.521159
     2  C    0.580169
     3  C   -0.011948
     4  C   -0.166175
     5  C   -0.139418
     6  C   -0.121695
     7  C   -0.200294
     8  C    0.177869
     9  C   -0.249793
    10  C    0.085262
    11  N   -0.589969
    12  C    0.196632
    13  C   -0.116554
    14  C   -0.147020
    15  C   -0.120834
    16  C   -0.205206
    17  C    0.361965
    18  F   -0.290447
    19  H    0.165778
    20  H    0.135931
    21  H    0.135843
    22  H    0.132505
    23  H    0.139343
    24  H    0.170948
    25  H    0.163173
    26  H    0.141130
    27  H    0.142224
    28  H    0.151742
 Sum of Mulliken charges =  -0.00000

 Dipole moment (field-independent basis, Debye):
    X=             -0.1442    Y=              1.5705    Z=             -1.9699  Tot=              2.5234
 Quadrupole moment (field-independent basis, Debye-Ang):
   XX=            -78.4475   YY=            -99.6090   ZZ=           -102.6793
   XY=             -0.9828   XZ=              1.7134   YZ=             -0.5371

 Normal termination of Gaussian 16 at Sat Nov  5 09:29:40 2022.
