 Gaussian 16, Revision B.01,
 Gaussian 16:  ES64L-G16RevB.01 20-Dec-2017

 -----------------------------
 #p b3lyp/6-31g(d) opt SCF=XQC
 -----------------------------

 ------------------------------
 Gaussian input prepared by ASE
 ------------------------------
 Symbolic Z-matrix:
 Charge =  0 Multiplicity = 1

 SCF Done:  E(RB3LYP) =  -1300.69421026     A.U. after   14 cycles
 SCF Done:  E(RB3LYP) =  -1300.70109470     A.U. after   12 cycles
 SCF Done:  E(RB3LYP) =  -1300.70189442     A.U. after   11 cycles
 SCF Done:  E(RB3LYP) =  -1300.70286640     A.U. after   11 cycles
 SCF Done:  E(RB3LYP) =  -1300.70314364     A.U. after   11 cycles
 SCF Done:  E(RB3LYP) =  -1300.70358898     A.U. after   11 cycles
 SCF Done:  E(RB3LYP) =  -1300.70372670     A.U. after   11 cycles
 SCF Done:  E(RB3LYP) =  -1300.70374848     A.U. after    9 cycles
 SCF Done:  E(RB3LYP) =  -1300.70377769     A.U. after   10 cycles
 SCF Done:  E(RB3LYP) =  -1300.70380064     A.U. after   10 cycles
 SCF Done:  E(RB3LYP) =  -1300.70382184     A.U. after   10 cycles
 SCF Done:  E(RB3LYP) =  -1300.70385328     A.U. after   11 cycles
 SCF Done:  E(RB3LYP) =  -1300.70385899     A.U. after    9 cycles
 SCF Done:  E(RB3LYP) =  -1300.70386148     A.U. after   10 cycles
 SCF Done:  E(RB3LYP) =  -1300.70386375     A.U. after    9 cycles
 SCF Done:  E(RB3LYP) =  -1300.70386439     A.U. after    8 cycles
 SCF Done:  E(RB3LYP) =  -1300.70386481     A.U. after    8 cycles
 SCF Done:  E(RB3LYP) =  -1300.70386489     A.U. after    7 cycles
 SCF Done:  E(RB3LYP) =  -1300.70386492     A.U. after    6 cycles
 SCF Done:  E(RB3LYP) =  -1300.70386493     A.U. after    6 cycles
 Optimization completed.
    -- Stationary point found.

                         Standard orientation:
 ---------------------------------------------------------------------
 Center     Atomic      Atomic             Coordinates (Angstroms)
 Number     Number       Type             X           Y           Z
 ---------------------------------------------------------------------
      1          6           0       -7.318316   -2.015750   -1.014461
      2          6           0       -6.970589   -0.875672   -0.408614
      3          6           0       -7.948656   -0.092981    0.435689
      4          6           0       -5.595555   -0.270581   -0.518666
      5          6           0       -4.726485   -0.135199    0.773945
      6          6           0       -3.474940   -0.437703   -0.094878
      7          6           0       -4.411590   -1.033062   -1.171107
      8          6           0       -2.559178    0.770612   -0.412823
      9          6           0       -1.554691    0.245261    0.664488
     10          6           0       -0.079055    0.458066    0.444146
     11          6           0        0.958608   -0.457714    0.453581
     12          6           0        0.902110   -1.923120    0.831551
     13          6           0        1.162268   -2.899559   -0.334843
     14          6           0        1.772581   -2.274581    2.057272
     15          7           0        2.164056    0.211359    0.152761
     16          6           0        3.473016   -0.328504   -0.050213
     17          6           0        3.828622   -0.872047   -1.290227
     18          6           0        5.119622   -1.352061   -1.507804
     19          6           0        6.048150   -1.261229   -0.476531
     20          9           0        7.298072   -1.720922   -0.681572
     21          6           0        5.729261   -0.704729    0.757445
     22          6           0        4.433067   -0.234313    0.964401
     23          6           0        1.899535    1.560590   -0.026468
     24          6           0        2.780781    2.604133   -0.338525
     25          6           0        2.251152    3.885040   -0.428731
     26          6           0        0.881595    4.125651   -0.208298
     27          6           0        0.041190    3.068744    0.088551
     28          9           0       -1.269076    3.331067    0.324868
     29          6           0        0.508988    1.749387    0.167476
     30          6           0       -2.245343   -1.145617    0.510573
     31          1           0       -8.321157   -2.425360   -0.919852
     32          1           0       -6.623974   -2.578751   -1.631449
     33          1           0       -8.084305    0.923745    0.041264
     34          1           0       -8.929802   -0.576277    0.473804
     35          1           0       -7.583460    0.019291    1.465431
     36          1           0       -5.684872    0.724585   -0.978623
     37          1           0       -4.936435   -0.951791    1.475856
     38          1           0       -4.755505    0.817088    1.315421
     39          1           0       -4.178892   -0.816308   -2.219908
     40          1           0       -4.513957   -2.117881   -1.048826
     41          1           0       -2.962927    1.776456   -0.279589
     42          1           0       -2.126448    0.690194   -1.417527
     43          1           0       -1.846589    0.673542    1.633301
     44          1           0       -0.129972   -2.083919    1.147201
     45          1           0        0.927611   -3.924115   -0.022147
     46          1           0        2.207519   -2.884908   -0.657036
     47          1           0        0.535296   -2.658391   -1.200498
     48          1           0        1.575266   -1.589744    2.889280
     49          1           0        2.841851   -2.238986    1.831353
     50          1           0        1.540157   -3.291816    2.394282
     51          1           0        3.089240   -0.912821   -2.083624
     52          1           0        5.414301   -1.781229   -2.459584
     53          1           0        6.486640   -0.645333    1.531860
     54          1           0        4.155988    0.206873    1.916550
     55          1           0        3.838121    2.419152   -0.495253
     56          1           0        2.903386    4.720999   -0.664268
     57          1           0        0.468913    5.127726   -0.257823
     58          1           0       -2.400516   -1.751662    1.411404
     59          1           0       -1.751720   -1.759548   -0.251568
 ---------------------------------------------------------------------

 The electronic state is 1-A.
 Alpha  occ. eigenvalues --  -24.71633 -24.69376 -14.37986 -10.28773 -10.25882
 Alpha  occ. eigenvalues --  -10.24436 -10.21891 -10.21719 -10.21588 -10.21567
 Alpha  occ. eigenvalues --  -10.21257 -10.21254 -10.20017 -10.18846 -10.18581
 Alpha  occ. eigenvalues --  -10.18545 -10.18480 -10.18462 -10.18255 -10.18210
 Alpha  occ. eigenvalues --  -10.17943 -10.17832 -10.17757 -10.17755 -10.17596
 Alpha  occ. eigenvalues --  -10.17522 -10.17511 -10.17181 -10.16924 -10.16362
 Alpha  occ. eigenvalues --   -1.22850  -1.20253  -0.98609  -0.88014  -0.86325
 Alpha  occ. eigenvalues --   -0.84069  -0.82097  -0.80375  -0.78912  -0.77408
 Alpha  occ. eigenvalues --   -0.76758  -0.74758  -0.72482  -0.71013  -0.68609
 Alpha  occ. eigenvalues --   -0.67844  -0.65754  -0.65146  -0.64808  -0.64290
 Alpha  occ. eigenvalues --   -0.63157  -0.62036  -0.60075  -0.59314  -0.57183
 Alpha  occ. eigenvalues --   -0.55503  -0.54903  -0.53143  -0.51458  -0.51210
 Alpha  occ. eigenvalues --   -0.50908  -0.48588  -0.48135  -0.47815  -0.47140
 Alpha  occ. eigenvalues --   -0.46910  -0.46689  -0.46317  -0.45870  -0.45113
 Alpha  occ. eigenvalues --   -0.44886  -0.44684  -0.44125  -0.43068  -0.42664
 Alpha  occ. eigenvalues --   -0.42072  -0.41501  -0.41117  -0.41069  -0.40714
 Alpha  occ. eigenvalues --   -0.39365  -0.39000  -0.38666  -0.38513  -0.37790
 Alpha  occ. eigenvalues --   -0.37652  -0.36719  -0.36438  -0.36052  -0.35677
 Alpha  occ. eigenvalues --   -0.35231  -0.35119  -0.34571  -0.34195  -0.33429
 Alpha  occ. eigenvalues --   -0.33123  -0.31642  -0.31369  -0.30846  -0.28873
 Alpha  occ. eigenvalues --   -0.28536  -0.28020  -0.27590  -0.25975  -0.25390
 Alpha  occ. eigenvalues --   -0.23421  -0.21791  -0.19127
 Alpha virt. eigenvalues --   -0.02681  -0.01899  -0.00266   0.02675   0.03224
 Alpha virt. eigenvalues --    0.06430   0.07336   0.08608   0.09506   0.10123
 Alpha virt. eigenvalues --    0.10598   0.10861   0.11359   0.12121   0.12558

 Mulliken charges:
               1
     1  C   -0.407901
     2  C    0.222978
     3  C   -0.511766
     4  C   -0.156662
     5  C   -0.301069
     6  C    0.112051
     7  C   -0.306419
     8  C   -0.294938
     9  C   -0.176477
    10  C    0.019258
    11  C    0.278916
    12  C   -0.157400
    13  C   -0.455064
    14  C   -0.453452
    15  N   -0.684937
    16  C    0.227127
    17  C   -0.129406
    18  C   -0.212242
    19  C    0.392149
    20  F   -0.292227
    21  C   -0.209931
    22  C   -0.135247
    23  C    0.289136
    24  C   -0.160980
    25  C   -0.153959
    26  C   -0.203313
    27  C    0.289015
    28  F   -0.300670
    29  C    0.009647
    30  C   -0.317431
    31  H    0.127322
    32  H    0.133792
    33  H    0.151445
    34  H    0.150754
    35  H    0.156975
    36  H    0.136752
    37  H    0.134318
    38  H    0.137533
    39  H    0.134057
    40  H    0.134974
    41  H    0.149514
    42  H    0.132606
    43  H    0.143541
    44  H    0.164532
    45  H    0.143998
    46  H    0.152136
    47  H    0.148346
    48  H    0.149134
    49  H    0.153965
    50  H    0.143571
    51  H    0.160413
    52  H    0.157232
    53  H    0.157174
    54  H    0.160208
    55  H    0.133123
    56  H    0.128090
    57  H    0.132635
    58  H    0.132170
    59  H    0.140902
 Sum of Mulliken charges =  -0.00000

 Dipole moment (field-independent basis, Debye):
    X=              1.6103    Y=             -1.3299    Z=              0.3173  Tot=              2.1125
 Quadrupole moment (field-independent basis, Debye-Ang):
   XX=           -176.3657   YY=           -176.3723   ZZ=           -172.3926
   XY=              0.4468   XZ=             -1.0846   YZ=             -0.0881

 Normal termination of Gaussian 16 at Fri Nov  4 21:56:09 2022.
