 Gaussian 16, Revision B.01,
 Gaussian 16:  ES64L-G16RevB.01 20-Dec-2017

 -------------------------------------------------------------------
 #p b3lyp/6-31g(d) 6D 10F nosymm GFInput td=(50-50,nstate=2) SCF=XQC
 -------------------------------------------------------------------

 ------------------------------
 Gaussian input prepared by ASE
 ------------------------------
 Symbolic Z-matrix:
 Charge =  0 Multiplicity = 1

                          Input orientation:
 ---------------------------------------------------------------------
 Center     Atomic      Atomic             Coordinates (Angstroms)
 Number     Number       Type             X           Y           Z
 ---------------------------------------------------------------------
      1          6           0        6.540396   -2.202844   -1.156209
      2          6           0        6.290417   -1.056475   -0.515045
      3          6           0        7.337120    0.024439   -0.380486
      4          6           0        4.965609   -0.746049    0.131086
      5          6           0        4.125977    0.455906   -0.411844
      6          6           0        2.843874   -0.369551   -0.115940
      7          6           0        3.717628   -1.644406   -0.079456
      8          6           0        2.021445    0.070863    1.120740
      9          6           0        0.992497    0.740048    0.151696
     10          6           0       -0.464630    0.749912    0.536431
     11          6           0       -1.570488    0.314369   -0.172700
     12          6           0       -1.623969   -0.170095   -1.606543
     13          6           0       -1.974175   -1.664285   -1.768841
     14          6           0       -2.503879    0.710874   -2.519389
     15          7           0       -2.723622    0.490922    0.621256
     16          6           0       -4.073199    0.096666    0.358140
     17          6           0       -4.485643   -1.218382    0.603229
     18          6           0       -5.812821   -1.593232    0.397028
     19          6           0       -6.718468   -0.631136   -0.036693
     20          9           0       -8.002953   -0.986612   -0.235187
     21          6           0       -6.341689    0.687864   -0.265506
     22          6           0       -5.010216    1.048321   -0.061817
     23          6           0       -2.356726    1.061432    1.830564
     24          6           0       -3.157552    1.415229    2.924393
     25          6           0       -2.530608    2.008966    4.012412
     26          6           0       -1.143792    2.251684    4.012510
     27          6           0       -0.384914    1.880052    2.918231
     28          9           0        0.944692    2.151040    2.931251
     29          6           0       -0.953366    1.252650    1.800647
     30          6           0        1.570367   -0.182792   -0.966189
     31          1           0        7.509262   -2.399979   -1.608821
     32          1           0        5.796535   -2.988944   -1.248250
     33          1           0        7.546877    0.240623    0.676382
     34          1           0        8.277895   -0.258953   -0.862467
     35          1           0        6.994695    0.966977   -0.828489
     36          1           0        5.126676   -0.593998    1.208504
     37          1           0        4.280213    0.587710   -1.489999
     38          1           0        4.236084    1.426117    0.085607
     39          1           0        3.489510   -2.391972    0.688803
     40          1           0        3.736423   -2.138130   -1.058306
     41          1           0        2.504195    0.708573    1.864222
     42          1           0        1.571249   -0.790952    1.628430
     43          1           0        1.329040    1.768705   -0.037596
     44          1           0       -0.603751   -0.048282   -1.973967
     45          1           0       -1.816419   -1.972835   -2.809258
     46          1           0       -3.019024   -1.870447   -1.519118
     47          1           0       -1.341127   -2.290950   -1.130753
     48          1           0       -2.243280    1.769725   -2.414056
     49          1           0       -3.569833    0.597984   -2.303421
     50          1           0       -2.347474    0.426783   -3.566859
     51          1           0       -3.761667   -1.944041    0.959748
     52          1           0       -6.151994   -2.607965    0.576427
     53          1           0       -7.082387    1.408729   -0.595037
     54          1           0       -4.687645    2.070843   -0.230350
     55          1           0       -4.227988    1.239527    2.917609
     56          1           0       -3.118407    2.301620    4.877606
     57          1           0       -0.654712    2.733879    4.852273
     58          1           0        1.688935    0.233075   -1.974089
     59          1           0        1.020803   -1.128799   -1.033146
 ---------------------------------------------------------------------

 SCF Done:  E(RB3LYP) =  -1300.70386318     A.U. after   14 cycles

 Excitation energies and oscillator strengths:

 Excited state symmetry could not be determined.
 Excited State   1:      Triplet-?Sym    3.1887 eV  388.82 nm  f=0.0000  <S**2>=2.000
     107 ->112         0.14354
     108 ->110         0.10905
     108 ->111         0.65543
 This state for optimization and/or second-order correction.
 Total Energy, E(TD-HF/TD-DFT) =  -1300.58667878
 Copying the excited state density for this state as the 1-particle RhoCI density.

 Excited state symmetry could not be determined.
 Excited State   2:      Triplet-?Sym    3.7250 eV  332.84 nm  f=0.0000  <S**2>=2.000
     103 ->109         0.40740
     104 ->110         0.36707
     105 ->110         0.33150
     108 ->109         0.10489
     108 ->110        -0.23571

 Excited state symmetry could not be determined.
 Excited State   3:      Singlet-?Sym    3.8457 eV  322.40 nm  f=0.0015  <S**2>=0.000
     108 ->109         0.70512

 Excited state symmetry could not be determined.
 Excited State   4:      Singlet-?Sym    3.9808 eV  311.45 nm  f=0.0076  <S**2>=0.000
     108 ->110         0.70310

 Alpha  occ. eigenvalues --  -24.71633 -24.69376 -14.37986 -10.28773 -10.25882
 Alpha  occ. eigenvalues --  -10.24436 -10.21891 -10.21719 -10.21588 -10.21567
 Alpha  occ. eigenvalues --  -10.21257 -10.21254 -10.20017 -10.18846 -10.18581
 Alpha  occ. eigenvalues --  -10.18545 -10.18479 -10.18462 -10.18255 -10.18210
 Alpha  occ. eigenvalues --  -10.17943 -10.17832 -10.17757 -10.17755 -10.17596
 Alpha  occ. eigenvalues --  -10.17522 -10.17511 -10.17181 -10.16924 -10.16362
 Alpha  occ. eigenvalues --   -1.22850  -1.20253  -0.98609  -0.88014  -0.86325
 Alpha  occ. eigenvalues --   -0.84069  -0.82097  -0.80375  -0.78912  -0.77408
 Alpha  occ. eigenvalues --   -0.76758  -0.74758  -0.72482  -0.71013  -0.68609
 Alpha  occ. eigenvalues --   -0.67844  -0.65754  -0.65146  -0.64808  -0.64290
 Alpha  occ. eigenvalues --   -0.63157  -0.62036  -0.60075  -0.59314  -0.57183
 Alpha  occ. eigenvalues --   -0.55503  -0.54903  -0.53143  -0.51458  -0.51210
 Alpha  occ. eigenvalues --   -0.50908  -0.48588  -0.48135  -0.47815  -0.47140
 Alpha  occ. eigenvalues --   -0.46910  -0.46689  -0.46317  -0.45870  -0.45113
 Alpha  occ. eigenvalues --   -0.44886  -0.44684  -0.44125  -0.43068  -0.42664
 Alpha  occ. eigenvalues --   -0.42072  -0.41501  -0.41117  -0.41069  -0.40714
 Alpha  occ. eigenvalues --   -0.39365  -0.39000  -0.38666  -0.38513  -0.37790
 Alpha  occ. eigenvalues --   -0.37652  -0.36719  -0.36438  -0.36052  -0.35677
 Alpha  occ. eigenvalues --   -0.35231  -0.35119  -0.34571  -0.34195  -0.33429
 Alpha  occ. eigenvalues --   -0.33123  -0.31642  -0.31369  -0.30846  -0.28873
 Alpha  occ. eigenvalues --   -0.28535  -0.28020  -0.27590  -0.25975  -0.25390
 Alpha  occ. eigenvalues --   -0.23421  -0.21791  -0.19127
 Alpha virt. eigenvalues --   -0.02681  -0.01899  -0.00266   0.02675   0.03224
 Alpha virt. eigenvalues --    0.06430   0.07336   0.08608   0.09506   0.10123
 Alpha virt. eigenvalues --    0.10598   0.10860   0.11359   0.12121   0.12558

 Mulliken charges:
               1
     1  C   -0.407901
     2  C    0.222969
     3  C   -0.511765
     4  C   -0.156650
     5  C   -0.301086
     6  C    0.112090
     7  C   -0.306434
     8  C   -0.294938
     9  C   -0.176480
    10  C    0.019244
    11  C    0.278944
    12  C   -0.157388
    13  C   -0.455080
    14  C   -0.453459
    15  N   -0.684978
    16  C    0.227140
    17  C   -0.129403
    18  C   -0.212247
    19  C    0.392159
    20  F   -0.292226
    21  C   -0.209947
    22  C   -0.135246
    23  C    0.289158
    24  C   -0.160977
    25  C   -0.153970
    26  C   -0.203309
    27  C    0.289019
    28  F   -0.300670
    29  C    0.009644
    30  C   -0.317440
    31  H    0.127323
    32  H    0.133792
    33  H    0.151445
    34  H    0.150755
    35  H    0.156976
    36  H    0.136752
    37  H    0.134318
    38  H    0.137535
    39  H    0.134057
    40  H    0.134976
    41  H    0.149511
    42  H    0.132607
    43  H    0.143540
    44  H    0.164530
    45  H    0.143999
    46  H    0.152140
    47  H    0.148347
    48  H    0.149132
    49  H    0.153966
    50  H    0.143572
    51  H    0.160411
    52  H    0.157232
    53  H    0.157177
    54  H    0.160213
    55  H    0.133123
    56  H    0.128091
    57  H    0.132636
    58  H    0.132171
    59  H    0.140900
 Sum of Mulliken charges =  -0.00000

 Dipole moment (field-independent basis, Debye):
    X=             -1.7052    Y=             -0.3728    Z=             -1.1898  Tot=              2.1125
 Quadrupole moment (field-independent basis, Debye-Ang):
   XX=           -174.4135   YY=           -173.8337   ZZ=           -175.9434
   XY=              0.6898   XZ=             -0.9753   YZ=             -2.1528

 Normal termination of Gaussian 16 at Sat Nov  5 09:39:04 2022.
