 Gaussian 16, Revision B.01,
 Gaussian 16:  ES64L-G16RevB.01 20-Dec-2017

 -------------------------------------------------------------------
 #p b3lyp/6-31g(d) 6D 10F nosymm GFInput td=(50-50,nstate=2) SCF=XQC
 -------------------------------------------------------------------

 ------------------------------
 Gaussian input prepared by ASE
 ------------------------------
 Symbolic Z-matrix:
 Charge =  0 Multiplicity = 1

                          Input orientation:
 ---------------------------------------------------------------------
 Center     Atomic      Atomic             Coordinates (Angstroms)
 Number     Number       Type             X           Y           Z
 ---------------------------------------------------------------------
      1          6           0       -3.804638    4.464718    1.437965
      2          6           0       -2.644588    3.499142    1.349376
      3          6           0       -2.315625    2.665337    2.423272
      4          6           0       -1.280119    1.727661    2.340264
      5          6           0       -0.941900    0.826433    3.502492
      6          6           0       -0.574535    1.645960    1.136229
      7          8           0        0.500146    0.732466    1.072103
      8          6           0        0.263542   -0.504221    0.551008
      9          7           0       -0.935758   -0.722886    0.046348
     10          6           0       -1.267183   -1.925265   -0.456320
     11          6           0       -2.645309   -2.035364   -0.996825
     12          6           0       -3.101217   -3.164271   -1.692120
     13          6           0       -4.410087   -3.205162   -2.174404
     14          6           0       -5.272935   -2.129476   -1.971541
     15          6           0       -4.838242   -0.987153   -1.281612
     16          6           0       -5.789845    0.192927   -1.072586
     17          7           0       -5.310258    1.339014   -0.304800
     18          6           0       -3.531329   -0.959323   -0.805510
     19          6           0       -0.343770   -2.982805   -0.435282
     20          6           0        0.912809   -2.750032    0.103358
     21          6           0        1.278492   -1.492759    0.608061
     22          6           0        2.642887   -1.378326    1.197873
     23          8           0        3.285885   -2.385111    1.461711
     24          6           0        3.274262   -0.022695    1.491180
     25         16           0        3.998557    0.843261    0.041499
     26          8           0        3.010976    0.863148   -1.047415
     27          8           0        4.566519    2.096235    0.567060
     28          6           0        5.400141   -0.204781   -0.470158
     29          6           0        6.691280    0.254022   -0.256286
     30          6           0        7.720220   -0.585873   -0.707731
     31          6           0        7.411293   -1.791564   -1.313711
     32          6           0        6.050850   -2.146946   -1.471057
     33          7           0        5.678273   -3.349925   -2.024836
     34          7           0        5.059272   -1.346369   -1.054516
     35          6           0       -0.844604    2.469792    0.038738
     36          6           0       -0.072778    2.349044   -1.250159
     37          6           0       -1.888788    3.392394    0.175949
     38          1           0       -4.028543    4.728364    2.476982
     39          1           0       -4.713827    4.025750    1.005314
     40          1           0       -3.597982    5.391284    0.891077
     41          1           0       -2.877064    2.743021    3.352217
     42          1           0        0.107476    0.929963    3.802019
     43          1           0       -1.100748   -0.229674    3.251810
     44          1           0       -1.566012    1.062123    4.369506
     45          1           0       -2.443749   -4.008534   -1.874456
     46          1           0       -4.755989   -4.082471   -2.714716
     47          1           0       -6.291397   -2.175303   -2.353233
     48          1           0       -6.704200   -0.173987   -0.587076
     49          1           0       -6.109923    0.563684   -2.055850
     50          1           0       -5.019899    1.043435    0.626058
     51          1           0       -4.476838    1.734273   -0.737758
     52          1           0       -3.164229   -0.093303   -0.269019
     53          1           0       -0.600839   -3.965583   -0.812311
     54          1           0        1.653653   -3.541059    0.156069
     55          1           0        4.098333   -0.165339    2.193123
     56          1           0        2.558575    0.706973    1.872824
     57          1           0        6.873797    1.209074    0.219226
     58          1           0        8.758788   -0.292517   -0.582069
     59          1           0        8.192934   -2.460929   -1.661122
     60          1           0        4.703059   -3.412479   -2.285882
     61          1           0        6.323195   -3.799785   -2.658592
     62          1           0        1.002787    2.251515   -1.081140
     63          1           0       -0.386135    1.454069   -1.802755
     64          1           0       -0.253038    3.218722   -1.889547
     65          1           0       -2.114081    4.047468   -0.663668
 ---------------------------------------------------------------------

 SCF Done:  E(RB3LYP) =  -2001.89133861     A.U. after   15 cycles

 Excitation energies and oscillator strengths:

 Excited state symmetry could not be determined.
 Excited State   1:      Triplet-?Sym    2.6224 eV  472.78 nm  f=0.0000  <S**2>=2.000
     135 ->137         0.60326
     136 ->137        -0.26877
 This state for optimization and/or second-order correction.
 Total Energy, E(TD-HF/TD-DFT) =  -2001.79496591
 Copying the excited state density for this state as the 1-particle RhoCI density.

 Excited state symmetry could not be determined.
 Excited State   2:      Triplet-?Sym    3.0663 eV  404.35 nm  f=0.0000  <S**2>=2.000
     127 ->137         0.10429
     130 ->137         0.60976
     130 ->139         0.20430
     135 ->137        -0.10813
     136 ->137        -0.15726

 Excited state symmetry could not be determined.
 Excited State   3:      Singlet-?Sym    3.3992 eV  364.74 nm  f=0.0109  <S**2>=0.000
     130 ->137        -0.28979
     135 ->137         0.12966
     136 ->137         0.62035

 Excited state symmetry could not be determined.
 Excited State   4:      Singlet-?Sym    3.5892 eV  345.44 nm  f=0.0140  <S**2>=0.000
     130 ->137         0.57795
     130 ->139         0.14080
     135 ->137         0.20985
     136 ->137         0.25968

 Alpha  occ. eigenvalues --  -89.08801 -19.19488 -19.14146 -19.13547 -19.13507
 Alpha  occ. eigenvalues --  -14.36039 -14.34399 -14.33204 -14.31236 -10.29702
 Alpha  occ. eigenvalues --  -10.28837 -10.28044 -10.25546 -10.24699 -10.23560
 Alpha  occ. eigenvalues --  -10.22236 -10.22046 -10.21335 -10.21261 -10.21200
 Alpha  occ. eigenvalues --  -10.20976 -10.20686 -10.20187 -10.19928 -10.19555
 Alpha  occ. eigenvalues --  -10.19496 -10.19479 -10.19439 -10.19301 -10.19197
 Alpha  occ. eigenvalues --  -10.19086 -10.18402 -10.18280 -10.17985 -10.17816
 Alpha  occ. eigenvalues --  -10.17640 -10.16392  -8.11746  -6.08160  -6.08105
 Alpha  occ. eigenvalues --   -6.08069  -1.09215  -1.08895  -1.04239  -0.98947
 Alpha  occ. eigenvalues --   -0.98298  -0.95089  -0.91009  -0.88464  -0.85709
 Alpha  occ. eigenvalues --   -0.85214  -0.81821  -0.81748  -0.79469  -0.78526
 Alpha  occ. eigenvalues --   -0.77760  -0.77076  -0.76341  -0.75179  -0.73887
 Alpha  occ. eigenvalues --   -0.69534  -0.68659  -0.68158  -0.67204  -0.66569
 Alpha  occ. eigenvalues --   -0.66163  -0.64167  -0.63057  -0.61453  -0.59631
 Alpha  occ. eigenvalues --   -0.58935  -0.57854  -0.57470  -0.56468  -0.54423
 Alpha  occ. eigenvalues --   -0.54104  -0.53598  -0.52150  -0.50660  -0.50064
 Alpha  occ. eigenvalues --   -0.49883  -0.49234  -0.49078  -0.48262  -0.47531
 Alpha  occ. eigenvalues --   -0.47058  -0.46576  -0.45961  -0.45089  -0.44941
 Alpha  occ. eigenvalues --   -0.43953  -0.43589  -0.43012  -0.42776  -0.42553
 Alpha  occ. eigenvalues --   -0.42167  -0.41937  -0.41921  -0.41386  -0.41178
 Alpha  occ. eigenvalues --   -0.40732  -0.39977  -0.39882  -0.39818  -0.39680
 Alpha  occ. eigenvalues --   -0.39569  -0.39280  -0.39178  -0.38748  -0.38046
 Alpha  occ. eigenvalues --   -0.37612  -0.36998  -0.35929  -0.35099  -0.34472
 Alpha  occ. eigenvalues --   -0.34421  -0.33890  -0.33712  -0.32612  -0.32469
 Alpha  occ. eigenvalues --   -0.32195  -0.31241  -0.30426  -0.30033  -0.29320
 Alpha  occ. eigenvalues --   -0.29029  -0.27776  -0.26623  -0.26140  -0.25271
 Alpha  occ. eigenvalues --   -0.24722  -0.23797  -0.23311  -0.23213  -0.22713
 Alpha  occ. eigenvalues --   -0.22391
 Alpha virt. eigenvalues --   -0.07624  -0.04493  -0.01730  -0.01500  -0.01231
 Alpha virt. eigenvalues --    0.00463   0.00574   0.00842   0.03972   0.06638
 Alpha virt. eigenvalues --    0.07371   0.08107   0.08846   0.09406   0.09845

 Mulliken charges:
               1
     1  C   -0.542983
     2  C    0.214059
     3  C   -0.285836
     4  C    0.188510
     5  C   -0.532243
     6  C    0.211616
     7  O   -0.587700
     8  C    0.529672
     9  N   -0.575815
    10  C    0.275505
    11  C    0.098389
    12  C   -0.185203
    13  C   -0.136078
    14  C   -0.171604
    15  C    0.157691
    16  C   -0.223174
    17  N   -0.712779
    18  C   -0.238915
    19  C   -0.176582
    20  C   -0.135969
    21  C    0.039623
    22  C    0.422014
    23  O   -0.456384
    24  C   -0.591140
    25  S    1.135194
    26  O   -0.524870
    27  O   -0.541817
    28  C    0.027425
    29  C   -0.156099
    30  C   -0.102461
    31  C   -0.160217
    32  C    0.485651
    33  N   -0.764410
    34  N   -0.495201
    35  C    0.202808
    36  C   -0.555503
    37  C   -0.289569
    38  H    0.153217
    39  H    0.183562
    40  H    0.156713
    41  H    0.116250
    42  H    0.164636
    43  H    0.166743
    44  H    0.155112
    45  H    0.130241
    46  H    0.131632
    47  H    0.125811
    48  H    0.158061
    49  H    0.160431
    50  H    0.306235
    51  H    0.311139
    52  H    0.154205
    53  H    0.142269
    54  H    0.172613
    55  H    0.215015
    56  H    0.246426
    57  H    0.185514
    58  H    0.153255
    59  H    0.139073
    60  H    0.345318
    61  H    0.331686
    62  H    0.214018
    63  H    0.170144
    64  H    0.146351
    65  H    0.118722
 Sum of Mulliken charges =  -0.00000

 Dipole moment (field-independent basis, Debye):
    X=              1.4794    Y=             -4.5143    Z=             -1.7960  Tot=              5.0787
 Quadrupole moment (field-independent basis, Debye-Ang):
   XX=           -182.2256   YY=           -213.1642   ZZ=           -208.7152
   XY=            -13.7219   XZ=            -12.6465   YZ=             16.8434

 Normal termination of Gaussian 16 at Sat Nov  5 09:41:06 2022.
