 Gaussian 16, Revision B.01,
 Gaussian 16:  ES64L-G16RevB.01 20-Dec-2017

 -----------------------------
 #p b3lyp/6-31g(d) opt SCF=XQC
 -----------------------------

 ------------------------------
 Gaussian input prepared by ASE
 ------------------------------
 Symbolic Z-matrix:
 Charge =  0 Multiplicity = 1

 SCF Done:  E(RB3LYP) =  -2001.86918470     A.U. after   15 cycles
 SCF Done:  E(RB3LYP) =  -2001.88420462     A.U. after   15 cycles
 SCF Done:  E(RB3LYP) =  -2001.87861681     A.U. after   15 cycles
 SCF Done:  E(RB3LYP) =  -2001.88490745     A.U. after   13 cycles
 SCF Done:  E(RB3LYP) =  -2001.88704604     A.U. after   11 cycles
 SCF Done:  E(RB3LYP) =  -2001.88875189     A.U. after   12 cycles
 SCF Done:  E(RB3LYP) =  -2001.88935045     A.U. after   13 cycles
 SCF Done:  E(RB3LYP) =  -2001.88985861     A.U. after   12 cycles
 SCF Done:  E(RB3LYP) =  -2001.89017662     A.U. after   12 cycles
 SCF Done:  E(RB3LYP) =  -2001.89037270     A.U. after   12 cycles
 SCF Done:  E(RB3LYP) =  -2001.89132131     A.U. after   10 cycles
 SCF Done:  E(RB3LYP) =  -2001.89133958     A.U. after   11 cycles
 SCF Done:  E(RB3LYP) =  -2001.89134095     A.U. after    8 cycles
 SCF Done:  E(RB3LYP) =  -2001.89134141     A.U. after    8 cycles
 SCF Done:  E(RB3LYP) =  -2001.89134187     A.U. after    9 cycles
 SCF Done:  E(RB3LYP) =  -2001.89134198     A.U. after    7 cycles
 SCF Done:  E(RB3LYP) =  -2001.89134207     A.U. after    7 cycles
 SCF Done:  E(RB3LYP) =  -2001.89134211     A.U. after    7 cycles
 SCF Done:  E(RB3LYP) =  -2001.89134213     A.U. after    7 cycles
 SCF Done:  E(RB3LYP) =  -2001.89134213     A.U. after    6 cycles
 Optimization completed.
    -- Stationary point found.

                         Standard orientation:
 ---------------------------------------------------------------------
 Center     Atomic      Atomic             Coordinates (Angstroms)
 Number     Number       Type             X           Y           Z
 ---------------------------------------------------------------------
      1          6           0        4.994404   -4.077883   -0.500490
      2          6           0        3.706561   -3.343701   -0.203271
      3          6           0        3.297410   -3.107622    1.113377
      4          6           0        2.136928   -2.382996    1.407653
      5          6           0        1.711899   -2.126001    2.832673
      6          6           0        1.388168   -1.893863    0.333254
      7          8           0        0.192983   -1.204485    0.632940
      8          6           0        0.234248    0.155882    0.700877
      9          7           0        1.373229    0.738163    0.377631
     10          6           0        1.513778    2.073515    0.450518
     11          6           0        2.843948    2.599791    0.054059
     12          6           0        3.111842    3.969985   -0.074471
     13          6           0        4.385230    4.399689   -0.450298
     14          6           0        5.398423    3.475959   -0.701148
     15          6           0        5.153250    2.099120   -0.582540
     16          6           0        6.269295    1.092261   -0.869781
     17          7           0        5.982773   -0.327733   -0.683950
     18          6           0        3.879739    1.683997   -0.206624
     19          6           0        0.450521    2.876360    0.893747
     20          6           0       -0.742015    2.258762    1.239775
     21          6           0       -0.908583    0.868697    1.144069
     22          6           0       -2.222951    0.319351    1.583617
     23          8           0       -2.993688    1.012642    2.233221
     24          6           0       -2.645245   -1.105543    1.246361
     25         16           0       -3.285715   -1.358939   -0.457061
     26          8           0       -2.341236   -0.768854   -1.416855
     27          8           0       -3.652332   -2.782907   -0.538581
     28          6           0       -4.837976   -0.404027   -0.514084
     29          6           0       -6.043105   -1.088791   -0.559321
     30          6           0       -7.195151   -0.292344   -0.639372
     31          6           0       -7.080684    1.087093   -0.659041
     32          6           0       -5.790449    1.665215   -0.604941
     33          7           0       -5.610933    3.028892   -0.576612
     34          7           0       -4.682092    0.913500   -0.540721
     35          6           0        1.736871   -2.119303   -1.002300
     36          6           0        0.914270   -1.568352   -2.138668
     37          6           0        2.905556   -2.852508   -1.240902
     38          1           0        5.287154   -4.727043    0.331428
     39          1           0        5.817385   -3.371287   -0.673494
     40          1           0        4.903976   -4.699077   -1.398408
     41          1           0        3.894060   -3.495640    1.936564
     42          1           0        0.698201   -2.496222    3.024970
     43          1           0        1.710704   -1.053811    3.064713
     44          1           0        2.391012   -2.619459    3.534158
     45          1           0        2.335413    4.707715    0.102178
     46          1           0        4.585111    5.463305   -0.550430
     47          1           0        6.387075    3.825571   -0.993368
     48          1           0        7.137452    1.341322   -0.244752
     49          1           0        6.606745    1.229049   -1.906187
     50          1           0        5.683714   -0.504860    0.273841
     51          1           0        5.200422   -0.613109   -1.271111
     52          1           0        3.657158    0.629074   -0.105777
     53          1           0        0.552823    3.951340    0.983418
     54          1           0       -1.585723    2.836277    1.603073
     55          1           0       -3.457989   -1.396806    1.914775
     56          1           0       -1.821045   -1.818299    1.300666
     57          1           0       -6.072397   -2.170691   -0.545807
     58          1           0       -8.176805   -0.755737   -0.685134
     59          1           0       -7.960445    1.721984   -0.710438
     60          1           0       -4.663527    3.335497   -0.754137
     61          1           0       -6.333519    3.610326   -0.976300
     62          1           0       -0.158170   -1.706960   -1.978730
     63          1           0        1.079043   -0.488341   -2.243350
     64          1           0        1.195523   -2.044047   -3.083263
     65          1           0        3.194336   -3.044452   -2.272697
 ---------------------------------------------------------------------

 The electronic state is 1-A.
 Alpha  occ. eigenvalues --  -89.08801 -19.19488 -19.14146 -19.13547 -19.13507
 Alpha  occ. eigenvalues --  -14.36039 -14.34399 -14.33205 -14.31236 -10.29702
 Alpha  occ. eigenvalues --  -10.28837 -10.28044 -10.25546 -10.24699 -10.23560
 Alpha  occ. eigenvalues --  -10.22236 -10.22046 -10.21335 -10.21261 -10.21200
 Alpha  occ. eigenvalues --  -10.20976 -10.20686 -10.20187 -10.19928 -10.19555
 Alpha  occ. eigenvalues --  -10.19496 -10.19479 -10.19439 -10.19301 -10.19197
 Alpha  occ. eigenvalues --  -10.19086 -10.18402 -10.18280 -10.17985 -10.17816
 Alpha  occ. eigenvalues --  -10.17640 -10.16392  -8.11746  -6.08160  -6.08105
 Alpha  occ. eigenvalues --   -6.08069  -1.09215  -1.08895  -1.04239  -0.98947
 Alpha  occ. eigenvalues --   -0.98298  -0.95089  -0.91009  -0.88464  -0.85709
 Alpha  occ. eigenvalues --   -0.85214  -0.81821  -0.81748  -0.79469  -0.78526
 Alpha  occ. eigenvalues --   -0.77760  -0.77076  -0.76341  -0.75179  -0.73887
 Alpha  occ. eigenvalues --   -0.69534  -0.68659  -0.68158  -0.67204  -0.66569
 Alpha  occ. eigenvalues --   -0.66163  -0.64167  -0.63057  -0.61453  -0.59631
 Alpha  occ. eigenvalues --   -0.58935  -0.57854  -0.57470  -0.56468  -0.54423
 Alpha  occ. eigenvalues --   -0.54104  -0.53598  -0.52150  -0.50660  -0.50064
 Alpha  occ. eigenvalues --   -0.49883  -0.49234  -0.49078  -0.48262  -0.47531
 Alpha  occ. eigenvalues --   -0.47058  -0.46576  -0.45961  -0.45089  -0.44941
 Alpha  occ. eigenvalues --   -0.43953  -0.43589  -0.43012  -0.42776  -0.42553
 Alpha  occ. eigenvalues --   -0.42167  -0.41936  -0.41921  -0.41386  -0.41178
 Alpha  occ. eigenvalues --   -0.40732  -0.39977  -0.39882  -0.39818  -0.39680
 Alpha  occ. eigenvalues --   -0.39569  -0.39280  -0.39178  -0.38748  -0.38046
 Alpha  occ. eigenvalues --   -0.37612  -0.36998  -0.35929  -0.35099  -0.34472
 Alpha  occ. eigenvalues --   -0.34421  -0.33890  -0.33712  -0.32612  -0.32469
 Alpha  occ. eigenvalues --   -0.32195  -0.31241  -0.30426  -0.30033  -0.29320
 Alpha  occ. eigenvalues --   -0.29029  -0.27776  -0.26623  -0.26140  -0.25271
 Alpha  occ. eigenvalues --   -0.24722  -0.23797  -0.23311  -0.23213  -0.22713
 Alpha  occ. eigenvalues --   -0.22391
 Alpha virt. eigenvalues --   -0.07624  -0.04493  -0.01730  -0.01500  -0.01231
 Alpha virt. eigenvalues --    0.00463   0.00574   0.00842   0.03972   0.06638
 Alpha virt. eigenvalues --    0.07371   0.08107   0.08845   0.09406   0.09845

 Mulliken charges:
               1
     1  C   -0.542983
     2  C    0.214060
     3  C   -0.285843
     4  C    0.188537
     5  C   -0.532249
     6  C    0.211592
     7  O   -0.587709
     8  C    0.529664
     9  N   -0.575793
    10  C    0.275492
    11  C    0.098393
    12  C   -0.185209
    13  C   -0.136075
    14  C   -0.171597
    15  C    0.157690
    16  C   -0.223175
    17  N   -0.712779
    18  C   -0.238930
    19  C   -0.176557
    20  C   -0.135993
    21  C    0.039630
    22  C    0.422028
    23  O   -0.456383
    24  C   -0.591134
    25  S    1.135116
    26  O   -0.524844
    27  O   -0.541809
    28  C    0.027452
    29  C   -0.156108
    30  C   -0.102452
    31  C   -0.160220
    32  C    0.485657
    33  N   -0.764412
    34  N   -0.495206
    35  C    0.202803
    36  C   -0.555513
    37  C   -0.289557
    38  H    0.153217
    39  H    0.183560
    40  H    0.156713
    41  H    0.116250
    42  H    0.164639
    43  H    0.166741
    44  H    0.155112
    45  H    0.130242
    46  H    0.131633
    47  H    0.125810
    48  H    0.158061
    49  H    0.160431
    50  H    0.306235
    51  H    0.311138
    52  H    0.154212
    53  H    0.142269
    54  H    0.172612
    55  H    0.215019
    56  H    0.246437
    57  H    0.185514
    58  H    0.153254
    59  H    0.139072
    60  H    0.345320
    61  H    0.331685
    62  H    0.214020
    63  H    0.170148
    64  H    0.146353
    65  H    0.118721
 Sum of Mulliken charges =  -0.00000

 Dipole moment (field-independent basis, Debye):
    X=             -2.1639    Y=              4.5867    Z=              0.2687  Tot=              5.0787
 Quadrupole moment (field-independent basis, Debye-Ang):
   XX=           -180.4246   YY=           -204.0355   ZZ=           -222.2047
   XY=            -11.8025   XZ=              8.7396   YZ=            -11.8473

 Normal termination of Gaussian 16 at Fri Nov  4 22:57:35 2022.
