 Gaussian 16, Revision B.01,
 Gaussian 16:  ES64L-G16RevB.01 20-Dec-2017

 -------------------------------------------------------------------
 #p b3lyp/6-31g(d) 6D 10F nosymm GFInput td=(50-50,nstate=2) SCF=XQC
 -------------------------------------------------------------------

 ------------------------------
 Gaussian input prepared by ASE
 ------------------------------
 Symbolic Z-matrix:
 Charge =  0 Multiplicity = 1

                          Input orientation:
 ---------------------------------------------------------------------
 Center     Atomic      Atomic             Coordinates (Angstroms)
 Number     Number       Type             X           Y           Z
 ---------------------------------------------------------------------
      1          6           0        7.497780    2.055222   -0.816621
      2          6           0        7.218655    0.915070    0.155052
      3          8           0        6.936710   -0.340007   -0.471193
      4          6           0        5.655424   -0.501755   -1.022413
      5          6           0        5.155852   -1.883282   -0.543932
      6          8           0        3.800982   -2.142005   -0.931909
      7          6           0        2.754701   -1.697025   -0.136093
      8          6           0        2.898297   -0.937693    1.029256
      9          6           0        1.766834   -0.553109    1.746263
     10          6           0        0.484816   -0.913916    1.318728
     11          8           0       -0.543992   -0.500157    2.125042
     12          6           0       -1.895519   -0.599987    1.682809
     13          6           0       -2.269801    0.581069    0.767133
     14          7           0       -3.685565    0.628910    0.445675
     15          6           0       -4.590830    1.260342    1.323201
     16          6           0       -4.226016    1.768917    2.576922
     17          6           0       -5.161142    2.413736    3.394548
     18          6           0       -6.481576    2.550072    2.982978
     19          6           0       -6.866010    2.034844    1.741181
     20          6           0       -5.935202    1.406563    0.927913
     21          8           0       -6.382859    0.954478   -0.296908
     22          6           0       -5.547604    0.139986   -1.033925
     23          6           0       -6.098238   -0.477316   -2.146828
     24          6           0       -5.307459   -1.289616   -2.965371
     25          6           0       -3.968843   -1.478141   -2.642764
     26          6           0       -3.419339   -0.864285   -1.511607
     27          6           0       -4.192941   -0.036238   -0.688255
     28          6           0        0.347613   -1.675545    0.150986
     29          6           0        1.478487   -2.061631   -0.566614
     30          6           0        5.686526   -0.372480   -2.566998
     31          8           0        6.577360    0.172974   -3.166187
     32          8           0        4.613836   -0.882391   -3.209800
     33          1           0        7.792523    2.949066   -0.252961
     34          1           0        6.619404    2.303958   -1.419221
     35          1           0        8.302876    1.783682   -1.503666
     36          1           0        6.392072    1.178580    0.835824
     37          1           0        8.101077    0.717677    0.772039
     38          1           0        4.957648    0.267731   -0.652586
     39          1           0        5.276418   -1.958596    0.539631
     40          1           0        5.749741   -2.675512   -1.006962
     41          1           0        3.873641   -0.634471    1.392069
     42          1           0        1.864257    0.036431    2.652227
     43          1           0       -2.494676   -0.564675    2.595805
     44          1           0       -2.096697   -1.562074    1.198603
     45          1           0       -1.986850    1.513151    1.264803
     46          1           0       -1.694529    0.545588   -0.161674
     47          1           0       -3.207044    1.668724    2.931858
     48          1           0       -4.840706    2.801409    4.357085
     49          1           0       -7.212772    3.046810    3.613101
     50          1           0       -7.885854    2.119355    1.379251
     51          1           0       -7.147402   -0.300368   -2.361656
     52          1           0       -5.741823   -1.764480   -3.839543
     53          1           0       -3.335722   -2.106721   -3.262082
     54          1           0       -2.373719   -1.033610   -1.283986
     55          1           0       -0.626251   -1.991007   -0.204905
     56          1           0        1.378656   -2.659654   -1.467254
     57          1           0        4.034794   -1.356601   -2.574895
 ---------------------------------------------------------------------

 SCF Done:  E(RB3LYP) =  -1473.77147801     A.U. after   15 cycles

 Excitation energies and oscillator strengths:

 Excited state symmetry could not be determined.
 Excited State   1:      Triplet-?Sym    2.8642 eV  432.87 nm  f=0.0000  <S**2>=2.000
     110 ->119         0.10504
     111 ->122        -0.14705
     113 ->118         0.13949
     115 ->117         0.66458
 This state for optimization and/or second-order correction.
 Total Energy, E(TD-HF/TD-DFT) =  -1473.66621916
 Copying the excited state density for this state as the 1-particle RhoCI density.

 Excited state symmetry could not be determined.
 Excited State   2:      Triplet-?Sym    3.4538 eV  358.98 nm  f=0.0000  <S**2>=2.000
     111 ->118         0.11882
     115 ->118         0.49137
     115 ->119         0.45478
     115 ->120         0.13905

 Excited state symmetry could not be determined.
 Excited State   3:      Singlet-?Sym    3.6780 eV  337.09 nm  f=0.0167  <S**2>=0.000
     115 ->117         0.69622

 Excited state symmetry could not be determined.
 Excited State   4:      Singlet-?Sym    3.7529 eV  330.37 nm  f=0.0004  <S**2>=0.000
     115 ->116         0.70557

 Alpha  occ. eigenvalues --  -19.20990 -19.19714 -19.19159 -19.18276 -19.16314
 Alpha  occ. eigenvalues --  -19.12896 -14.38378 -10.31230 -10.26658 -10.26626
 Alpha  occ. eigenvalues --  -10.26626 -10.26357 -10.25862 -10.25567 -10.25533
 Alpha  occ. eigenvalues --  -10.24512 -10.24438 -10.24226 -10.24141 -10.21328
 Alpha  occ. eigenvalues --  -10.21079 -10.20958 -10.20642 -10.19860 -10.19744
 Alpha  occ. eigenvalues --  -10.19361 -10.19324 -10.19281 -10.19265 -10.19109
 Alpha  occ. eigenvalues --  -10.19068 -10.17422  -1.09817  -1.09091  -1.08237
 Alpha  occ. eigenvalues --   -1.07631  -1.04759  -1.00901  -0.97549  -0.87136
 Alpha  occ. eigenvalues --   -0.87080  -0.84311  -0.80466  -0.78951  -0.77216
 Alpha  occ. eigenvalues --   -0.76976  -0.76367  -0.75884  -0.73885  -0.73485
 Alpha  occ. eigenvalues --   -0.71000  -0.68331  -0.66269  -0.65174  -0.63820
 Alpha  occ. eigenvalues --   -0.62431  -0.61787  -0.60768  -0.60213  -0.59907
 Alpha  occ. eigenvalues --   -0.58044  -0.57005  -0.56889  -0.54622  -0.53520
 Alpha  occ. eigenvalues --   -0.52524  -0.51296  -0.50467  -0.50219  -0.49551
 Alpha  occ. eigenvalues --   -0.48333  -0.48039  -0.47463  -0.47408  -0.46756
 Alpha  occ. eigenvalues --   -0.46127  -0.45019  -0.44481  -0.44346  -0.44176
 Alpha  occ. eigenvalues --   -0.44005  -0.43841  -0.43380  -0.43018  -0.42642
 Alpha  occ. eigenvalues --   -0.42420  -0.41797  -0.40501  -0.39943  -0.39347
 Alpha  occ. eigenvalues --   -0.39162  -0.38619  -0.38364  -0.38133  -0.37727
 Alpha  occ. eigenvalues --   -0.37238  -0.36500  -0.36359  -0.36234  -0.35739
 Alpha  occ. eigenvalues --   -0.34664  -0.33804  -0.33744  -0.32584  -0.32254
 Alpha  occ. eigenvalues --   -0.30967  -0.30654  -0.27925  -0.27317  -0.26189
 Alpha  occ. eigenvalues --   -0.26079  -0.25739  -0.23442  -0.22255  -0.17979
 Alpha virt. eigenvalues --   -0.02588  -0.01556  -0.00525  -0.00238   0.00145
 Alpha virt. eigenvalues --    0.01119   0.03036   0.05394   0.06341   0.07597
 Alpha virt. eigenvalues --    0.08492   0.09741   0.10222   0.10464   0.11039

 Mulliken charges:
               1
     1  C   -0.444406
     2  C   -0.036284
     3  O   -0.465202
     4  C    0.007982
     5  C   -0.080462
     6  O   -0.565880
     7  C    0.363010
     8  C   -0.182692
     9  C   -0.188246
    10  C    0.375552
    11  O   -0.530283
    12  C   -0.050569
    13  C   -0.192979
    14  N   -0.635992
    15  C    0.345803
    16  C   -0.210999
    17  C   -0.138021
    18  C   -0.136164
    19  C   -0.202524
    20  C    0.321798
    21  O   -0.577675
    22  C    0.322465
    23  C   -0.201639
    24  C   -0.137104
    25  C   -0.138572
    26  C   -0.208146
    27  C    0.345290
    28  C   -0.195097
    29  C   -0.185987
    30  C    0.594057
    31  O   -0.440061
    32  O   -0.590017
    33  H    0.135585
    34  H    0.156198
    35  H    0.180740
    36  H    0.119512
    37  H    0.152296
    38  H    0.157825
    39  H    0.174504
    40  H    0.187059
    41  H    0.146132
    42  H    0.147906
    43  H    0.173661
    44  H    0.157636
    45  H    0.176595
    46  H    0.176021
    47  H    0.137363
    48  H    0.130496
    49  H    0.131646
    50  H    0.145022
    51  H    0.145357
    52  H    0.132389
    53  H    0.129080
    54  H    0.130102
    55  H    0.149347
    56  H    0.149770
    57  H    0.436801
 Sum of Mulliken charges =  -0.00000

 Dipole moment (field-independent basis, Debye):
    X=             -2.1089    Y=             -0.5076    Z=              4.3489  Tot=              4.8599
 Quadrupole moment (field-independent basis, Debye-Ang):
   XX=           -205.6711   YY=           -182.1081   ZZ=           -196.0293
   XY=              2.0119   XZ=             27.4878   YZ=              9.2680

 Normal termination of Gaussian 16 at Sat Nov  5 09:32:42 2022.
