 Gaussian 16, Revision B.01,
 Gaussian 16:  ES64L-G16RevB.01 20-Dec-2017

 -----------------------------
 #p b3lyp/6-31g(d) opt SCF=XQC
 -----------------------------

 ------------------------------
 Gaussian input prepared by ASE
 ------------------------------
 Symbolic Z-matrix:
 Charge =  0 Multiplicity = 1

 SCF Done:  E(RB3LYP) =  -1473.76600279     A.U. after   15 cycles
 SCF Done:  E(RB3LYP) =  -1473.77024621     A.U. after   12 cycles
 SCF Done:  E(RB3LYP) =  -1473.76979434     A.U. after   12 cycles
 SCF Done:  E(RB3LYP) =  -1473.77044812     A.U. after   13 cycles
 SCF Done:  E(RB3LYP) =  -1473.77117049     A.U. after   12 cycles
 SCF Done:  E(RB3LYP) =  -1473.77133233     A.U. after   11 cycles
 SCF Done:  E(RB3LYP) =  -1473.77141657     A.U. after   10 cycles
 SCF Done:  E(RB3LYP) =  -1473.77137155     A.U. after   11 cycles
 SCF Done:  E(RB3LYP) =  -1473.77131336     A.U. after   11 cycles
 SCF Done:  E(RB3LYP) =  -1473.77142811     A.U. after   11 cycles
 SCF Done:  E(RB3LYP) =  -1473.77147462     A.U. after    9 cycles
 SCF Done:  E(RB3LYP) =  -1473.77147616     A.U. after   10 cycles
 SCF Done:  E(RB3LYP) =  -1473.77147655     A.U. after    8 cycles
 SCF Done:  E(RB3LYP) =  -1473.77147796     A.U. after   10 cycles
 SCF Done:  E(RB3LYP) =  -1473.77147941     A.U. after   10 cycles
 SCF Done:  E(RB3LYP) =  -1473.77148020     A.U. after    9 cycles
 SCF Done:  E(RB3LYP) =  -1473.77148061     A.U. after    9 cycles
 SCF Done:  E(RB3LYP) =  -1473.77148074     A.U. after    8 cycles
 SCF Done:  E(RB3LYP) =  -1473.77148078     A.U. after    7 cycles
 SCF Done:  E(RB3LYP) =  -1473.77148077     A.U. after    6 cycles
 Optimization completed.
    -- Stationary point found.

                         Standard orientation:
 ---------------------------------------------------------------------
 Center     Atomic      Atomic             Coordinates (Angstroms)
 Number     Number       Type             X           Y           Z
 ---------------------------------------------------------------------
      1          6           0        7.452217   -1.686208    2.380002
      2          6           0        7.154024   -1.954114    0.909862
      3          8           0        7.091684   -0.779478    0.095467
      4          6           0        5.924577   -0.004059    0.186501
      5          6           0        5.503679    0.306629   -1.267270
      6          8           0        4.250675    0.997825   -1.340538
      7          6           0        3.062511    0.280720   -1.348396
      8          6           0        2.961901   -1.108822   -1.228839
      9          6           0        1.707134   -1.714726   -1.254376
     10          6           0        0.541763   -0.954429   -1.397205
     11          8           0       -0.627543   -1.669209   -1.437146
     12          6           0       -1.885536   -1.005070   -1.344749
     13          6           0       -2.242842   -0.691893    0.120753
     14          7           0       -3.596114   -0.190059    0.284557
     15          6           0       -4.675790   -1.088952    0.405191
     16          6           0       -4.545885   -2.477316    0.266898
     17          6           0       -5.647802   -3.325192    0.427050
     18          6           0       -6.903300   -2.802522    0.713514
     19          6           0       -7.053551   -1.418049    0.839877
     20          6           0       -5.958170   -0.580879    0.692127
     21          8           0       -6.179446    0.770502    0.864673
     22          6           0       -5.170252    1.644206    0.514796
     23          6           0       -5.492208    2.992673    0.486639
     24          6           0       -4.515448    3.943901    0.176350
     25          6           0       -3.224151    3.519596   -0.113523
     26          6           0       -2.905555    2.157055   -0.097072
     27          6           0       -3.867669    1.191382    0.225172
     28          6           0        0.649241    0.437153   -1.517512
     29          6           0        1.903664    1.044369   -1.493030
     30          6           0        6.161679    1.273101    1.032708
     31          8           0        7.069154    1.387178    1.816039
     32          8           0        5.248033    2.253424    0.865112
     33          1           0        7.572408   -2.641256    2.906291
     34          1           0        6.647857   -1.125975    2.865476
     35          1           0        8.369970   -1.102343    2.483816
     36          1           0        6.216813   -2.525092    0.801486
     37          1           0        7.955158   -2.551343    0.462862
     38          1           0        5.107469   -0.561523    0.673677
     39          1           0        5.476009   -0.621055   -1.844291
     40          1           0        6.234019    0.973589   -1.732562
     41          1           0        3.840274   -1.733194   -1.112677
     42          1           0        1.615002   -2.792165   -1.162424
     43          1           0       -2.608830   -1.711424   -1.759127
     44          1           0       -1.918014   -0.103619   -1.966737
     45          1           0       -2.128735   -1.605270    0.711714
     46          1           0       -1.540805    0.032408    0.541957
     47          1           0       -3.582831   -2.915426    0.032567
     48          1           0       -5.508051   -4.396783    0.319298
     49          1           0       -7.762856   -3.454045    0.836529
     50          1           0       -8.014891   -0.966441    1.063696
     51          1           0       -6.512625    3.278658    0.721518
     52          1           0       -4.771168    4.998782    0.163015
     53          1           0       -2.449439    4.239772   -0.359851
     54          1           0       -1.891213    1.857031   -0.331377
     55          1           0       -0.227427    1.060925   -1.647698
     56          1           0        1.993521    2.121529   -1.595025
     57          1           0        4.635341    2.021417    0.134325
 ---------------------------------------------------------------------

 The electronic state is 1-A.
 Alpha  occ. eigenvalues --  -19.20991 -19.19714 -19.19159 -19.18276 -19.16314
 Alpha  occ. eigenvalues --  -19.12896 -14.38377 -10.31230 -10.26658 -10.26626
 Alpha  occ. eigenvalues --  -10.26626 -10.26357 -10.25862 -10.25567 -10.25533
 Alpha  occ. eigenvalues --  -10.24512 -10.24438 -10.24226 -10.24141 -10.21328
 Alpha  occ. eigenvalues --  -10.21079 -10.20958 -10.20642 -10.19860 -10.19744
 Alpha  occ. eigenvalues --  -10.19361 -10.19324 -10.19281 -10.19265 -10.19109
 Alpha  occ. eigenvalues --  -10.19068 -10.17422  -1.09817  -1.09091  -1.08237
 Alpha  occ. eigenvalues --   -1.07631  -1.04759  -1.00901  -0.97549  -0.87136
 Alpha  occ. eigenvalues --   -0.87080  -0.84311  -0.80466  -0.78951  -0.77216
 Alpha  occ. eigenvalues --   -0.76976  -0.76367  -0.75884  -0.73885  -0.73485
 Alpha  occ. eigenvalues --   -0.71000  -0.68331  -0.66269  -0.65174  -0.63820
 Alpha  occ. eigenvalues --   -0.62431  -0.61787  -0.60768  -0.60213  -0.59907
 Alpha  occ. eigenvalues --   -0.58044  -0.57005  -0.56889  -0.54622  -0.53520
 Alpha  occ. eigenvalues --   -0.52524  -0.51296  -0.50467  -0.50219  -0.49551
 Alpha  occ. eigenvalues --   -0.48333  -0.48039  -0.47463  -0.47407  -0.46756
 Alpha  occ. eigenvalues --   -0.46127  -0.45019  -0.44481  -0.44346  -0.44176
 Alpha  occ. eigenvalues --   -0.44005  -0.43841  -0.43380  -0.43018  -0.42642
 Alpha  occ. eigenvalues --   -0.42420  -0.41797  -0.40501  -0.39943  -0.39347
 Alpha  occ. eigenvalues --   -0.39162  -0.38619  -0.38364  -0.38133  -0.37727
 Alpha  occ. eigenvalues --   -0.37238  -0.36500  -0.36359  -0.36234  -0.35739
 Alpha  occ. eigenvalues --   -0.34664  -0.33804  -0.33744  -0.32584  -0.32254
 Alpha  occ. eigenvalues --   -0.30967  -0.30654  -0.27925  -0.27317  -0.26189
 Alpha  occ. eigenvalues --   -0.26079  -0.25739  -0.23442  -0.22255  -0.17979
 Alpha virt. eigenvalues --   -0.02588  -0.01556  -0.00525  -0.00238   0.00145
 Alpha virt. eigenvalues --    0.01119   0.03036   0.05394   0.06341   0.07597
 Alpha virt. eigenvalues --    0.08492   0.09741   0.10222   0.10464   0.11039

 Mulliken charges:
               1
     1  C   -0.444409
     2  C   -0.036281
     3  O   -0.465207
     4  C    0.008005
     5  C   -0.080482
     6  O   -0.565866
     7  C    0.363000
     8  C   -0.182689
     9  C   -0.188244
    10  C    0.375546
    11  O   -0.530280
    12  C   -0.050576
    13  C   -0.192977
    14  N   -0.636002
    15  C    0.345807
    16  C   -0.211003
    17  C   -0.138019
    18  C   -0.136165
    19  C   -0.202526
    20  C    0.321787
    21  O   -0.577668
    22  C    0.322470
    23  C   -0.201641
    24  C   -0.137108
    25  C   -0.138566
    26  C   -0.208154
    27  C    0.345304
    28  C   -0.195098
    29  C   -0.185981
    30  C    0.594037
    31  O   -0.440051
    32  O   -0.590013
    33  H    0.135585
    34  H    0.156199
    35  H    0.180739
    36  H    0.119513
    37  H    0.152296
    38  H    0.157823
    39  H    0.174507
    40  H    0.187061
    41  H    0.146128
    42  H    0.147905
    43  H    0.173661
    44  H    0.157638
    45  H    0.176595
    46  H    0.176021
    47  H    0.137365
    48  H    0.130496
    49  H    0.131647
    50  H    0.145021
    51  H    0.145357
    52  H    0.132389
    53  H    0.129078
    54  H    0.130107
    55  H    0.149347
    56  H    0.149769
    57  H    0.436799
 Sum of Mulliken charges =  -0.00000

 Dipole moment (field-independent basis, Debye):
    X=             -2.6436    Y=             -3.1802    Z=             -2.5528  Tot=              4.8599
 Quadrupole moment (field-independent basis, Debye-Ang):
   XX=           -213.9090   YY=           -176.3421   ZZ=           -193.5711
   XY=            -20.1396   XZ=            -13.7890   YZ=             -8.9843

 Normal termination of Gaussian 16 at Fri Nov  4 22:05:26 2022.
