 Gaussian 16, Revision B.01,
 Gaussian 16:  ES64L-G16RevB.01 20-Dec-2017

 -------------------------------------------------------------------
 #p b3lyp/6-31g(d) 6D 10F nosymm GFInput td=(50-50,nstate=2) SCF=XQC
 -------------------------------------------------------------------

 ------------------------------
 Gaussian input prepared by ASE
 ------------------------------
 Symbolic Z-matrix:
 Charge =  0 Multiplicity = 1

                          Input orientation:
 ---------------------------------------------------------------------
 Center     Atomic      Atomic             Coordinates (Angstroms)
 Number     Number       Type             X           Y           Z
 ---------------------------------------------------------------------
      1          6           0        4.343478    0.281281   -3.230298
      2          6           0        5.195281    0.242396   -1.981207
      3          6           0        6.589017    0.171554   -2.111976
      4          6           0        7.434801    0.103257   -1.010566
      5          6           0        6.889129    0.093283    0.279850
      6          6           0        7.731809    0.014178    1.468529
      7          7           0        7.364955   -0.015841    2.720847
      8          6           0        8.549180   -0.092869    3.434734
      9          6           0        9.595219   -0.106627    2.570964
     10          8           0        9.087841   -0.038312    1.300535
     11          6           0        5.497626    0.161685    0.427891
     12          6           0        4.642327    0.244219   -0.677147
     13          6           0        3.173281    0.310431   -0.425967
     14          6           0        2.552590   -0.644204    0.393300
     15          6           0        1.186597   -0.576572    0.664123
     16          6           0        0.395273    0.447289    0.132943
     17          6           0       -1.083566    0.509053    0.434800
     18          6           0       -1.993321    0.248173   -0.774568
     19          8           0       -1.619906    0.456605   -1.912621
     20          6           0       -3.392343   -0.320394   -0.497929
     21          7           0       -4.157016   -0.321132   -1.734833
     22          6           0       -4.152330    0.461605    0.609809
     23          6           0       -5.448150   -0.178947    1.027225
     24          6           0       -5.634082   -0.937146    2.157720
     25          7           0       -6.945851   -1.364913    2.236195
     26          6           0       -7.647278   -0.874369    1.153766
     27          6           0       -8.995219   -1.019952    0.807850
     28          6           0       -9.429265   -0.395243   -0.354994
     29          6           0       -8.541660    0.353450   -1.155602
     30          6           0       -7.203227    0.493084   -0.811265
     31          6           0       -6.732154   -0.124916    0.362710
     32          6           0        1.012621    1.406497   -0.680543
     33          6           0        2.375916    1.338576   -0.954613
     34          1           0        4.070562    1.307154   -3.509333
     35          1           0        4.887528   -0.147979   -4.077903
     36          1           0        3.408781   -0.272788   -3.104496
     37          1           0        7.020161    0.158357   -3.110301
     38          1           0        8.509864    0.049316   -1.147111
     39          1           0        8.560554   -0.132513    4.514785
     40          1           0       10.668376   -0.156131    2.661337
     41          1           0        5.082357    0.166846    1.430396
     42          1           0        3.145434   -1.452751    0.812283
     43          1           0        0.731123   -1.333948    1.298791
     44          1           0       -1.339005   -0.189691    1.239469
     45          1           0       -1.357048    1.507219    0.810702
     46          1           0       -3.198796   -1.335706   -0.093165
     47          1           0       -3.529640   -0.473691   -2.521223
     48          1           0       -4.864154   -1.049746   -1.722743
     49          1           0       -4.335480    1.473948    0.229261
     50          1           0       -3.512912    0.555788    1.495199
     51          1           0       -4.925733   -1.201975    2.931819
     52          1           0       -7.337632   -1.907369    2.989768
     53          1           0       -9.677863   -1.598071    1.425684
     54          1           0      -10.470435   -0.486823   -0.652469
     55          1           0       -8.914200    0.826380   -2.060289
     56          1           0       -6.517476    1.048298   -1.443331
     57          1           0        0.420959    2.212571   -1.103604
     58          1           0        2.833105    2.108127   -1.569672
 ---------------------------------------------------------------------

 SCF Done:  E(RB3LYP) =  -1396.73783814     A.U. after   15 cycles

 Excitation energies and oscillator strengths:

 Excited state symmetry could not be determined.
 Excited State   1:      Triplet-?Sym    2.9224 eV  424.26 nm  f=0.0000  <S**2>=2.000
     106 ->123        -0.10859
     112 ->118        -0.15336
     114 ->116         0.64560
 This state for optimization and/or second-order correction.
 Total Energy, E(TD-HF/TD-DFT) =  -1396.63044238
 Copying the excited state density for this state as the 1-particle RhoCI density.

 Excited state symmetry could not be determined.
 Excited State   2:      Triplet-?Sym    3.2178 eV  385.31 nm  f=0.0000  <S**2>=2.000
     113 ->122         0.16335
     115 ->117        -0.14252
     115 ->119         0.63939

 Excited state symmetry could not be determined.
 Excited State   3:      Singlet-?Sym    4.1000 eV  302.40 nm  f=0.0001  <S**2>=0.000
     115 ->116         0.69723
     115 ->117        -0.10675

 Excited state symmetry could not be determined.
 Excited State   4:      Singlet-?Sym    4.2159 eV  294.09 nm  f=0.0134  <S**2>=0.000
     109 ->117        -0.17050
     110 ->117        -0.13003
     112 ->117         0.10324
     115 ->116         0.10954
     115 ->117         0.57331
     115 ->118         0.25738

 Alpha  occ. eigenvalues --  -19.22340 -19.14558 -14.37812 -14.32520 -14.30570
 Alpha  occ. eigenvalues --  -10.27919 -10.27367 -10.24295 -10.22401 -10.21718
 Alpha  occ. eigenvalues --  -10.21450 -10.21335 -10.20442 -10.20333 -10.20116
 Alpha  occ. eigenvalues --  -10.19824 -10.19776 -10.19572 -10.19376 -10.19201
 Alpha  occ. eigenvalues --  -10.18891 -10.18870 -10.18812 -10.18711 -10.18701
 Alpha  occ. eigenvalues --  -10.18550 -10.18432 -10.18064 -10.18063 -10.17930
 Alpha  occ. eigenvalues --  -10.17824 -10.17498 -10.17272  -1.12709  -1.04664
 Alpha  occ. eigenvalues --   -0.97591  -0.91531  -0.88301  -0.86991  -0.85161
 Alpha  occ. eigenvalues --   -0.83101  -0.80376  -0.79540  -0.78628  -0.75695
 Alpha  occ. eigenvalues --   -0.74964  -0.74121  -0.73748  -0.72794  -0.71305
 Alpha  occ. eigenvalues --   -0.69716  -0.68434  -0.64823  -0.63052  -0.61652
 Alpha  occ. eigenvalues --   -0.61130  -0.60821  -0.59851  -0.58672  -0.58107
 Alpha  occ. eigenvalues --   -0.55870  -0.55322  -0.53882  -0.53296  -0.52890
 Alpha  occ. eigenvalues --   -0.50408  -0.49652  -0.49033  -0.47889  -0.47697
 Alpha  occ. eigenvalues --   -0.47209  -0.46921  -0.46539  -0.46322  -0.45694
 Alpha  occ. eigenvalues --   -0.44187  -0.43500  -0.43452  -0.43042  -0.42679
 Alpha  occ. eigenvalues --   -0.42131  -0.41965  -0.41814  -0.41535  -0.41084
 Alpha  occ. eigenvalues --   -0.40676  -0.40414  -0.40030  -0.39277  -0.38459
 Alpha  occ. eigenvalues --   -0.38265  -0.37575  -0.36966  -0.36325  -0.35894
 Alpha  occ. eigenvalues --   -0.35466  -0.35124  -0.34548  -0.34259  -0.33463
 Alpha  occ. eigenvalues --   -0.32931  -0.32729  -0.32648  -0.31628  -0.28383
 Alpha  occ. eigenvalues --   -0.27548  -0.26969  -0.26239  -0.25365  -0.24517
 Alpha  occ. eigenvalues --   -0.23243  -0.22761  -0.21725  -0.21423  -0.19700
 Alpha virt. eigenvalues --   -0.03799  -0.01931  -0.01710  -0.00429   0.00248
 Alpha virt. eigenvalues --    0.01501   0.03177   0.03911   0.06390   0.07615
 Alpha virt. eigenvalues --    0.07786   0.08579   0.10038   0.10963   0.11052

 Mulliken charges:
               1
     1  C   -0.535355
     2  C    0.151701
     3  C   -0.196587
     4  C   -0.169242
     5  C    0.097523
     6  C    0.477298
     7  N   -0.476501
     8  C   -0.023859
     9  C    0.068996
    10  O   -0.447996
    11  C   -0.218161
    12  C    0.016002
    13  C    0.065840
    14  C   -0.165046
    15  C   -0.189174
    16  C    0.192717
    17  C   -0.474078
    18  C    0.465527
    19  O   -0.444236
    20  C   -0.045400
    21  N   -0.734246
    22  C   -0.338289
    23  C    0.064469
    24  C   -0.005566
    25  N   -0.689053
    26  C    0.311040
    27  C   -0.165033
    28  C   -0.149766
    29  C   -0.143905
    30  C   -0.210709
    31  C    0.064725
    32  C   -0.159352
    33  C   -0.169003
    34  H    0.165192
    35  H    0.154652
    36  H    0.176468
    37  H    0.126644
    38  H    0.146746
    39  H    0.149930
    40  H    0.164893
    41  H    0.165499
    42  H    0.136970
    43  H    0.121379
    44  H    0.160975
    45  H    0.187803
    46  H    0.131628
    47  H    0.320899
    48  H    0.310263
    49  H    0.161430
    50  H    0.137963
    51  H    0.142436
    52  H    0.326039
    53  H    0.118906
    54  H    0.121774
    55  H    0.121003
    56  H    0.155495
    57  H    0.136746
    58  H    0.132989
 Sum of Mulliken charges =  -0.00000

 Dipole moment (field-independent basis, Debye):
    X=              0.0344    Y=             -2.3273    Z=              2.7628  Tot=              3.6126
 Quadrupole moment (field-independent basis, Debye-Ang):
   XX=           -161.5933   YY=           -186.2604   ZZ=           -177.0427
   XY=             13.4636   XZ=            -16.1741   YZ=             -7.3221

 Normal termination of Gaussian 16 at Sat Nov  5 09:45:34 2022.
