 Gaussian 16, Revision B.01,
 Gaussian 16:  ES64L-G16RevB.01 20-Dec-2017

 -----------------------------
 #p b3lyp/6-31g(d) opt SCF=XQC
 -----------------------------

 ------------------------------
 Gaussian input prepared by ASE
 ------------------------------
 Symbolic Z-matrix:
 Charge =  0 Multiplicity = 1

 SCF Done:  E(RB3LYP) =  -1396.72909802     A.U. after   15 cycles
 SCF Done:  E(RB3LYP) =  -1396.73673893     A.U. after   12 cycles
 SCF Done:  E(RB3LYP) =  -1396.73728457     A.U. after   12 cycles
 SCF Done:  E(RB3LYP) =  -1396.73698630     A.U. after   12 cycles
 SCF Done:  E(RB3LYP) =  -1396.73753918     A.U. after   11 cycles
 SCF Done:  E(RB3LYP) =  -1396.73769322     A.U. after   10 cycles
 SCF Done:  E(RB3LYP) =  -1396.73777902     A.U. after   11 cycles
 SCF Done:  E(RB3LYP) =  -1396.73780351     A.U. after   11 cycles
 SCF Done:  E(RB3LYP) =  -1396.73781811     A.U. after   10 cycles
 SCF Done:  E(RB3LYP) =  -1396.73783414     A.U. after   10 cycles
 SCF Done:  E(RB3LYP) =  -1396.73783568     A.U. after    9 cycles
 SCF Done:  E(RB3LYP) =  -1396.73783706     A.U. after    9 cycles
 SCF Done:  E(RB3LYP) =  -1396.73783757     A.U. after    9 cycles
 SCF Done:  E(RB3LYP) =  -1396.73783766     A.U. after    7 cycles
 SCF Done:  E(RB3LYP) =  -1396.73783772     A.U. after    7 cycles
 SCF Done:  E(RB3LYP) =  -1396.73783780     A.U. after    7 cycles
 SCF Done:  E(RB3LYP) =  -1396.73783782     A.U. after    6 cycles
 Optimization completed.
    -- Stationary point found.

                         Standard orientation:
 ---------------------------------------------------------------------
 Center     Atomic      Atomic             Coordinates (Angstroms)
 Number     Number       Type             X           Y           Z
 ---------------------------------------------------------------------
      1          6           0       -3.987504   -3.376972   -0.562219
      2          6           0       -4.868043   -2.162240   -0.371467
      3          6           0       -6.255261   -2.299745   -0.517553
      4          6           0       -7.125246   -1.223208   -0.385977
      5          6           0       -6.611329    0.050352   -0.108553
      6          6           0       -7.480015    1.214537    0.030672
      7          7           0       -7.143215    2.451887    0.274219
      8          6           0       -8.341601    3.145352    0.304793
      9          6           0       -9.365208    2.285215    0.074839
     10          8           0       -8.829218    1.037468   -0.103851
     11          6           0       -5.226691    0.205217    0.038651
     12          6           0       -4.347554   -0.877665   -0.079420
     13          6           0       -2.887894   -0.620125    0.089806
     14          6           0       -2.257950    0.390648   -0.651335
     15          6           0       -0.901787    0.665300   -0.480320
     16          6           0       -0.130057   -0.053466    0.438616
     17          6           0        1.338285    0.254730    0.614357
     18          6           0        2.285123   -0.857738    0.140865
     19          8           0        1.933391   -2.020599    0.095205
     20          6           0        3.694025   -0.444380   -0.307679
     21          7           0        4.488442   -1.640468   -0.537745
     22          6           0        4.401819    0.489412    0.713714
     23          6           0        5.706398    1.053622    0.220324
     24          6           0        5.888159    2.320262   -0.279717
     25          7           0        7.210336    2.508991   -0.634840
     26          6           0        7.922419    1.360591   -0.354840
     27          6           0        9.282325    1.076183   -0.520857
     28          6           0        9.725018   -0.183464   -0.135917
     29          6           0        8.834348   -1.137785    0.398249
     30          6           0        7.484166   -0.853516    0.558462
     31          6           0        7.003992    0.414971    0.181069
     32          6           0       -0.756945   -1.059479    1.185546
     33          6           0       -2.110323   -1.337199    1.013672
     34          1           0       -3.740018   -3.858640    0.392509
     35          1           0       -4.496933   -4.126026   -1.177109
     36          1           0       -3.039316   -3.122260   -1.044441
     37          1           0       -6.661177   -3.280834   -0.752946
     38          1           0       -8.194428   -1.364308   -0.505375
     39          1           0       -8.378207    4.209625    0.489704
     40          1           0      -10.438187    2.365136    0.006925
     41          1           0       -4.836489    1.191789    0.266488
     42          1           0       -2.835334    0.958340   -1.375982
     43          1           0       -0.438568    1.451596   -1.072812
     44          1           0        1.595628    1.191571    0.107320
     45          1           0        1.571146    0.419327    1.677896
     46          1           0        3.522432    0.159431   -1.223169
     47          1           0        3.885608   -2.388718   -0.872407
     48          1           0        5.217492   -1.464602   -1.222308
     49          1           0        4.562523   -0.090282    1.630955
     50          1           0        3.738257    1.324479    0.966672
     51          1           0        5.169666    3.120026   -0.403275
     52          1           0        7.600282    3.365712   -0.994830
     53          1           0        9.967348    1.812670   -0.933500
     54          1           0       10.775521   -0.437105   -0.250032
     55          1           0        9.213996   -2.114449    0.686177
     56          1           0        6.797103   -1.599207    0.945650
     57          1           0       -0.180566   -1.630665    1.906888
     58          1           0       -2.576118   -2.106882    1.622073
 ---------------------------------------------------------------------

 The electronic state is 1-A.
 Alpha  occ. eigenvalues --  -19.22340 -19.14558 -14.37812 -14.32520 -14.30570
 Alpha  occ. eigenvalues --  -10.27919 -10.27367 -10.24295 -10.22401 -10.21718
 Alpha  occ. eigenvalues --  -10.21450 -10.21335 -10.20442 -10.20333 -10.20116
 Alpha  occ. eigenvalues --  -10.19824 -10.19776 -10.19572 -10.19376 -10.19201
 Alpha  occ. eigenvalues --  -10.18891 -10.18870 -10.18812 -10.18711 -10.18701
 Alpha  occ. eigenvalues --  -10.18550 -10.18432 -10.18064 -10.18063 -10.17930
 Alpha  occ. eigenvalues --  -10.17824 -10.17498 -10.17272  -1.12709  -1.04664
 Alpha  occ. eigenvalues --   -0.97591  -0.91531  -0.88301  -0.86991  -0.85161
 Alpha  occ. eigenvalues --   -0.83101  -0.80376  -0.79540  -0.78628  -0.75695
 Alpha  occ. eigenvalues --   -0.74964  -0.74121  -0.73748  -0.72794  -0.71305
 Alpha  occ. eigenvalues --   -0.69716  -0.68434  -0.64823  -0.63052  -0.61652
 Alpha  occ. eigenvalues --   -0.61130  -0.60821  -0.59851  -0.58672  -0.58107
 Alpha  occ. eigenvalues --   -0.55870  -0.55322  -0.53882  -0.53296  -0.52890
 Alpha  occ. eigenvalues --   -0.50408  -0.49652  -0.49033  -0.47889  -0.47697
 Alpha  occ. eigenvalues --   -0.47209  -0.46921  -0.46539  -0.46322  -0.45694
 Alpha  occ. eigenvalues --   -0.44187  -0.43500  -0.43452  -0.43042  -0.42679
 Alpha  occ. eigenvalues --   -0.42131  -0.41965  -0.41814  -0.41535  -0.41084
 Alpha  occ. eigenvalues --   -0.40676  -0.40414  -0.40030  -0.39277  -0.38459
 Alpha  occ. eigenvalues --   -0.38265  -0.37575  -0.36966  -0.36325  -0.35894
 Alpha  occ. eigenvalues --   -0.35466  -0.35124  -0.34548  -0.34259  -0.33463
 Alpha  occ. eigenvalues --   -0.32931  -0.32729  -0.32648  -0.31628  -0.28383
 Alpha  occ. eigenvalues --   -0.27548  -0.26969  -0.26239  -0.25365  -0.24517
 Alpha  occ. eigenvalues --   -0.23244  -0.22761  -0.21725  -0.21423  -0.19700
 Alpha virt. eigenvalues --   -0.03799  -0.01931  -0.01710  -0.00429   0.00248
 Alpha virt. eigenvalues --    0.01501   0.03177   0.03911   0.06390   0.07615
 Alpha virt. eigenvalues --    0.07786   0.08579   0.10038   0.10963   0.11052

 Mulliken charges:
               1
     1  C   -0.535355
     2  C    0.151715
     3  C   -0.196584
     4  C   -0.169253
     5  C    0.097542
     6  C    0.477298
     7  N   -0.476504
     8  C   -0.023860
     9  C    0.069000
    10  O   -0.447993
    11  C   -0.218175
    12  C    0.015990
    13  C    0.065879
    14  C   -0.165062
    15  C   -0.189193
    16  C    0.192742
    17  C   -0.474083
    18  C    0.465517
    19  O   -0.444232
    20  C   -0.045384
    21  N   -0.734253
    22  C   -0.338306
    23  C    0.064494
    24  C   -0.005579
    25  N   -0.689047
    26  C    0.311045
    27  C   -0.165028
    28  C   -0.149778
    29  C   -0.143902
    30  C   -0.210701
    31  C    0.064710
    32  C   -0.159353
    33  C   -0.169032
    34  H    0.165192
    35  H    0.154652
    36  H    0.176469
    37  H    0.126644
    38  H    0.146744
    39  H    0.149930
    40  H    0.164893
    41  H    0.165498
    42  H    0.136971
    43  H    0.121380
    44  H    0.160976
    45  H    0.187802
    46  H    0.131627
    47  H    0.320901
    48  H    0.310265
    49  H    0.161431
    50  H    0.137964
    51  H    0.142436
    52  H    0.326039
    53  H    0.118906
    54  H    0.121774
    55  H    0.121003
    56  H    0.155495
    57  H    0.136746
    58  H    0.132989
 Sum of Mulliken charges =  -0.00000

 Dipole moment (field-independent basis, Debye):
    X=             -0.0294    Y=              3.1857    Z=             -1.7032  Tot=              3.6125
 Quadrupole moment (field-independent basis, Debye-Ang):
   XX=           -161.6069   YY=           -174.3367   ZZ=           -189.4604
   XY=             19.9033   XZ=             -9.2230   YZ=             -4.2023

 Normal termination of Gaussian 16 at Fri Nov  4 21:51:48 2022.
