 Gaussian 16, Revision B.01,
 Gaussian 16:  ES64L-G16RevB.01 20-Dec-2017

 -----------------------------
 #p b3lyp/6-31g(d) opt SCF=XQC
 -----------------------------

 ------------------------------
 Gaussian input prepared by ASE
 ------------------------------
 Symbolic Z-matrix:
 Charge =  0 Multiplicity = 1

 SCF Done:  E(RB3LYP) =  -1434.82326199     A.U. after   15 cycles
 SCF Done:  E(RB3LYP) =  -1434.83196443     A.U. after   13 cycles
 SCF Done:  E(RB3LYP) =  -1434.83219328     A.U. after   12 cycles
 SCF Done:  E(RB3LYP) =  -1434.83298385     A.U. after   12 cycles
 SCF Done:  E(RB3LYP) =  -1434.83344584     A.U. after   12 cycles
 SCF Done:  E(RB3LYP) =  -1434.83337955     A.U. after   11 cycles
 SCF Done:  E(RB3LYP) =  -1434.83367892     A.U. after   11 cycles
 SCF Done:  E(RB3LYP) =  -1434.83373024     A.U. after   11 cycles
 SCF Done:  E(RB3LYP) =  -1434.83379859     A.U. after   11 cycles
 SCF Done:  E(RB3LYP) =  -1434.83383536     A.U. after   11 cycles
 SCF Done:  E(RB3LYP) =  -1434.83396570     A.U. after   11 cycles
 SCF Done:  E(RB3LYP) =  -1434.83396678     A.U. after   10 cycles
 SCF Done:  E(RB3LYP) =  -1434.83396772     A.U. after   10 cycles
 SCF Done:  E(RB3LYP) =  -1434.83396806     A.U. after    8 cycles
 SCF Done:  E(RB3LYP) =  -1434.83396820     A.U. after    8 cycles
 SCF Done:  E(RB3LYP) =  -1434.83396843     A.U. after    8 cycles
 SCF Done:  E(RB3LYP) =  -1434.83396859     A.U. after    8 cycles
 SCF Done:  E(RB3LYP) =  -1434.83396877     A.U. after    9 cycles
 SCF Done:  E(RB3LYP) =  -1434.83396888     A.U. after    8 cycles
 SCF Done:  E(RB3LYP) =  -1434.83396893     A.U. after    7 cycles
 Optimization completed.
    -- Stationary point found.

                         Standard orientation:
 ---------------------------------------------------------------------
 Center     Atomic      Atomic             Coordinates (Angstroms)
 Number     Number       Type             X           Y           Z
 ---------------------------------------------------------------------
      1          6           0        1.314645   -2.923081    0.032233
      2          6           0       -0.115648   -2.495585   -0.358855
      3          6           0       -1.062943   -3.178956    0.659838
      4          6           0       -0.357713   -3.019162   -1.823829
      5          6           0       -0.300730   -4.479332   -1.943153
      6          7           0       -0.262541   -5.636821   -2.026398
      7          6           0       -0.280986   -0.972174   -0.375001
      8          6           0        0.672358    0.028999   -0.231347
      9          6           0        2.134817   -0.018678    0.040139
     10          6           0        2.623781   -0.028384    1.355295
     11          6           0        3.993033    0.011022    1.610912
     12          6           0        4.912007    0.071426    0.554146
     13          6           0        6.397741    0.097798    0.754919
     14          8           0        7.188361   -0.225075   -0.099464
     15          8           0        6.845852    0.511196    1.972557
     16          6           0        4.431346    0.080567   -0.761960
     17          6           0        3.063275    0.051963   -1.012706
     18          6           0        0.012480    1.296958   -0.399842
     19          6           0        0.480948    2.626140   -0.365275
     20          6           0       -0.444267    3.630262   -0.577062
     21          6           0       -1.811802    3.335129   -0.812129
     22          6           0       -2.302781    2.035029   -0.847244
     23          6           0       -1.356165    1.022403   -0.643038
     24          7           0       -1.524556   -0.353555   -0.630096
     25          6           0       -2.849736   -0.923705   -0.841694
     26          6           0       -3.808977   -0.813618    0.339315
     27          6           0       -3.383018   -0.476702    1.626798
     28          6           0       -4.298442   -0.413924    2.680270
     29          6           0       -5.647403   -0.688963    2.458350
     30          6           0       -6.080433   -1.025205    1.173418
     31          6           0       -5.166982   -1.083708    0.122235
     32          6           0       -2.466193    4.636563   -0.977101
     33          7           0       -1.681732    5.653417   -0.875655
     34          6           0       -0.327177    5.136936   -0.614324
     35          1           0        1.567758   -2.587816    1.040571
     36          1           0        2.070595   -2.536191   -0.654293
     37          1           0        1.374138   -4.015972    0.017416
     38          1           0       -0.841012   -2.812011    1.667113
     39          1           0       -2.124865   -3.009859    0.478703
     40          1           0       -0.894180   -4.260532    0.650797
     41          1           0        0.407968   -2.587005   -2.478798
     42          1           0       -1.321774   -2.691786   -2.222830
     43          1           0        1.921124   -0.075728    2.182326
     44          1           0        4.332164   -0.043817    2.643391
     45          1           0        6.113811    0.885542    2.488605
     46          1           0        5.148902    0.113677   -1.575205
     47          1           0        2.701101    0.078341   -2.036713
     48          1           0        1.531018    2.836840   -0.180495
     49          1           0       -3.356161    1.825925   -1.004377
     50          1           0       -2.751436   -1.969309   -1.130664
     51          1           0       -3.288161   -0.416797   -1.710675
     52          1           0       -2.335604   -0.254269    1.805533
     53          1           0       -3.953438   -0.146416    3.675388
     54          1           0       -6.358288   -0.638585    3.278380
     55          1           0       -7.130014   -1.237512    0.988818
     56          1           0       -5.512424   -1.341833   -0.877312
     57          1           0       -3.530094    4.770656   -1.171442
     58          1           0        0.347576    5.498495   -1.402152
     59          1           0        0.039187    5.565613    0.328363
 ---------------------------------------------------------------------

 The electronic state is 1-A.
 Alpha  occ. eigenvalues --  -19.19869 -19.13631 -14.40012 -14.34040 -14.32423
 Alpha  occ. eigenvalues --  -10.32443 -10.25751 -10.24992 -10.24799 -10.24780
 Alpha  occ. eigenvalues --  -10.23547 -10.23230 -10.22726 -10.22517 -10.22402
 Alpha  occ. eigenvalues --  -10.22330 -10.21782 -10.21582 -10.21524 -10.21371
 Alpha  occ. eigenvalues --  -10.21230 -10.20713 -10.20692 -10.20598 -10.20519
 Alpha  occ. eigenvalues --  -10.20458 -10.20444 -10.20367 -10.20168 -10.20083
 Alpha  occ. eigenvalues --  -10.19937 -10.19769 -10.19692 -10.19221  -1.10172
 Alpha  occ. eigenvalues --   -1.01994  -1.00298  -0.94130  -0.91124  -0.88567
 Alpha  occ. eigenvalues --   -0.87410  -0.85841  -0.85052  -0.82183  -0.79355
 Alpha  occ. eigenvalues --   -0.77200  -0.77072  -0.76021  -0.75668  -0.75430
 Alpha  occ. eigenvalues --   -0.73215  -0.71477  -0.70590  -0.69293  -0.66068
 Alpha  occ. eigenvalues --   -0.65046  -0.63207  -0.62295  -0.61659  -0.60587
 Alpha  occ. eigenvalues --   -0.59578  -0.58439  -0.57941  -0.56619  -0.55635
 Alpha  occ. eigenvalues --   -0.53489  -0.52310  -0.51931  -0.50576  -0.49776
 Alpha  occ. eigenvalues --   -0.48982  -0.48546  -0.48000  -0.47890  -0.47049
 Alpha  occ. eigenvalues --   -0.46588  -0.46222  -0.45677  -0.45416  -0.45039
 Alpha  occ. eigenvalues --   -0.44834  -0.44492  -0.44355  -0.43741  -0.43593
 Alpha  occ. eigenvalues --   -0.43342  -0.42259  -0.41192  -0.40728  -0.39998
 Alpha  occ. eigenvalues --   -0.39727  -0.39581  -0.38787  -0.37884  -0.37729
 Alpha  occ. eigenvalues --   -0.37498  -0.37186  -0.36896  -0.36734  -0.36490
 Alpha  occ. eigenvalues --   -0.35963  -0.35781  -0.35489  -0.34525  -0.34370
 Alpha  occ. eigenvalues --   -0.32971  -0.32776  -0.31908  -0.31175  -0.28253
 Alpha  occ. eigenvalues --   -0.27908  -0.27670  -0.26615  -0.26519  -0.26139
 Alpha  occ. eigenvalues --   -0.25932  -0.23087  -0.21562
 Alpha virt. eigenvalues --   -0.05732  -0.04838  -0.02884  -0.02081  -0.01557
 Alpha virt. eigenvalues --   -0.00663   0.01539   0.02845   0.03486   0.03975
 Alpha virt. eigenvalues --    0.05470   0.06568   0.06822   0.08083   0.09116

 Mulliken charges:
               1
     1  C   -0.471662
     2  C    0.002516
     3  C   -0.468809
     4  C   -0.349106
     5  C    0.365369
     6  N   -0.482032
     7  C    0.317774
     8  C   -0.140734
     9  C    0.062631
    10  C   -0.155687
    11  C   -0.203715
    12  C    0.060931
    13  C    0.548621
    14  O   -0.443202
    15  O   -0.573610
    16  C   -0.156534
    17  C   -0.162812
    18  C    0.122290
    19  C   -0.275652
    20  C    0.091776
    21  C    0.090330
    22  C   -0.244372
    23  C    0.294791
    24  N   -0.601198
    25  C   -0.245380
    26  C    0.141232
    27  C   -0.163667
    28  C   -0.131771
    29  C   -0.125965
    30  C   -0.129517
    31  C   -0.177066
    32  C    0.025099
    33  N   -0.383885
    34  C   -0.230872
    35  H    0.159674
    36  H    0.163239
    37  H    0.171958
    38  H    0.158063
    39  H    0.162047
    40  H    0.174306
    41  H    0.200099
    42  H    0.192982
    43  H    0.141414
    44  H    0.135677
    45  H    0.411047
    46  H    0.172755
    47  H    0.144414
    48  H    0.134906
    49  H    0.144209
    50  H    0.174944
    51  H    0.176004
    52  H    0.144454
    53  H    0.136837
    54  H    0.136848
    55  H    0.137717
    56  H    0.127371
    57  H    0.141941
    58  H    0.176129
    59  H    0.174852
 Sum of Mulliken charges =  -0.00000

 Dipole moment (field-independent basis, Debye):
    X=             -5.5230    Y=              0.9819    Z=              2.4356  Tot=              6.1156
 Quadrupole moment (field-independent basis, Debye-Ang):
   XX=           -224.1714   YY=           -245.4839   ZZ=           -183.2556
   XY=             15.8670   XZ=              6.2695   YZ=             -3.6904

 Normal termination of Gaussian 16 at Fri Nov  4 22:18:36 2022.
