 Gaussian 16, Revision B.01,
 Gaussian 16:  ES64L-G16RevB.01 20-Dec-2017

 -------------------------------------------------------------------
 #p b3lyp/6-31g(d) 6D 10F nosymm GFInput td=(50-50,nstate=2) SCF=XQC
 -------------------------------------------------------------------

 ------------------------------
 Gaussian input prepared by ASE
 ------------------------------
 Symbolic Z-matrix:
 Charge =  0 Multiplicity = 1

                          Input orientation:
 ---------------------------------------------------------------------
 Center     Atomic      Atomic             Coordinates (Angstroms)
 Number     Number       Type             X           Y           Z
 ---------------------------------------------------------------------
      1          6           0        1.714531   -2.380358   -1.338110
      2          6           0        0.276311   -1.851485   -1.520473
      3          6           0       -0.662626   -2.968648   -0.998512
      4          6           0        0.081605   -1.597805   -3.062101
      5          6           0        0.196880   -2.811356   -3.876708
      6          7           0        0.281076   -3.779066   -4.512805
      7          6           0        0.052844   -0.519218   -0.796935
      8          6           0        0.964176    0.306982   -0.149853
      9          6           0        2.422134    0.168574    0.114662
     10          6           0        2.886782   -0.470833    1.274004
     11          6           0        4.248560   -0.527833    1.563923
     12          6           0        5.183857    0.064014    0.703776
     13          6           0        6.663524    0.025317    0.943563
     14          8           0        7.481590    0.180854    0.068421
     15          8           0        7.072885   -0.198467    2.222894
     16          6           0        4.727545    0.703596   -0.456382
     17          6           0        3.366440    0.767664   -0.736739
     18          6           0        0.259250    1.478835    0.298912
     19          6           0        0.675547    2.632493    0.994003
     20          6           0       -0.283532    3.588930    1.267012
     21          6           0       -1.634141    3.412929    0.870289
     22          6           0       -2.074036    2.284347    0.188124
     23          6           0       -1.093110    1.324725   -0.094899
     24          7           0       -1.208679    0.114416   -0.760916
     25          6           0       -2.506830   -0.311836   -1.269895
     26          6           0       -3.491203   -0.816740   -0.219597
     27          6           0       -3.102320   -1.141906    1.082556
     28          6           0       -4.038747   -1.624640    2.000064
     29          6           0       -5.371814   -1.789090    1.625260
     30          6           0       -5.767834   -1.464757    0.325413
     31          6           0       -4.833586   -0.979462   -0.588081
     32          6           0       -2.334938    4.612385    1.338652
     33          7           0       -1.592160    5.468749    1.950685
     34          6           0       -0.223794    4.923855    1.973815
     35          1           0        1.935934   -2.574740   -0.286249
     36          1           0        2.467573   -1.688812   -1.721717
     37          1           0        1.816266   -3.324667   -1.882261
     38          1           0       -0.473575   -3.135649    0.066794
     39          1           0       -1.726745   -2.758701   -1.111008
     40          1           0       -0.452262   -3.903232   -1.528293
     41          1           0        0.842046   -0.881975   -3.395756
     42          1           0       -0.886812   -1.140928   -3.283962
     43          1           0        2.171338   -0.933673    1.947702
     44          1           0        4.570458   -1.072082    2.449477
     45          1           0        6.317603   -0.142278    2.830114
     46          1           0        5.458166    1.147650   -1.124483
     47          1           0        3.022459    1.282386   -1.629597
     48          1           0        1.713154    2.751660    1.294596
     49          1           0       -3.115521    2.152974   -0.087692
     50          1           0       -2.363088   -1.079932   -2.028723
     51          1           0       -2.948328    0.544255   -1.795718
     52          1           0       -2.067707   -1.009618    1.383510
     53          1           0       -3.722687   -1.869389    3.010535
     54          1           0       -6.099107   -2.163494    2.340250
     55          1           0       -6.804893   -1.585401    0.024210
     56          1           0       -5.150362   -0.724377   -1.597852
     57          1           0       -3.399444    4.798216    1.197488
     58          1           0        0.450966    5.640844    1.486665
     59          1           0        0.108375    4.845803    3.017950
 ---------------------------------------------------------------------

 SCF Done:  E(RB3LYP) =  -1434.83397413     A.U. after   15 cycles

 Excitation energies and oscillator strengths:

 Excited state symmetry could not be determined.
 Excited State   1:      Triplet-?Sym    2.7786 eV  446.21 nm  f=0.0000  <S**2>=2.000
     117 ->120         0.12966
     117 ->124         0.12139
     118 ->120         0.64568
 This state for optimization and/or second-order correction.
 Total Energy, E(TD-HF/TD-DFT) =  -1434.73186276
 Copying the excited state density for this state as the 1-particle RhoCI density.

 Excited state symmetry could not be determined.
 Excited State   2:      Triplet-?Sym    3.4521 eV  359.16 nm  f=0.0000  <S**2>=2.000
     111 ->119        -0.11518
     112 ->119         0.15543
     112 ->121         0.28029
     113 ->119         0.51566
     114 ->119         0.11853
     115 ->119         0.18508
     118 ->119        -0.15042

 Excited state symmetry could not be determined.
 Excited State   3:      Singlet-?Sym    3.6673 eV  338.08 nm  f=0.0024  <S**2>=0.000
     118 ->119         0.70168

 Excited state symmetry could not be determined.
 Excited State   4:      Singlet-?Sym    4.1230 eV  300.71 nm  f=0.1413  <S**2>=0.000
     117 ->120        -0.29951
     117 ->124         0.11096
     118 ->120         0.59490
     118 ->124         0.10589

 Alpha  occ. eigenvalues --  -19.19869 -19.13631 -14.40012 -14.34040 -14.32423
 Alpha  occ. eigenvalues --  -10.32443 -10.25751 -10.24992 -10.24799 -10.24780
 Alpha  occ. eigenvalues --  -10.23547 -10.23230 -10.22726 -10.22517 -10.22402
 Alpha  occ. eigenvalues --  -10.22330 -10.21782 -10.21582 -10.21524 -10.21371
 Alpha  occ. eigenvalues --  -10.21230 -10.20713 -10.20692 -10.20598 -10.20519
 Alpha  occ. eigenvalues --  -10.20458 -10.20444 -10.20367 -10.20168 -10.20083
 Alpha  occ. eigenvalues --  -10.19937 -10.19769 -10.19692 -10.19221  -1.10172
 Alpha  occ. eigenvalues --   -1.01994  -1.00298  -0.94130  -0.91124  -0.88567
 Alpha  occ. eigenvalues --   -0.87410  -0.85841  -0.85052  -0.82183  -0.79355
 Alpha  occ. eigenvalues --   -0.77200  -0.77072  -0.76021  -0.75668  -0.75430
 Alpha  occ. eigenvalues --   -0.73215  -0.71477  -0.70590  -0.69293  -0.66068
 Alpha  occ. eigenvalues --   -0.65046  -0.63207  -0.62295  -0.61659  -0.60587
 Alpha  occ. eigenvalues --   -0.59578  -0.58440  -0.57941  -0.56619  -0.55635
 Alpha  occ. eigenvalues --   -0.53489  -0.52310  -0.51931  -0.50576  -0.49776
 Alpha  occ. eigenvalues --   -0.48982  -0.48546  -0.48000  -0.47890  -0.47049
 Alpha  occ. eigenvalues --   -0.46588  -0.46222  -0.45677  -0.45416  -0.45039
 Alpha  occ. eigenvalues --   -0.44834  -0.44492  -0.44355  -0.43741  -0.43593
 Alpha  occ. eigenvalues --   -0.43342  -0.42259  -0.41192  -0.40728  -0.39998
 Alpha  occ. eigenvalues --   -0.39727  -0.39581  -0.38787  -0.37884  -0.37729
 Alpha  occ. eigenvalues --   -0.37498  -0.37186  -0.36896  -0.36734  -0.36490
 Alpha  occ. eigenvalues --   -0.35963  -0.35781  -0.35489  -0.34525  -0.34370
 Alpha  occ. eigenvalues --   -0.32971  -0.32776  -0.31908  -0.31175  -0.28253
 Alpha  occ. eigenvalues --   -0.27908  -0.27670  -0.26615  -0.26519  -0.26139
 Alpha  occ. eigenvalues --   -0.25932  -0.23087  -0.21562
 Alpha virt. eigenvalues --   -0.05732  -0.04838  -0.02884  -0.02082  -0.01557
 Alpha virt. eigenvalues --   -0.00663   0.01539   0.02845   0.03486   0.03975
 Alpha virt. eigenvalues --    0.05470   0.06568   0.06822   0.08083   0.09116

 Mulliken charges:
               1
     1  C   -0.471668
     2  C    0.002543
     3  C   -0.468806
     4  C   -0.349090
     5  C    0.365360
     6  N   -0.482034
     7  C    0.317746
     8  C   -0.140737
     9  C    0.062606
    10  C   -0.155681
    11  C   -0.203704
    12  C    0.060919
    13  C    0.548626
    14  O   -0.443201
    15  O   -0.573609
    16  C   -0.156544
    17  C   -0.162787
    18  C    0.122309
    19  C   -0.275665
    20  C    0.091781
    21  C    0.090337
    22  C   -0.244373
    23  C    0.294788
    24  N   -0.601199
    25  C   -0.245387
    26  C    0.141226
    27  C   -0.163667
    28  C   -0.131771
    29  C   -0.125967
    30  C   -0.129520
    31  C   -0.177059
    32  C    0.025101
    33  N   -0.383882
    34  C   -0.230882
    35  H    0.159675
    36  H    0.163240
    37  H    0.171959
    38  H    0.158061
    39  H    0.162047
    40  H    0.174306
    41  H    0.200097
    42  H    0.192980
    43  H    0.141411
    44  H    0.135676
    45  H    0.411047
    46  H    0.172755
    47  H    0.144414
    48  H    0.134906
    49  H    0.144208
    50  H    0.174945
    51  H    0.176006
    52  H    0.144458
    53  H    0.136837
    54  H    0.136850
    55  H    0.137717
    56  H    0.127370
    57  H    0.141941
    58  H    0.176130
    59  H    0.174854
 Sum of Mulliken charges =  -0.00000

 Dipole moment (field-independent basis, Debye):
    X=             -5.6007    Y=             -0.4701    Z=              2.4108  Tot=              6.1156
 Quadrupole moment (field-independent basis, Debye-Ang):
   XX=           -228.8845   YY=           -227.0667   ZZ=           -200.2738
   XY=             10.8291   XZ=             13.6895   YZ=            -27.3810

 Normal termination of Gaussian 16 at Sat Nov  5 10:05:51 2022.
