 Gaussian 16, Revision B.01,
 Gaussian 16:  ES64L-G16RevB.01 20-Dec-2017

 -----------------------------
 #p b3lyp/6-31g(d) opt SCF=XQC
 -----------------------------

 ------------------------------
 Gaussian input prepared by ASE
 ------------------------------
 Symbolic Z-matrix:
 Charge =  0 Multiplicity = 1

 SCF Done:  E(RB3LYP) =  -1814.94833812     A.U. after   15 cycles
 SCF Done:  E(RB3LYP) =  -1814.95878022     A.U. after   13 cycles
 SCF Done:  E(RB3LYP) =  -1814.95962188     A.U. after   12 cycles
 SCF Done:  E(RB3LYP) =  -1814.95924782     A.U. after   13 cycles
 SCF Done:  E(RB3LYP) =  -1814.96005271     A.U. after   12 cycles
 SCF Done:  E(RB3LYP) =  -1814.96017702     A.U. after   11 cycles
 SCF Done:  E(RB3LYP) =  -1814.96031129     A.U. after   12 cycles
 SCF Done:  E(RB3LYP) =  -1814.96034447     A.U. after   11 cycles
 SCF Done:  E(RB3LYP) =  -1814.96038356     A.U. after   11 cycles
 SCF Done:  E(RB3LYP) =  -1814.96039731     A.U. after   11 cycles
 SCF Done:  E(RB3LYP) =  -1814.96044541     A.U. after   10 cycles
 SCF Done:  E(RB3LYP) =  -1814.96044551     A.U. after    8 cycles
 SCF Done:  E(RB3LYP) =  -1814.96044599     A.U. after    8 cycles
 SCF Done:  E(RB3LYP) =  -1814.96044757     A.U. after   10 cycles
 SCF Done:  E(RB3LYP) =  -1814.96044829     A.U. after   10 cycles
 SCF Done:  E(RB3LYP) =  -1814.96044857     A.U. after   10 cycles
 SCF Done:  E(RB3LYP) =  -1814.96044857     A.U. after    9 cycles
 SCF Done:  E(RB3LYP) =  -1814.96044873     A.U. after    9 cycles
 SCF Done:  E(RB3LYP) =  -1814.96044876     A.U. after    7 cycles
 SCF Done:  E(RB3LYP) =  -1814.96044879     A.U. after    7 cycles
 Optimization completed.
    -- Stationary point found.

                         Standard orientation:
 ---------------------------------------------------------------------
 Center     Atomic      Atomic             Coordinates (Angstroms)
 Number     Number       Type             X           Y           Z
 ---------------------------------------------------------------------
      1          6           0        8.170201   -2.119596    1.988199
      2          6           0        7.784770   -1.832142    0.524683
      3          6           0        9.045549   -1.326036   -0.216761
      4          6           0        7.307409   -3.156561   -0.118067
      5          6           0        6.669026   -0.778645    0.408233
      6          6           0        6.193595   -0.401206   -0.860760
      7          6           0        5.189219    0.549782   -1.015286
      8          6           0        4.633025    1.146412    0.119227
      9         16           0        3.308766    2.346955   -0.057130
     10          8           0        3.395709    2.901073   -1.409270
     11          8           0        3.303986    3.180894    1.145095
     12          7           0        1.853696    1.495643    0.003242
     13          6           0        1.531079    0.533213   -1.057825
     14          6           0        0.055291    0.189754   -1.034627
     15          6           0       -0.911956    1.204720   -1.005847
     16          6           0       -2.267152    0.890768   -1.012276
     17          6           0       -2.678819   -0.450530   -1.045718
     18          6           0       -4.111729   -0.852997   -1.052305
     19          8           0       -4.504981   -1.999778   -1.092976
     20          8           0       -4.945730    0.225278   -1.007362
     21          6           0       -6.353534   -0.048360   -1.015045
     22          6           0       -6.945829   -0.055020    0.379959
     23          6           0       -6.199849    0.286682    1.507377
     24          6           0       -6.778942    0.281591    2.778176
     25          6           0       -8.121281   -0.061342    2.943636
     26          6           0       -8.886516   -0.399002    1.831318
     27          6           0       -8.305176   -0.396948    0.553479
     28          6           0       -9.108156   -0.740709   -0.584537
     29          7           0       -9.749840   -1.010904   -1.517111
     30          6           0       -1.716520   -1.467067   -1.072727
     31          6           0       -0.361794   -1.146162   -1.064015
     32          6           0        5.087217    0.802096    1.391538
     33          6           0        6.095833   -0.152730    1.525557
     34          1           0        8.552285   -1.225804    2.494200
     35          1           0        7.323351   -2.506780    2.566280
     36          1           0        8.961445   -2.876619    2.017016
     37          1           0        9.408840   -0.389140    0.220184
     38          1           0        9.849159   -2.068622   -0.145708
     39          1           0        8.851789   -1.146557   -1.279337
     40          1           0        8.095521   -3.915675   -0.049055
     41          1           0        6.418208   -3.543696    0.392494
     42          1           0        7.058457   -3.031996   -1.177051
     43          1           0        6.620360   -0.849760   -1.752922
     44          1           0        4.855608    0.849697   -2.003176
     45          1           0        1.667449    1.168295    0.948752
     46          1           0        2.129987   -0.386869   -0.985169
     47          1           0        1.787982    1.021102   -2.004014
     48          1           0       -0.591708    2.241722   -0.972023
     49          1           0       -3.009943    1.680294   -0.996072
     50          1           0       -6.534362   -1.003728   -1.514082
     51          1           0       -6.799809    0.750057   -1.616513
     52          1           0       -5.157522    0.559858    1.386320
     53          1           0       -6.176157    0.548860    3.641621
     54          1           0       -8.570847   -0.065393    3.931960
     55          1           0       -9.932600   -0.668160    1.936887
     56          1           0       -2.047895   -2.499883   -1.095784
     57          1           0        0.379726   -1.941340   -1.080766
     58          1           0        4.673220    1.294454    2.265683
     59          1           0        6.438584   -0.398283    2.524015
 ---------------------------------------------------------------------

 The electronic state is 1-A.
 Alpha  occ. eigenvalues --  -89.11498 -19.20495 -19.14611 -19.14502 -19.14458
 Alpha  occ. eigenvalues --  -14.37469 -14.33917 -10.32769 -10.26107 -10.24582
 Alpha  occ. eigenvalues --  -10.24200 -10.23145 -10.23087 -10.23076 -10.22188
 Alpha  occ. eigenvalues --  -10.22128 -10.22118 -10.21934 -10.21730 -10.21705
 Alpha  occ. eigenvalues --  -10.21666 -10.21632 -10.21281 -10.21146 -10.21074
 Alpha  occ. eigenvalues --  -10.21015 -10.20983 -10.20947 -10.20923 -10.20542
 Alpha  occ. eigenvalues --  -10.18966 -10.18879 -10.18825  -8.13982  -6.10478
 Alpha  occ. eigenvalues --   -6.10402  -6.10298  -1.11315  -1.11235  -1.02610
 Alpha  occ. eigenvalues --   -1.00478  -0.93451  -0.91120  -0.88407  -0.88151
 Alpha  occ. eigenvalues --   -0.87504  -0.83430  -0.80634  -0.79132  -0.78135
 Alpha  occ. eigenvalues --   -0.76900  -0.76700  -0.76355  -0.73424  -0.70641
 Alpha  occ. eigenvalues --   -0.70027  -0.69813  -0.66698  -0.65454  -0.64043
 Alpha  occ. eigenvalues --   -0.62752  -0.62611  -0.61253  -0.60856  -0.57455
 Alpha  occ. eigenvalues --   -0.56676  -0.56188  -0.55950  -0.54778  -0.51334
 Alpha  occ. eigenvalues --   -0.50641  -0.50572  -0.49663  -0.49101  -0.48447
 Alpha  occ. eigenvalues --   -0.47926  -0.47014  -0.46895  -0.46861  -0.46331
 Alpha  occ. eigenvalues --   -0.45882  -0.45492  -0.45294  -0.44586  -0.43969
 Alpha  occ. eigenvalues --   -0.43813  -0.43584  -0.43201  -0.42983  -0.42471
 Alpha  occ. eigenvalues --   -0.42005  -0.40984  -0.40094  -0.39158  -0.38668
 Alpha  occ. eigenvalues --   -0.38318  -0.38155  -0.37932  -0.37830  -0.37357
 Alpha  occ. eigenvalues --   -0.36888  -0.36592  -0.35890  -0.35480  -0.34920
 Alpha  occ. eigenvalues --   -0.34697  -0.34382  -0.33847  -0.33468  -0.33364
 Alpha  occ. eigenvalues --   -0.31922  -0.31392  -0.30797  -0.30571  -0.29323
 Alpha  occ. eigenvalues --   -0.28662  -0.27316  -0.27174  -0.27005  -0.26588
 Alpha  occ. eigenvalues --   -0.26430  -0.25841
 Alpha virt. eigenvalues --   -0.05894  -0.05423  -0.04069  -0.02427  -0.02234
 Alpha virt. eigenvalues --   -0.01881   0.03060   0.03862   0.05863   0.07384
 Alpha virt. eigenvalues --    0.07575   0.08156   0.08286   0.08750   0.09036

 Mulliken charges:
               1
     1  C   -0.460170
     2  C    0.012563
     3  C   -0.440905
     4  C   -0.440979
     5  C    0.184325
     6  C   -0.182858
     7  C   -0.150961
     8  C   -0.153857
     9  S    1.218007
    10  O   -0.549604
    11  O   -0.530080
    12  N   -0.663747
    13  C   -0.225410
    14  C    0.141118
    15  C   -0.166496
    16  C   -0.164431
    17  C    0.049551
    18  C    0.595001
    19  O   -0.475537
    20  O   -0.489016
    21  C   -0.120934
    22  C    0.134526
    23  C   -0.186476
    24  C   -0.112403
    25  C   -0.134130
    26  C   -0.136011
    27  C    0.093059
    28  C    0.226632
    29  N   -0.482786
    30  C   -0.151477
    31  C   -0.195066
    32  C   -0.153172
    33  C   -0.189893
    34  H    0.150356
    35  H    0.147007
    36  H    0.147984
    37  H    0.153364
    38  H    0.145430
    39  H    0.146223
    40  H    0.146362
    41  H    0.148338
    42  H    0.145032
    43  H    0.140421
    44  H    0.174048
    45  H    0.347325
    46  H    0.153154
    47  H    0.206938
    48  H    0.164596
    49  H    0.162000
    50  H    0.207569
    51  H    0.187542
    52  H    0.152231
    53  H    0.146170
    54  H    0.146800
    55  H    0.161346
    56  H    0.168377
    57  H    0.136205
    58  H    0.174689
    59  H    0.142109
 Sum of Mulliken charges =  -0.00000

 Dipole moment (field-independent basis, Debye):
    X=              4.8953    Y=             -3.2309    Z=              4.0162  Tot=              7.1086
 Quadrupole moment (field-independent basis, Debye-Ang):
   XX=           -207.1999   YY=           -220.3260   ZZ=           -191.5074
   XY=            -42.2879   XZ=            -29.5019   YZ=             -3.0571

 Normal termination of Gaussian 16 at Fri Nov  4 21:36:09 2022.
