 Gaussian 16, Revision B.01,
 Gaussian 16:  ES64L-G16RevB.01 20-Dec-2017

 -------------------------------------------------------------------
 #p b3lyp/6-31g(d) 6D 10F nosymm GFInput td=(50-50,nstate=2) SCF=XQC
 -------------------------------------------------------------------

 ------------------------------
 Gaussian input prepared by ASE
 ------------------------------
 Symbolic Z-matrix:
 Charge =  0 Multiplicity = 1

                          Input orientation:
 ---------------------------------------------------------------------
 Center     Atomic      Atomic             Coordinates (Angstroms)
 Number     Number       Type             X           Y           Z
 ---------------------------------------------------------------------
      1          6           0        7.626634   -1.678636    1.197115
      2          6           0        7.205519   -0.741484    0.049303
      3          6           0        8.390574    0.204051   -0.262235
      4          6           0        6.899421   -1.609242   -1.195040
      5          6           0        5.964712    0.097505    0.402566
      6          6           0        5.443190    1.004482   -0.537776
      7          6           0        4.325820    1.786894   -0.261472
      8          6           0        3.700042    1.669081    0.982297
      9         16           0        2.233625    2.641194    1.343797
     10          8           0        2.247320    3.803791    0.454376
     11          8           0        2.124720    2.754259    2.798506
     12          7           0        0.898691    1.718987    0.882181
     13          6           0        0.699410    1.388642   -0.534639
     14          6           0       -0.720698    0.918685   -0.777300
     15          6           0       -1.809089    1.668304   -0.308232
     16          6           0       -3.113382    1.251877   -0.554348
     17          6           0       -3.351231    0.071691   -1.275637
     18          6           0       -4.721354   -0.429247   -1.570731
     19          8           0       -4.965678   -1.436806   -2.200445
     20          8           0       -5.685604    0.381383   -1.047899
     21          6           0       -7.047205   -0.005641   -1.278344
     22          6           0       -7.631688   -0.775786   -0.111231
     23          6           0       -6.933459   -0.964580    1.080890
     24          6           0       -7.505238   -1.669697    2.142108
     25          6           0       -8.792827   -2.195681    2.031156
     26          6           0       -9.510644   -2.013114    0.852911
     27          6           0       -8.936262   -1.306828   -0.215769
     28          6           0       -9.690782   -1.120809   -1.421640
     29          7           0      -10.294349   -0.956682   -2.403080
     30          6           0       -2.267545   -0.680713   -1.744260
     31          6           0       -0.964599   -0.259514   -1.492741
     32          6           0        4.196293    0.786520    1.940650
     33          6           0        5.318325    0.011556    1.644954
     34          1           0        7.892767   -1.122570    2.103125
     35          1           0        6.836778   -2.394394    1.452185
     36          1           0        8.507747   -2.255201    0.895129
     37          1           0        8.632479    0.829626    0.604260
     38          1           0        9.282182   -0.379908   -0.519720
     39          1           0        8.173923    0.868916   -1.104755
     40          1           0        7.777754   -2.208082   -1.463473
     41          1           0        6.067446   -2.295827   -1.001025
     42          1           0        6.635013   -0.999428   -2.065187
     43          1           0        5.922138    1.113657   -1.506265
     44          1           0        3.955257    2.502229   -0.988212
     45          1           0        0.757037    0.943731    1.526189
     46          1           0        1.410546    0.628842   -0.891723
     47          1           0        0.890735    2.309870   -1.095035
     48          1           0       -1.623229    2.576972    0.256440
     49          1           0       -3.950498    1.839157   -0.194221
     50          1           0       -7.105876   -0.595750   -2.196382
     51          1           0       -7.592298    0.931537   -1.429894
     52          1           0       -5.934510   -0.553960    1.176892
     53          1           0       -6.939988   -1.806016    3.059838
     54          1           0       -9.236699   -2.744052    2.856489
     55          1           0      -10.513854   -2.412943    0.745267
     56          1           0       -2.464957   -1.592416   -2.298226
     57          1           0       -0.128027   -0.851512   -1.856231
     58          1           0        3.724413    0.725386    2.916114
     59          1           0        5.691058   -0.661397    2.408431
 ---------------------------------------------------------------------

 SCF Done:  E(RB3LYP) =  -1814.96044750     A.U. after   15 cycles

 Excitation energies and oscillator strengths:

 Excited state symmetry could not be determined.
 Excited State   1:      Triplet-?Sym    3.3926 eV  365.45 nm  f=0.0000  <S**2>=2.000
     105 ->133         0.10173
     118 ->124        -0.21036
     118 ->127         0.27901
     120 ->124         0.20182
     121 ->124         0.56017
     121 ->127         0.12457
 This state for optimization and/or second-order correction.
 Total Energy, E(TD-HF/TD-DFT) =  -1814.83577103
 Copying the excited state density for this state as the 1-particle RhoCI density.

 Excited state symmetry could not be determined.
 Excited State   2:      Triplet-?Sym    3.4349 eV  360.95 nm  f=0.0000  <S**2>=2.000
     115 ->123         0.12294
     119 ->123        -0.14869
     119 ->128         0.28290
     120 ->123         0.44653
     121 ->123        -0.13882
     122 ->123        -0.35783

 Excited state symmetry could not be determined.
 Excited State   3:      Singlet-?Sym    4.8580 eV  255.22 nm  f=0.0099  <S**2>=0.000
     116 ->123        -0.66353
     116 ->130        -0.12045
     122 ->123        -0.17938

 Excited state symmetry could not be determined.
 Excited State   4:      Singlet-?Sym    4.8868 eV  253.71 nm  f=0.0641  <S**2>=0.000
     116 ->123        -0.16124
     119 ->123        -0.40016
     119 ->128        -0.10500
     120 ->128         0.17116
     122 ->123         0.48093
     122 ->128        -0.13497

 Alpha  occ. eigenvalues --  -89.11498 -19.20495 -19.14611 -19.14502 -19.14458
 Alpha  occ. eigenvalues --  -14.37469 -14.33917 -10.32769 -10.26107 -10.24582
 Alpha  occ. eigenvalues --  -10.24200 -10.23145 -10.23087 -10.23076 -10.22188
 Alpha  occ. eigenvalues --  -10.22129 -10.22118 -10.21934 -10.21730 -10.21705
 Alpha  occ. eigenvalues --  -10.21666 -10.21632 -10.21281 -10.21146 -10.21074
 Alpha  occ. eigenvalues --  -10.21015 -10.20983 -10.20947 -10.20923 -10.20542
 Alpha  occ. eigenvalues --  -10.18966 -10.18878 -10.18825  -8.13982  -6.10478
 Alpha  occ. eigenvalues --   -6.10402  -6.10298  -1.11315  -1.11234  -1.02610
 Alpha  occ. eigenvalues --   -1.00478  -0.93451  -0.91120  -0.88407  -0.88151
 Alpha  occ. eigenvalues --   -0.87504  -0.83430  -0.80634  -0.79132  -0.78135
 Alpha  occ. eigenvalues --   -0.76900  -0.76700  -0.76355  -0.73424  -0.70641
 Alpha  occ. eigenvalues --   -0.70027  -0.69813  -0.66698  -0.65454  -0.64043
 Alpha  occ. eigenvalues --   -0.62751  -0.62611  -0.61253  -0.60856  -0.57455
 Alpha  occ. eigenvalues --   -0.56676  -0.56188  -0.55950  -0.54778  -0.51334
 Alpha  occ. eigenvalues --   -0.50641  -0.50572  -0.49663  -0.49101  -0.48447
 Alpha  occ. eigenvalues --   -0.47926  -0.47014  -0.46895  -0.46861  -0.46331
 Alpha  occ. eigenvalues --   -0.45881  -0.45492  -0.45294  -0.44586  -0.43969
 Alpha  occ. eigenvalues --   -0.43813  -0.43583  -0.43201  -0.42983  -0.42471
 Alpha  occ. eigenvalues --   -0.42005  -0.40984  -0.40094  -0.39158  -0.38668
 Alpha  occ. eigenvalues --   -0.38318  -0.38155  -0.37932  -0.37830  -0.37357
 Alpha  occ. eigenvalues --   -0.36888  -0.36592  -0.35890  -0.35480  -0.34920
 Alpha  occ. eigenvalues --   -0.34697  -0.34382  -0.33847  -0.33468  -0.33364
 Alpha  occ. eigenvalues --   -0.31922  -0.31392  -0.30797  -0.30571  -0.29323
 Alpha  occ. eigenvalues --   -0.28662  -0.27316  -0.27174  -0.27005  -0.26588
 Alpha  occ. eigenvalues --   -0.26430  -0.25841
 Alpha virt. eigenvalues --   -0.05894  -0.05424  -0.04069  -0.02427  -0.02234
 Alpha virt. eigenvalues --   -0.01881   0.03060   0.03862   0.05863   0.07384
 Alpha virt. eigenvalues --    0.07575   0.08156   0.08286   0.08750   0.09036

 Mulliken charges:
               1
     1  C   -0.460152
     2  C    0.012561
     3  C   -0.440905
     4  C   -0.440985
     5  C    0.184318
     6  C   -0.182859
     7  C   -0.150963
     8  C   -0.153841
     9  S    1.217980
    10  O   -0.549602
    11  O   -0.530077
    12  N   -0.663741
    13  C   -0.225410
    14  C    0.141106
    15  C   -0.166489
    16  C   -0.164434
    17  C    0.049547
    18  C    0.595022
    19  O   -0.475555
    20  O   -0.489017
    21  C   -0.120943
    22  C    0.134542
    23  C   -0.186476
    24  C   -0.112412
    25  C   -0.134117
    26  C   -0.136009
    27  C    0.093028
    28  C    0.226634
    29  N   -0.482786
    30  C   -0.151469
    31  C   -0.195058
    32  C   -0.153172
    33  C   -0.189886
    34  H    0.150353
    35  H    0.147003
    36  H    0.147982
    37  H    0.153364
    38  H    0.145430
    39  H    0.146223
    40  H    0.146362
    41  H    0.148339
    42  H    0.145032
    43  H    0.140421
    44  H    0.174048
    45  H    0.347325
    46  H    0.153154
    47  H    0.206937
    48  H    0.164594
    49  H    0.162003
    50  H    0.207573
    51  H    0.187544
    52  H    0.152235
    53  H    0.146170
    54  H    0.146799
    55  H    0.161347
    56  H    0.168376
    57  H    0.136206
    58  H    0.174688
    59  H    0.142111
 Sum of Mulliken charges =  -0.00000

 Dipole moment (field-independent basis, Debye):
    X=              5.2724    Y=             -4.2426    Z=              2.1754  Tot=              7.1085
 Quadrupole moment (field-independent basis, Debye-Ang):
   XX=           -204.7424   YY=           -217.0368   ZZ=           -207.0351
   XY=            -15.1319   XZ=            -46.1814   YZ=            -19.9968

 Normal termination of Gaussian 16 at Sat Nov  5 09:38:31 2022.
