 Gaussian 16, Revision B.01,
 Gaussian 16:  ES64L-G16RevB.01 20-Dec-2017

 -----------------------------
 #p b3lyp/6-31g(d) opt SCF=XQC
 -----------------------------

 ------------------------------
 Gaussian input prepared by ASE
 ------------------------------
 Symbolic Z-matrix:
 Charge =  0 Multiplicity = 1

 SCF Done:  E(RB3LYP) =  -1454.47569624     A.U. after   16 cycles
 SCF Done:  E(RB3LYP) =  -1454.48439834     A.U. after   15 cycles
 SCF Done:  E(RB3LYP) =  -1454.48755846     A.U. after   14 cycles
 SCF Done:  E(RB3LYP) =  -1454.49002163     A.U. after   15 cycles
 SCF Done:  E(RB3LYP) =  -1454.49084531     A.U. after   14 cycles
 SCF Done:  E(RB3LYP) =  -1454.49192815     A.U. after   12 cycles
 SCF Done:  E(RB3LYP) =  -1454.49278437     A.U. after   12 cycles
 SCF Done:  E(RB3LYP) =  -1454.49369591     A.U. after   13 cycles
 SCF Done:  E(RB3LYP) =  -1454.49397767     A.U. after   11 cycles
 SCF Done:  E(RB3LYP) =  -1454.49413082     A.U. after   11 cycles
 SCF Done:  E(RB3LYP) =  -1454.49490174     A.U. after   11 cycles
 SCF Done:  E(RB3LYP) =  -1454.49493752     A.U. after   10 cycles
 SCF Done:  E(RB3LYP) =  -1454.49496822     A.U. after   11 cycles
 SCF Done:  E(RB3LYP) =  -1454.49498281     A.U. after   10 cycles
 SCF Done:  E(RB3LYP) =  -1454.49499032     A.U. after   10 cycles
 SCF Done:  E(RB3LYP) =  -1454.49499213     A.U. after    9 cycles
 SCF Done:  E(RB3LYP) =  -1454.49499286     A.U. after    9 cycles
 SCF Done:  E(RB3LYP) =  -1454.49499307     A.U. after    7 cycles
 SCF Done:  E(RB3LYP) =  -1454.49499314     A.U. after    6 cycles
 SCF Done:  E(RB3LYP) =  -1454.49499318     A.U. after    6 cycles
 Optimization completed.
    -- Stationary point found.

                         Standard orientation:
 ---------------------------------------------------------------------
 Center     Atomic      Atomic             Coordinates (Angstroms)
 Number     Number       Type             X           Y           Z
 ---------------------------------------------------------------------
      1          6           0       -7.375253   -0.533506   -2.399849
      2          6           0       -6.978700   -1.751868   -2.034093
      3          6           0       -6.577309   -2.197058   -0.642590
      4          6           0       -6.546478   -1.113758    0.411634
      5          6           0       -7.640271   -0.884060    1.247039
      6          6           0       -7.626773    0.117645    2.221866
      7          6           0       -6.491646    0.909294    2.366644
      8          6           0       -5.377922    0.704946    1.546802
      9          6           0       -5.405422   -0.298781    0.572890
     10          8           0       -4.361535   -0.571397   -0.270913
     11          6           0       -3.172932    0.202994   -0.176510
     12          6           0       -2.213101   -0.318328   -1.242039
     13          6           0       -0.895890    0.467046   -1.335800
     14          6           0        0.026766    0.281965   -0.118647
     15          7           0        1.291077    0.994619   -0.247445
     16          6           0        2.497651    0.508752   -0.727172
     17          6           0        2.670143   -0.936948   -1.132076
     18          7           0        3.967613   -1.210245   -1.730354
     19          6           0        4.136842   -0.785100   -3.120497
     20          6           0        5.124735   -1.398035   -1.011273
     21          8           0        6.229585   -1.311152   -1.543784
     22          6           0        5.083757   -1.774502    0.459879
     23          6           0        6.223707   -1.461241    1.212559
     24          6           0        6.271913   -1.845821    2.548394
     25          6           0        5.193958   -2.550021    3.085596
     26          6           0        4.109381   -2.827993    2.255108
     27          7           0        4.042767   -2.448088    0.973580
     28          7           0        3.449280    1.409254   -0.753570
     29          6           0        2.861668    2.571903   -0.274627
     30          6           0        3.413151    3.843933   -0.084414
     31          6           0        2.590112    4.845791    0.422320
     32          6           0        1.240512    4.595125    0.737882
     33          6           0        0.671878    3.335661    0.554856
     34          6           0        1.504450    2.336636    0.046204
     35          1           0       -7.440481    0.287679   -1.691194
     36          1           0       -7.650667   -0.316063   -3.428300
     37          1           0       -6.934153   -2.541335   -2.786132
     38          1           0       -7.271330   -2.987789   -0.321786
     39          1           0       -5.591388   -2.675303   -0.707557
     40          1           0       -8.522938   -1.508642    1.128279
     41          1           0       -8.492948    0.272331    2.858559
     42          1           0       -6.459838    1.692394    3.119573
     43          1           0       -4.501137    1.329667    1.673442
     44          1           0       -2.747890    0.110796    0.833694
     45          1           0       -3.398262    1.266138   -0.350271
     46          1           0       -2.010099   -1.379583   -1.046511
     47          1           0       -2.730206   -0.273592   -2.207270
     48          1           0       -1.099552    1.537169   -1.471837
     49          1           0       -0.353075    0.143768   -2.232407
     50          1           0        0.244197   -0.780648    0.031621
     51          1           0       -0.455950    0.634554    0.799294
     52          1           0        1.901415   -1.214082   -1.865484
     53          1           0        2.539676   -1.592470   -0.267578
     54          1           0        5.011349   -1.281339   -3.538909
     55          1           0        3.243893   -1.069476   -3.686297
     56          1           0        4.280109    0.299737   -3.185852
     57          1           0        7.041914   -0.938886    0.732170
     58          1           0        7.138370   -1.606753    3.158958
     59          1           0        5.190113   -2.877523    4.120892
     60          1           0        3.251651   -3.382206    2.632605
     61          1           0        4.454697    4.029437   -0.328467
     62          1           0        2.993176    5.842496    0.578914
     63          1           0        0.627241    5.401250    1.131101
     64          1           0       -0.370987    3.151848    0.798349
 ---------------------------------------------------------------------

 The electronic state is 1-A.
 Alpha  occ. eigenvalues --  -19.18161 -19.10582 -14.39106 -14.36120 -14.34152
 Alpha  occ. eigenvalues --  -14.31177 -10.28129 -10.25451 -10.25367 -10.24889
 Alpha  occ. eigenvalues --  -10.24865 -10.23562 -10.23250 -10.23137 -10.21985
 Alpha  occ. eigenvalues --  -10.21341 -10.20982 -10.20761 -10.20435 -10.20350
 Alpha  occ. eigenvalues --  -10.20198 -10.20072 -10.19401 -10.19292 -10.19151
 Alpha  occ. eigenvalues --  -10.19095 -10.18975 -10.18867 -10.18727 -10.18704
 Alpha  occ. eigenvalues --  -10.18366 -10.18350 -10.18208 -10.17095  -1.06845
 Alpha  occ. eigenvalues --   -1.02815  -1.01816  -0.94979  -0.92880  -0.89458
 Alpha  occ. eigenvalues --   -0.85566  -0.83986  -0.81650  -0.80864  -0.79500
 Alpha  occ. eigenvalues --   -0.77450  -0.76492  -0.75776  -0.74374  -0.73935
 Alpha  occ. eigenvalues --   -0.72282  -0.70869  -0.69594  -0.68215  -0.67351
 Alpha  occ. eigenvalues --   -0.64049  -0.63463  -0.62013  -0.61137  -0.60050
 Alpha  occ. eigenvalues --   -0.59397  -0.59124  -0.57501  -0.55562  -0.54927
 Alpha  occ. eigenvalues --   -0.53130  -0.52471  -0.52214  -0.51111  -0.50034
 Alpha  occ. eigenvalues --   -0.49712  -0.48581  -0.48437  -0.47968  -0.47424
 Alpha  occ. eigenvalues --   -0.46772  -0.46668  -0.46271  -0.45693  -0.44588
 Alpha  occ. eigenvalues --   -0.44078  -0.43797  -0.43523  -0.43162  -0.42171
 Alpha  occ. eigenvalues --   -0.42051  -0.41525  -0.41081  -0.40863  -0.40607
 Alpha  occ. eigenvalues --   -0.40108  -0.39782  -0.39457  -0.39081  -0.38672
 Alpha  occ. eigenvalues --   -0.37891  -0.37664  -0.37391  -0.36871  -0.36248
 Alpha  occ. eigenvalues --   -0.36016  -0.35962  -0.35450  -0.35137  -0.34831
 Alpha  occ. eigenvalues --   -0.34253  -0.32889  -0.32127  -0.32005  -0.29376
 Alpha  occ. eigenvalues --   -0.29265  -0.27410  -0.26888  -0.26416  -0.24957
 Alpha  occ. eigenvalues --   -0.24628  -0.24439  -0.23376  -0.22263  -0.21994
 Alpha  occ. eigenvalues --   -0.21945
 Alpha virt. eigenvalues --   -0.04403  -0.02245  -0.01252  -0.00228   0.01159
 Alpha virt. eigenvalues --    0.02167   0.03013   0.04833   0.05473   0.06180
 Alpha virt. eigenvalues --    0.08024   0.09131   0.09397   0.09590   0.10277

 Mulliken charges:
               1
     1  C   -0.333639
     2  C   -0.047236
     3  C   -0.376059
     4  C    0.103597
     5  C   -0.187026
     6  C   -0.128982
     7  C   -0.140023
     8  C   -0.194396
     9  C    0.335997
    10  O   -0.525847
    11  C   -0.027415
    12  C   -0.285390
    13  C   -0.276717
    14  C   -0.168643
    15  N   -0.560635
    16  C    0.501988
    17  C   -0.276534
    18  N   -0.414859
    19  C   -0.313627
    20  C    0.587480
    21  O   -0.520895
    22  C    0.239353
    23  C   -0.139414
    24  C   -0.106643
    25  C   -0.139537
    26  C    0.038905
    27  N   -0.485649
    28  N   -0.550844
    29  C    0.228381
    30  C   -0.181602
    31  C   -0.143388
    32  C   -0.150275
    33  C   -0.176030
    34  C    0.333155
    35  H    0.144360
    36  H    0.133341
    37  H    0.122193
    38  H    0.150126
    39  H    0.163237
    40  H    0.127731
    41  H    0.126245
    42  H    0.128897
    43  H    0.129073
    44  H    0.137757
    45  H    0.141425
    46  H    0.150115
    47  H    0.165993
    48  H    0.157409
    49  H    0.153869
    50  H    0.168496
    51  H    0.165641
    52  H    0.157499
    53  H    0.223120
    54  H    0.192210
    55  H    0.137361
    56  H    0.183058
    57  H    0.176644
    58  H    0.150269
    59  H    0.143623
    60  H    0.141139
    61  H    0.140069
    62  H    0.125336
    63  H    0.125101
    64  H    0.121114
 Sum of Mulliken charges =  -0.00000

 Dipole moment (field-independent basis, Debye):
    X=             -3.3881    Y=             -0.5018    Z=              2.7013  Tot=              4.3621
 Quadrupole moment (field-independent basis, Debye-Ang):
   XX=           -223.4688   YY=           -194.6547   ZZ=           -187.7614
   XY=             -0.2339   XZ=             16.7179   YZ=             -1.8169

 Normal termination of Gaussian 16 at Fri Nov  4 22:04:02 2022.
