 Gaussian 16, Revision B.01,
 Gaussian 16:  ES64L-G16RevB.01 20-Dec-2017

 -------------------------------------------------------------------
 #p b3lyp/6-31g(d) 6D 10F nosymm GFInput td=(50-50,nstate=2) SCF=XQC
 -------------------------------------------------------------------

 ------------------------------
 Gaussian input prepared by ASE
 ------------------------------
 Symbolic Z-matrix:
 Charge =  0 Multiplicity = 1

                          Input orientation:
 ---------------------------------------------------------------------
 Center     Atomic      Atomic             Coordinates (Angstroms)
 Number     Number       Type             X           Y           Z
 ---------------------------------------------------------------------
      1          6           0        6.983162    1.117931   -2.067653
      2          6           0        6.206719    1.367585   -3.121336
      3          6           0        5.163324    2.459467   -3.242621
      4          6           0        4.931015    3.288668   -1.999908
      5          6           0        5.586520    4.505345   -1.807408
      6          6           0        5.384869    5.278887   -0.660739
      7          6           0        4.505430    4.826235    0.317974
      8          6           0        3.831516    3.612189    0.156072
      9          6           0        4.044604    2.845966   -0.994677
     10          8           0        3.426809    1.648079   -1.238441
     11          6           0        2.518023    1.127998   -0.276675
     12          6           0        2.012433   -0.207417   -0.814681
     13          6           0        1.073328   -0.953650    0.145458
     14          6           0       -0.294721   -0.274578    0.330700
     15          7           0       -1.188848   -1.021764    1.205456
     16          6           0       -2.151907   -1.951764    0.845399
     17          6           0       -2.455209   -2.265464   -0.601442
     18          7           0       -3.399909   -3.360019   -0.761283
     19          6           0       -2.861971   -4.707062   -0.566393
     20          6           0       -4.762421   -3.228926   -0.628437
     21          8           0       -5.485404   -4.208813   -0.458352
     22          6           0       -5.436350   -1.872141   -0.740912
     23          6           0       -6.685733   -1.746351   -0.118526
     24          6           0       -7.382157   -0.549337   -0.248252
     25          6           0       -6.823181    0.475401   -1.012404
     26          6           0       -5.581363    0.252471   -1.605257
     27          7           0       -4.892932   -0.887606   -1.473479
     28          7           0       -2.773251   -2.482704    1.869719
     29          6           0       -2.200872   -1.891290    2.987324
     30          6           0       -2.480101   -2.080760    4.345449
     31          6           0       -1.749145   -1.344427    5.273571
     32          6           0       -0.756032   -0.432418    4.866387
     33          6           0       -0.462000   -0.229887    3.518937
     34          6           0       -1.199865   -0.972476    2.594778
     35          1           0        6.923227    1.706239   -1.156010
     36          1           0        7.710669    0.310870   -2.082887
     37          1           0        6.310346    0.747400   -4.013209
     38          1           0        5.458220    3.125855   -4.066514
     39          1           0        4.219137    1.996817   -3.557970
     40          1           0        6.270974    4.852607   -2.578278
     41          1           0        5.908432    6.222630   -0.539103
     42          1           0        4.333041    5.413221    1.216244
     43          1           0        3.148900    3.274571    0.927509
     44          1           0        1.695148    1.840462   -0.118738
     45          1           0        3.027889    0.984635    0.688066
     46          1           0        1.513316   -0.034794   -1.777379
     47          1           0        2.886277   -0.834254   -1.025730
     48          1           0        1.549720   -1.073921    1.127158
     49          1           0        0.906017   -1.967448   -0.238316
     50          1           0       -0.787552   -0.148545   -0.638956
     51          1           0       -0.182609    0.728467    0.756471
     52          1           0       -1.531447   -2.545137   -1.124969
     53          1           0       -2.855327   -1.382873   -1.106445
     54          1           0       -3.562230   -5.431552   -0.979715
     55          1           0       -1.902158   -4.781136   -1.087573
     56          1           0       -2.716555   -4.922755    0.498501
     57          1           0       -7.081864   -2.587604    0.436872
     58          1           0       -8.347930   -0.419661    0.232538
     59          1           0       -7.333392    1.424267   -1.148231
     60          1           0       -5.113974    1.022984   -2.216170
     61          1           0       -3.248092   -2.784378    4.651886
     62          1           0       -1.945670   -1.473042    6.334344
     63          1           0       -0.204655    0.125023    5.618585
     64          1           0        0.307764    0.473686    3.213829
 ---------------------------------------------------------------------

 SCF Done:  E(RB3LYP) =  -1454.49498848     A.U. after   16 cycles

 Excitation energies and oscillator strengths:

 Excited state symmetry could not be determined.
 Excited State   1:      Triplet-?Sym    3.4956 eV  354.68 nm  f=0.0000  <S**2>=2.000
     119 ->124         0.22501
     119 ->127        -0.21599
     121 ->122        -0.12030
     121 ->124        -0.59258
 This state for optimization and/or second-order correction.
 Total Energy, E(TD-HF/TD-DFT) =  -1454.36652597
 Copying the excited state density for this state as the 1-particle RhoCI density.

 Excited state symmetry could not be determined.
 Excited State   2:      Triplet-?Sym    3.5233 eV  351.89 nm  f=0.0000  <S**2>=2.000
     111 ->122        -0.11464
     112 ->122         0.10686
     114 ->122         0.14572
     114 ->123        -0.14688
     117 ->122        -0.25027
     118 ->122         0.55138
     118 ->123        -0.10995
     118 ->130         0.12839
     119 ->122         0.12686

 Excited state symmetry could not be determined.
 Excited State   3:      Singlet-?Sym    4.0999 eV  302.41 nm  f=0.0085  <S**2>=0.000
     114 ->122        -0.12348
     117 ->122        -0.36846
     118 ->122         0.39418
     119 ->122         0.20804
     121 ->122         0.36910

 Excited state symmetry could not be determined.
 Excited State   4:      Singlet-?Sym    4.2711 eV  290.29 nm  f=0.0054  <S**2>=0.000
     117 ->122         0.15848
     118 ->122        -0.30278
     119 ->122        -0.14250
     121 ->122         0.58839

 Alpha  occ. eigenvalues --  -19.18161 -19.10582 -14.39106 -14.36120 -14.34152
 Alpha  occ. eigenvalues --  -14.31177 -10.28129 -10.25451 -10.25367 -10.24889
 Alpha  occ. eigenvalues --  -10.24864 -10.23562 -10.23250 -10.23137 -10.21985
 Alpha  occ. eigenvalues --  -10.21341 -10.20982 -10.20761 -10.20435 -10.20350
 Alpha  occ. eigenvalues --  -10.20198 -10.20072 -10.19401 -10.19292 -10.19151
 Alpha  occ. eigenvalues --  -10.19095 -10.18975 -10.18867 -10.18727 -10.18704
 Alpha  occ. eigenvalues --  -10.18366 -10.18350 -10.18208 -10.17095  -1.06845
 Alpha  occ. eigenvalues --   -1.02815  -1.01816  -0.94979  -0.92880  -0.89458
 Alpha  occ. eigenvalues --   -0.85567  -0.83986  -0.81650  -0.80864  -0.79500
 Alpha  occ. eigenvalues --   -0.77450  -0.76492  -0.75776  -0.74374  -0.73935
 Alpha  occ. eigenvalues --   -0.72282  -0.70869  -0.69594  -0.68215  -0.67350
 Alpha  occ. eigenvalues --   -0.64049  -0.63463  -0.62013  -0.61137  -0.60050
 Alpha  occ. eigenvalues --   -0.59397  -0.59124  -0.57501  -0.55562  -0.54927
 Alpha  occ. eigenvalues --   -0.53130  -0.52471  -0.52214  -0.51111  -0.50034
 Alpha  occ. eigenvalues --   -0.49713  -0.48581  -0.48437  -0.47968  -0.47424
 Alpha  occ. eigenvalues --   -0.46772  -0.46668  -0.46271  -0.45693  -0.44588
 Alpha  occ. eigenvalues --   -0.44078  -0.43797  -0.43523  -0.43162  -0.42171
 Alpha  occ. eigenvalues --   -0.42051  -0.41525  -0.41081  -0.40863  -0.40607
 Alpha  occ. eigenvalues --   -0.40108  -0.39781  -0.39457  -0.39081  -0.38672
 Alpha  occ. eigenvalues --   -0.37891  -0.37664  -0.37391  -0.36871  -0.36248
 Alpha  occ. eigenvalues --   -0.36016  -0.35962  -0.35450  -0.35137  -0.34831
 Alpha  occ. eigenvalues --   -0.34253  -0.32889  -0.32127  -0.32005  -0.29376
 Alpha  occ. eigenvalues --   -0.29265  -0.27410  -0.26888  -0.26416  -0.24957
 Alpha  occ. eigenvalues --   -0.24628  -0.24439  -0.23376  -0.22263  -0.21994
 Alpha  occ. eigenvalues --   -0.21945
 Alpha virt. eigenvalues --   -0.04403  -0.02245  -0.01252  -0.00228   0.01159
 Alpha virt. eigenvalues --    0.02167   0.03013   0.04833   0.05473   0.06180
 Alpha virt. eigenvalues --    0.08024   0.09131   0.09397   0.09590   0.10277

 Mulliken charges:
               1
     1  C   -0.333644
     2  C   -0.047223
     3  C   -0.376059
     4  C    0.103607
     5  C   -0.187028
     6  C   -0.128983
     7  C   -0.140020
     8  C   -0.194416
     9  C    0.336006
    10  O   -0.525850
    11  C   -0.027396
    12  C   -0.285418
    13  C   -0.276708
    14  C   -0.168635
    15  N   -0.560636
    16  C    0.501997
    17  C   -0.276534
    18  N   -0.414858
    19  C   -0.313624
    20  C    0.587484
    21  O   -0.520891
    22  C    0.239332
    23  C   -0.139404
    24  C   -0.106660
    25  C   -0.139530
    26  C    0.038900
    27  N   -0.485635
    28  N   -0.550850
    29  C    0.228374
    30  C   -0.181598
    31  C   -0.143383
    32  C   -0.150281
    33  C   -0.176035
    34  C    0.333161
    35  H    0.144359
    36  H    0.133340
    37  H    0.122191
    38  H    0.150124
    39  H    0.163238
    40  H    0.127731
    41  H    0.126246
    42  H    0.128897
    43  H    0.129075
    44  H    0.137753
    45  H    0.141419
    46  H    0.150121
    47  H    0.165997
    48  H    0.157409
    49  H    0.153864
    50  H    0.168493
    51  H    0.165639
    52  H    0.157498
    53  H    0.223120
    54  H    0.192208
    55  H    0.137360
    56  H    0.183057
    57  H    0.176643
    58  H    0.150271
    59  H    0.143624
    60  H    0.141139
    61  H    0.140070
    62  H    0.125336
    63  H    0.125101
    64  H    0.121115
 Sum of Mulliken charges =  -0.00000

 Dipole moment (field-independent basis, Debye):
    X=              1.7100    Y=              3.9734    Z=             -0.5615  Tot=              4.3621
 Quadrupole moment (field-independent basis, Debye-Ang):
   XX=           -203.9791   YY=           -209.3404   ZZ=           -195.0218
   XY=            -26.0085   XZ=              1.0603   YZ=              3.2145

 Normal termination of Gaussian 16 at Sat Nov  5 09:33:04 2022.
