 Gaussian 16, Revision B.01,
 Gaussian 16:  ES64L-G16RevB.01 20-Dec-2017

 -------------------------------------------------------------------
 #p b3lyp/6-31g(d) 6D 10F nosymm GFInput td=(50-50,nstate=2) SCF=XQC
 -------------------------------------------------------------------

 ------------------------------
 Gaussian input prepared by ASE
 ------------------------------
 Symbolic Z-matrix:
 Charge =  0 Multiplicity = 1

                          Input orientation:
 ---------------------------------------------------------------------
 Center     Atomic      Atomic             Coordinates (Angstroms)
 Number     Number       Type             X           Y           Z
 ---------------------------------------------------------------------
      1          6           0        4.650483    3.556728    0.190046
      2          6           0        3.883247    2.296899   -0.176977
      3          8           0        2.989605    2.305891   -1.021143
      4          7           0        4.251624    1.157474    0.478338
      5          6           0        3.563416   -0.101789    0.235706
      6          6           0        2.203089   -0.199654    0.968384
      7          6           0        1.376916   -1.337419    0.455810
      8          7           0        1.375154   -2.547072    0.969143
      9          6           0        0.520147   -3.281462    0.160587
     10          6           0        0.142402   -4.627663    0.240477
     11          6           0       -0.746746   -5.116670   -0.711506
     12          6           0       -1.260652   -4.287088   -1.728491
     13          6           0       -0.899651   -2.945123   -1.825452
     14          6           0       -0.000933   -2.464076   -0.870594
     15          7           0        0.575405   -1.216928   -0.670754
     16          6           0        0.317040   -0.014202   -1.452595
     17          6           0       -0.891798    0.781143   -1.022383
     18          6           0       -1.714875    0.472172   -0.011427
     19          6           0       -2.891306    1.231474    0.441386
     20          6           0       -3.724447    0.662788    1.420627
     21          6           0       -4.857301    1.330745    1.883474
     22          6           0       -5.181658    2.589989    1.378398
     23          6           0       -4.360088    3.173592    0.409140
     24          6           0       -3.229598    2.505523   -0.051844
     25          1           0        3.950477    4.292664    0.598208
     26          1           0        5.078418    3.984954   -0.721207
     27          1           0        5.452920    3.389312    0.915291
     28          1           0        4.937322    1.210197    1.217190
     29          1           0        4.214694   -0.923563    0.545790
     30          1           0        3.411146   -0.187348   -0.843491
     31          1           0        2.368311   -0.357229    2.037974
     32          1           0        1.668936    0.747233    0.845148
     33          1           0        0.539792   -5.260273    1.028555
     34          1           0       -1.055969   -6.157613   -0.671921
     35          1           0       -1.957825   -4.701749   -2.451468
     36          1           0       -1.309852   -2.306979   -2.602767
     37          1           0        1.204983    0.629128   -1.420198
     38          1           0        0.208281   -0.319743   -2.502218
     39          1           0       -1.054464    1.677329   -1.619812
     40          1           0       -1.521999   -0.444493    0.544159
     41          1           0       -3.478014   -0.319378    1.817504
     42          1           0       -5.485461    0.866588    2.639288
     43          1           0       -6.062555    3.115263    1.737404
     44          1           0       -4.600259    4.157387    0.014089
     45          1           0       -2.598359    2.983046   -0.795870
 ---------------------------------------------------------------------

 SCF Done:  E(RB3LYP) =  -1014.28047615     A.U. after   15 cycles

 Excitation energies and oscillator strengths:

 Excited state symmetry could not be determined.
 Excited State   1:      Triplet-?Sym    2.9061 eV  426.64 nm  f=0.0000  <S**2>=2.000
      77 -> 93         0.13475
      82 -> 88        -0.17381
      83 -> 86         0.52324
      84 -> 86         0.39696
      85 -> 86         0.15110
 This state for optimization and/or second-order correction.
 Total Energy, E(TD-HF/TD-DFT) =  -1014.17368029
 Copying the excited state density for this state as the 1-particle RhoCI density.

 Excited state symmetry could not be determined.
 Excited State   2:      Triplet-?Sym    3.4718 eV  357.12 nm  f=0.0000  <S**2>=2.000
      83 -> 90         0.11795
      84 -> 87        -0.31162
      84 -> 90        -0.16207
      85 -> 87         0.56549

 Excited state symmetry could not be determined.
 Excited State   3:      Singlet-?Sym    4.4695 eV  277.40 nm  f=0.0000  <S**2>=0.000
      84 -> 86        -0.26937
      85 -> 86         0.65182

 Excited state symmetry could not be determined.
 Excited State   4:      Singlet-?Sym    4.5134 eV  274.71 nm  f=0.0231  <S**2>=0.000
      83 -> 86        -0.30303
      84 -> 86         0.58413
      85 -> 86         0.25332

 Alpha  occ. eigenvalues --  -19.11778 -14.38150 -14.37063 -14.30344 -10.29543
 Alpha  occ. eigenvalues --  -10.24599 -10.23344 -10.23216 -10.21087 -10.19975
 Alpha  occ. eigenvalues --  -10.19788 -10.19653 -10.19548 -10.19382 -10.18948
 Alpha  occ. eigenvalues --  -10.18823 -10.18753 -10.18703 -10.18693 -10.18609
 Alpha  occ. eigenvalues --  -10.18471 -10.17936 -10.17662 -10.17525  -1.03680
 Alpha  occ. eigenvalues --   -1.00881  -0.92899  -0.88548  -0.85315  -0.83393
 Alpha  occ. eigenvalues --   -0.79488  -0.78758  -0.75280  -0.74634  -0.74123
 Alpha  occ. eigenvalues --   -0.72874  -0.71066  -0.68941  -0.65754  -0.61681
 Alpha  occ. eigenvalues --   -0.59997  -0.59539  -0.59470  -0.58653  -0.57138
 Alpha  occ. eigenvalues --   -0.54319  -0.51950  -0.51866  -0.49838  -0.49486
 Alpha  occ. eigenvalues --   -0.48394  -0.47525  -0.46093  -0.45087  -0.44842
 Alpha  occ. eigenvalues --   -0.44494  -0.44087  -0.43479  -0.42775  -0.42221
 Alpha  occ. eigenvalues --   -0.41556  -0.41364  -0.40860  -0.40837  -0.40258
 Alpha  occ. eigenvalues --   -0.39203  -0.37728  -0.37124  -0.36888  -0.36747
 Alpha  occ. eigenvalues --   -0.35767  -0.34861  -0.34379  -0.34244  -0.33485
 Alpha  occ. eigenvalues --   -0.32237  -0.29356  -0.28626  -0.26583  -0.25942
 Alpha  occ. eigenvalues --   -0.25653  -0.24753  -0.21994  -0.21320  -0.21177
 Alpha virt. eigenvalues --   -0.02827  -0.00735   0.00366   0.02038   0.03013
 Alpha virt. eigenvalues --    0.05923   0.06175   0.06326   0.09678   0.10166
 Alpha virt. eigenvalues --    0.11053   0.11334   0.11696   0.12970   0.13884

 Mulliken charges:
               1
     1  C   -0.535608
     2  C    0.596114
     3  O   -0.515716
     4  N   -0.585190
     5  C   -0.135973
     6  C   -0.347882
     7  C    0.467973
     8  N   -0.550545
     9  C    0.227312
    10  C   -0.186899
    11  C   -0.142395
    12  C   -0.152991
    13  C   -0.170031
    14  C    0.317801
    15  N   -0.542747
    16  C   -0.227976
    17  C   -0.134796
    18  C   -0.165134
    19  C    0.175272
    20  C   -0.197230
    21  C   -0.129569
    22  C   -0.129436
    23  C   -0.130936
    24  C   -0.182666
    25  H    0.187727
    26  H    0.189661
    27  H    0.145012
    28  H    0.327637
    29  H    0.165091
    30  H    0.180741
    31  H    0.169651
    32  H    0.179343
    33  H    0.133353
    34  H    0.121677
    35  H    0.123780
    36  H    0.131947
    37  H    0.219057
    38  H    0.168751
    39  H    0.137843
    40  H    0.146882
    41  H    0.134580
    42  H    0.130727
    43  H    0.128959
    44  H    0.129291
    45  H    0.127540
 Sum of Mulliken charges =  -0.00000

 Dipole moment (field-independent basis, Debye):
    X=              2.1713    Y=              2.7385    Z=              0.6464  Tot=              3.5542
 Quadrupole moment (field-independent basis, Debye-Ang):
   XX=           -116.6289   YY=           -139.7267   ZZ=           -137.5111
   XY=              7.4209   XZ=              6.4347   YZ=              5.0966

 Normal termination of Gaussian 16 at Sat Nov  5 09:28:07 2022.
