 Gaussian 16, Revision B.01,
 Gaussian 16:  ES64L-G16RevB.01 20-Dec-2017

 -----------------------------
 #p b3lyp/6-31g(d) opt SCF=XQC
 -----------------------------

 ------------------------------
 Gaussian input prepared by ASE
 ------------------------------
 Symbolic Z-matrix:
 Charge =  0 Multiplicity = 1

 SCF Done:  E(RB3LYP) =  -1014.27411104     A.U. after   15 cycles
 SCF Done:  E(RB3LYP) =  -1014.27909845     A.U. after   12 cycles
 SCF Done:  E(RB3LYP) =  -1014.27962475     A.U. after   12 cycles
 SCF Done:  E(RB3LYP) =  -1014.27996156     A.U. after   12 cycles
 SCF Done:  E(RB3LYP) =  -1014.28001347     A.U. after   11 cycles
 SCF Done:  E(RB3LYP) =  -1014.28003959     A.U. after   11 cycles
 SCF Done:  E(RB3LYP) =  -1014.28006229     A.U. after   10 cycles
 SCF Done:  E(RB3LYP) =  -1014.28008598     A.U. after   10 cycles
 SCF Done:  E(RB3LYP) =  -1014.28010153     A.U. after   10 cycles
 SCF Done:  E(RB3LYP) =  -1014.28011229     A.U. after   10 cycles
 SCF Done:  E(RB3LYP) =  -1014.28047203     A.U. after    9 cycles
 SCF Done:  E(RB3LYP) =  -1014.28047302     A.U. after    9 cycles
 SCF Done:  E(RB3LYP) =  -1014.28047471     A.U. after    9 cycles
 SCF Done:  E(RB3LYP) =  -1014.28047529     A.U. after    9 cycles
 SCF Done:  E(RB3LYP) =  -1014.28047547     A.U. after    7 cycles
 SCF Done:  E(RB3LYP) =  -1014.28047562     A.U. after    7 cycles
 SCF Done:  E(RB3LYP) =  -1014.28047585     A.U. after    8 cycles
 SCF Done:  E(RB3LYP) =  -1014.28047597     A.U. after    7 cycles
 SCF Done:  E(RB3LYP) =  -1014.28047601     A.U. after    7 cycles
 SCF Done:  E(RB3LYP) =  -1014.28047602     A.U. after    6 cycles
 Optimization completed.
    -- Stationary point found.

                         Standard orientation:
 ---------------------------------------------------------------------
 Center     Atomic      Atomic             Coordinates (Angstroms)
 Number     Number       Type             X           Y           Z
 ---------------------------------------------------------------------
      1          6           0        4.293959   -4.183422   -0.031177
      2          6           0        3.682065   -2.812946    0.209457
      3          8           0        2.871497   -2.615286    1.112343
      4          7           0        4.092671   -1.816752   -0.628654
      5          6           0        3.547830   -0.471810   -0.516747
      6          6           0        2.141510   -0.333360   -1.149186
      7          6           0        1.473140    0.942584   -0.742924
      8          7           0        1.536006    2.065489   -1.422563
      9          6           0        0.828798    2.986881   -0.664261
     10          6           0        0.570607    4.341798   -0.906893
     11          6           0       -0.180007    5.044282    0.030699
     12          6           0       -0.673723    4.417309    1.192471
     13          6           0       -0.430202    3.070606    1.452626
     14          6           0        0.330371    2.374585    0.510322
     15          7           0        0.769265    1.058946    0.447497
     16          6           0        0.473393    0.006059    1.411067
     17          6           0       -0.837347   -0.710540    1.193374
     18          6           0       -1.716714   -0.457278    0.214843
     19          6           0       -2.994055   -1.144767   -0.032803
     20          6           0       -3.856678   -0.630254   -1.016468
     21          6           0       -5.083324   -1.233599   -1.290447
     22          6           0       -5.474887   -2.372704   -0.586796
     23          6           0       -4.626012   -2.902066    0.390045
     24          6           0       -3.401868   -2.298617    0.662350
     25          1           0        3.495253   -4.891211   -0.274717
     26          1           0        4.761504   -4.526726    0.896417
     27          1           0        5.039400   -4.199467   -0.832410
     28          1           0        4.700901   -2.039470   -1.402811
     29          1           0        4.241063    0.228660   -0.990454
     30          1           0        3.502408   -0.226051    0.547542
     31          1           0        2.222976   -0.339577   -2.239817
     32          1           0        1.536016   -1.194473   -0.850920
     33          1           0        0.951418    4.817639   -1.805636
     34          1           0       -0.394631    6.096734   -0.133703
     35          1           0       -1.261528    4.995733    1.900002
     36          1           0       -0.825200    2.589185    2.342527
     37          1           0        1.291905   -0.724243    1.403029
     38          1           0        0.488644    0.460094    2.411322
     39          1           0       -1.026863   -1.496164    1.923724
     40          1           0       -1.491570    0.351045   -0.479474
     41          1           0       -3.558037    0.258490   -1.567684
     42          1           0       -5.732047   -0.813164   -2.054433
     43          1           0       -6.429175   -2.847529   -0.798110
     44          1           0       -4.918757   -3.793310    0.939211
     45          1           0       -2.752386   -2.734132    1.416383
 ---------------------------------------------------------------------

 The electronic state is 1-A.
 Alpha  occ. eigenvalues --  -19.11778 -14.38150 -14.37063 -14.30344 -10.29542
 Alpha  occ. eigenvalues --  -10.24599 -10.23344 -10.23216 -10.21087 -10.19975
 Alpha  occ. eigenvalues --  -10.19788 -10.19653 -10.19548 -10.19382 -10.18948
 Alpha  occ. eigenvalues --  -10.18823 -10.18753 -10.18704 -10.18693 -10.18609
 Alpha  occ. eigenvalues --  -10.18471 -10.17936 -10.17662 -10.17525  -1.03680
 Alpha  occ. eigenvalues --   -1.00881  -0.92899  -0.88548  -0.85315  -0.83393
 Alpha  occ. eigenvalues --   -0.79488  -0.78758  -0.75280  -0.74634  -0.74123
 Alpha  occ. eigenvalues --   -0.72874  -0.71066  -0.68941  -0.65754  -0.61681
 Alpha  occ. eigenvalues --   -0.59997  -0.59539  -0.59470  -0.58653  -0.57138
 Alpha  occ. eigenvalues --   -0.54319  -0.51950  -0.51867  -0.49838  -0.49486
 Alpha  occ. eigenvalues --   -0.48394  -0.47525  -0.46093  -0.45087  -0.44842
 Alpha  occ. eigenvalues --   -0.44494  -0.44087  -0.43479  -0.42775  -0.42221
 Alpha  occ. eigenvalues --   -0.41556  -0.41364  -0.40860  -0.40837  -0.40258
 Alpha  occ. eigenvalues --   -0.39203  -0.37728  -0.37124  -0.36888  -0.36746
 Alpha  occ. eigenvalues --   -0.35767  -0.34861  -0.34379  -0.34244  -0.33485
 Alpha  occ. eigenvalues --   -0.32237  -0.29356  -0.28626  -0.26583  -0.25942
 Alpha  occ. eigenvalues --   -0.25653  -0.24753  -0.21994  -0.21320  -0.21177
 Alpha virt. eigenvalues --   -0.02827  -0.00735   0.00366   0.02038   0.03013
 Alpha virt. eigenvalues --    0.05923   0.06175   0.06326   0.09678   0.10166
 Alpha virt. eigenvalues --    0.11053   0.11334   0.11696   0.12970   0.13884

 Mulliken charges:
               1
     1  C   -0.535612
     2  C    0.596125
     3  O   -0.515720
     4  N   -0.585186
     5  C   -0.135984
     6  C   -0.347905
     7  C    0.467994
     8  N   -0.550548
     9  C    0.227312
    10  C   -0.186898
    11  C   -0.142395
    12  C   -0.152995
    13  C   -0.170023
    14  C    0.317786
    15  N   -0.542743
    16  C   -0.227977
    17  C   -0.134794
    18  C   -0.165148
    19  C    0.175279
    20  C   -0.197217
    21  C   -0.129578
    22  C   -0.129437
    23  C   -0.130933
    24  C   -0.182674
    25  H    0.187728
    26  H    0.189661
    27  H    0.145012
    28  H    0.327636
    29  H    0.165093
    30  H    0.180743
    31  H    0.169654
    32  H    0.179349
    33  H    0.133353
    34  H    0.121677
    35  H    0.123780
    36  H    0.131947
    37  H    0.219053
    38  H    0.168751
    39  H    0.137847
    40  H    0.146888
    41  H    0.134579
    42  H    0.130728
    43  H    0.128959
    44  H    0.129290
    45  H    0.127541
 Sum of Mulliken charges =  -0.00000

 Dipole moment (field-independent basis, Debye):
    X=              1.8431    Y=             -3.0107    Z=             -0.4124  Tot=              3.5541
 Quadrupole moment (field-independent basis, Debye-Ang):
   XX=           -119.3209   YY=           -135.3570   ZZ=           -138.0651
   XY=            -10.2037   XZ=             -6.3142   YZ=              6.5701

 Normal termination of Gaussian 16 at Fri Nov  4 21:23:19 2022.
