 Gaussian 16, Revision B.01,
 Gaussian 16:  ES64L-G16RevB.01 20-Dec-2017

 -----------------------------
 #p b3lyp/6-31g(d) opt SCF=XQC
 -----------------------------

 ------------------------------
 Gaussian input prepared by ASE
 ------------------------------
 Symbolic Z-matrix:
 Charge =  0 Multiplicity = 1

 SCF Done:  E(RB3LYP) =  -1168.51385059     A.U. after   15 cycles
 SCF Done:  E(RB3LYP) =  -1168.51686299     A.U. after   12 cycles
 SCF Done:  E(RB3LYP) =  -1168.51696360     A.U. after   10 cycles
 SCF Done:  E(RB3LYP) =  -1168.51697004     A.U. after    8 cycles
 SCF Done:  E(RB3LYP) =  -1168.51697044     A.U. after    7 cycles
 Optimization completed.
    -- Stationary point found.

                         Standard orientation:
 ---------------------------------------------------------------------
 Center     Atomic      Atomic             Coordinates (Angstroms)
 Number     Number       Type             X           Y           Z
 ---------------------------------------------------------------------
      1          9           0        6.319499    0.956330    0.000001
      2          6           0        5.075628    0.419270    0.000000
      3          6           0        4.970774   -0.982080   -0.000001
      4          6           0        3.717240   -1.581719   -0.000001
      5          6           0        2.595727   -0.747002   -0.000001
      6          7           0        1.251398   -1.053782   -0.000001
      7          6           0        0.502377    0.115762    0.000000
      8          6           0       -0.945441    0.105748   -0.000000
      9          6           0       -1.792641    1.181128   -0.000001
     10          6           0       -3.182272    0.828653   -0.000001
     11          6           0       -4.313821    1.667586   -0.000001
     12          6           0       -5.583589    1.107790   -0.000001
     13          6           0       -5.755884   -0.288298    0.000000
     14          6           0       -4.656315   -1.141613    0.000001
     15          6           0       -3.380001   -0.575173    0.000001
     16         16           0       -1.841836   -1.424678    0.000001
     17          6           0        1.374566    1.191619    0.000001
     18          6           0        2.703942    0.674066    0.000000
     19          6           0        3.983422    1.263652    0.000001
     20          1           0        5.879434   -1.574348   -0.000001
     21          1           0        3.620100   -2.663762   -0.000002
     22          1           0        0.870277   -1.987602   -0.000002
     23          1           0       -1.441108    2.207139   -0.000002
     24          1           0       -4.185156    2.746762   -0.000002
     25          1           0       -6.456666    1.754274   -0.000001
     26          1           0       -6.757909   -0.707712    0.000001
     27          1           0       -4.789654   -2.219490    0.000002
     28          1           0        1.086870    2.233512    0.000002
     29          1           0        4.125625    2.339249    0.000002
 ---------------------------------------------------------------------

 The electronic state is 1-A.
 Alpha  occ. eigenvalues --  -88.91240 -24.69095 -14.38660 -10.26031 -10.24110
 Alpha  occ. eigenvalues --  -10.23913 -10.22924 -10.22600 -10.20715 -10.20395
 Alpha  occ. eigenvalues --  -10.20112 -10.20006 -10.19874 -10.19791 -10.19563
 Alpha  occ. eigenvalues --  -10.19542 -10.19173 -10.18901 -10.18457  -7.97374
 Alpha  occ. eigenvalues --   -5.93817  -5.93461  -5.92987  -1.20143  -0.98909
 Alpha  occ. eigenvalues --   -0.89681  -0.84940  -0.83407  -0.79312  -0.77413
 Alpha  occ. eigenvalues --   -0.75753  -0.73907  -0.71837  -0.70920  -0.64863
 Alpha  occ. eigenvalues --   -0.61667  -0.60316  -0.59895  -0.58625  -0.56852
 Alpha  occ. eigenvalues --   -0.53718  -0.51830  -0.50778  -0.49582  -0.47128
 Alpha  occ. eigenvalues --   -0.46479  -0.44721  -0.44687  -0.44522  -0.43313
 Alpha  occ. eigenvalues --   -0.43221  -0.43106  -0.41730  -0.40233  -0.40133
 Alpha  occ. eigenvalues --   -0.39622  -0.37712  -0.36568  -0.36023  -0.34688
 Alpha  occ. eigenvalues --   -0.34263  -0.33840  -0.32085  -0.29256  -0.28438
 Alpha  occ. eigenvalues --   -0.25405  -0.23095  -0.21510  -0.19589
 Alpha virt. eigenvalues --   -0.05569  -0.00708   0.00117   0.00482   0.02974
 Alpha virt. eigenvalues --    0.03729   0.05998   0.09627   0.09985   0.10523
 Alpha virt. eigenvalues --    0.11486   0.12693   0.13773   0.14648   0.15991

 Mulliken charges:
               1
     1  F   -0.308247
     2  C    0.381150
     3  C   -0.218630
     4  C   -0.168278
     5  C    0.354929
     6  N   -0.793565
     7  C    0.370871
     8  C   -0.214549
     9  C   -0.157074
    10  C    0.144062
    11  C   -0.176179
    12  C   -0.143201
    13  C   -0.120936
    14  C   -0.182403
    15  C   -0.124769
    16  S    0.206254
    17  C   -0.253922
    18  C    0.108023
    19  C   -0.289365
    20  H    0.142434
    21  H    0.133813
    22  H    0.340166
    23  H    0.146680
    24  H    0.134233
    25  H    0.133696
    26  H    0.134225
    27  H    0.142801
    28  H    0.135970
    29  H    0.141811
 Sum of Mulliken charges =  -0.00000

 Dipole moment (field-independent basis, Debye):
    X=             -2.7620    Y=             -1.0650    Z=             -0.0000  Tot=              2.9603
 Quadrupole moment (field-independent basis, Debye-Ang):
   XX=           -116.4971   YY=            -99.4328   ZZ=           -120.5261
   XY=             -6.5757   XZ=             -0.0000   YZ=              0.0000

 Normal termination of Gaussian 16 at Fri Nov  4 20:55:32 2022.
