 Gaussian 16, Revision B.01,
 Gaussian 16:  ES64L-G16RevB.01 20-Dec-2017

 -------------------------------------------------------------------
 #p b3lyp/6-31g(d) 6D 10F nosymm GFInput td=(50-50,nstate=2) SCF=XQC
 -------------------------------------------------------------------

 ------------------------------
 Gaussian input prepared by ASE
 ------------------------------
 Symbolic Z-matrix:
 Charge =  0 Multiplicity = 1

                          Input orientation:
 ---------------------------------------------------------------------
 Center     Atomic      Atomic             Coordinates (Angstroms)
 Number     Number       Type             X           Y           Z
 ---------------------------------------------------------------------
      1          9           0        6.421353   -1.455957    0.506164
      2          6           0        5.247793   -0.819821    0.274351
      3          6           0        5.304894    0.515890   -0.158539
      4          6           0        4.128937    1.212188   -0.409956
      5          6           0        2.919065    0.538767   -0.216935
      6          7           0        1.619241    0.967557   -0.384056
      7          6           0        0.740785   -0.060867   -0.068580
      8          6           0       -0.695966    0.098030   -0.150910
      9          6           0       -1.661094   -0.831234    0.130490
     10          6           0       -3.000652   -0.354567   -0.053041
     11          6           0       -4.220977   -1.030938    0.140717
     12          6           0       -5.417640   -0.370634   -0.099445
     13          6           0       -5.428125    0.967062   -0.534426
     14          6           0       -4.237906    1.660330   -0.734319
     15          6           0       -3.035506    0.993068   -0.491773
     16         16           0       -1.410134    1.637468   -0.666489
     17          6           0        1.483215   -1.168041    0.307113
     18          6           0        2.863035   -0.815932    0.222149
     19          6           0        4.065916   -1.505404    0.471923
     20          1           0        6.275475    0.982059   -0.289314
     21          1           0        4.156959    2.245218   -0.745095
     22          1           0        1.348172    1.889760   -0.689565
     23          1           0       -1.430018   -1.837544    0.462481
     24          1           0       -4.217360   -2.064510    0.476710
     25          1           0       -6.359120   -0.891733    0.049805
     26          1           0       -6.375030    1.467010   -0.717137
     27          1           0       -4.246314    2.693156   -1.070172
     28          1           0        1.077612   -2.123392    0.608941
     29          1           0        4.083390   -2.536991    0.807564
 ---------------------------------------------------------------------

 SCF Done:  E(RB3LYP) =  -1168.51696778     A.U. after   15 cycles

 Excitation energies and oscillator strengths:

 Excited state symmetry could not be determined.
 Excited State   1:      Triplet-?Sym    2.2383 eV  553.93 nm  f=0.0000  <S**2>=2.000
      69 -> 70         0.68380
 This state for optimization and/or second-order correction.
 Total Energy, E(TD-HF/TD-DFT) =  -1168.43471263
 Copying the excited state density for this state as the 1-particle RhoCI density.

 Excited state symmetry could not be determined.
 Excited State   2:      Triplet-?Sym    3.1028 eV  399.59 nm  f=0.0000  <S**2>=2.000
      66 -> 70         0.14767
      67 -> 70         0.20612
      68 -> 70         0.58151
      68 -> 72         0.17961
      69 -> 72        -0.16875

 Excited state symmetry could not be determined.
 Excited State   3:      Singlet-?Sym    3.6315 eV  341.42 nm  f=0.8818  <S**2>=0.000
      69 -> 70         0.70030

 Excited state symmetry could not be determined.
 Excited State   4:      Singlet-?Sym    3.8613 eV  321.10 nm  f=0.1441  <S**2>=0.000
      68 -> 70         0.68921

 Alpha  occ. eigenvalues --  -88.91240 -24.69095 -14.38660 -10.26031 -10.24110
 Alpha  occ. eigenvalues --  -10.23913 -10.22924 -10.22600 -10.20715 -10.20394
 Alpha  occ. eigenvalues --  -10.20112 -10.20006 -10.19874 -10.19791 -10.19563
 Alpha  occ. eigenvalues --  -10.19542 -10.19173 -10.18901 -10.18457  -7.97374
 Alpha  occ. eigenvalues --   -5.93817  -5.93461  -5.92986  -1.20143  -0.98909
 Alpha  occ. eigenvalues --   -0.89681  -0.84940  -0.83407  -0.79312  -0.77413
 Alpha  occ. eigenvalues --   -0.75753  -0.73907  -0.71837  -0.70920  -0.64863
 Alpha  occ. eigenvalues --   -0.61667  -0.60316  -0.59895  -0.58625  -0.56852
 Alpha  occ. eigenvalues --   -0.53718  -0.51830  -0.50778  -0.49582  -0.47128
 Alpha  occ. eigenvalues --   -0.46479  -0.44721  -0.44687  -0.44522  -0.43313
 Alpha  occ. eigenvalues --   -0.43221  -0.43106  -0.41730  -0.40233  -0.40133
 Alpha  occ. eigenvalues --   -0.39622  -0.37712  -0.36568  -0.36023  -0.34688
 Alpha  occ. eigenvalues --   -0.34263  -0.33840  -0.32085  -0.29256  -0.28438
 Alpha  occ. eigenvalues --   -0.25405  -0.23095  -0.21510  -0.19589
 Alpha virt. eigenvalues --   -0.05569  -0.00708   0.00117   0.00482   0.02974
 Alpha virt. eigenvalues --    0.03730   0.05998   0.09627   0.09985   0.10523
 Alpha virt. eigenvalues --    0.11486   0.12693   0.13773   0.14648   0.15991

 Mulliken charges:
               1
     1  F   -0.308247
     2  C    0.381145
     3  C   -0.218614
     4  C   -0.168283
     5  C    0.354915
     6  N   -0.793566
     7  C    0.370869
     8  C   -0.214560
     9  C   -0.157060
    10  C    0.144054
    11  C   -0.176195
    12  C   -0.143192
    13  C   -0.120935
    14  C   -0.182407
    15  C   -0.124756
    16  S    0.206257
    17  C   -0.253923
    18  C    0.108054
    19  C   -0.289382
    20  H    0.142432
    21  H    0.133813
    22  H    0.340165
    23  H    0.146680
    24  H    0.134234
    25  H    0.133695
    26  H    0.134225
    27  H    0.142801
    28  H    0.135968
    29  H    0.141811
 Sum of Mulliken charges =  -0.00000

 Dipole moment (field-independent basis, Debye):
    X=             -2.6206    Y=              1.2920    Z=             -0.4759  Tot=              2.9603
 Quadrupole moment (field-independent basis, Debye-Ang):
   XX=           -116.1076   YY=           -102.6527   ZZ=           -118.6486
   XY=              8.0443   XZ=             -2.2470   YZ=             -5.7717

 Normal termination of Gaussian 16 at Sat Nov  5 09:24:52 2022.
