 Gaussian 16, Revision B.01,
 Gaussian 16:  ES64L-G16RevB.01 20-Dec-2017

 -----------------------------
 #p b3lyp/6-31g(d) opt SCF=XQC
 -----------------------------

 ------------------------------
 Gaussian input prepared by ASE
 ------------------------------
 Symbolic Z-matrix:
 Charge =  0 Multiplicity = 1

 SCF Done:  E(RB3LYP) =  -1453.28113618     A.U. after   14 cycles
 SCF Done:  E(RB3LYP) =  -1453.29098199     A.U. after   13 cycles
 SCF Done:  E(RB3LYP) =  -1453.29242362     A.U. after   12 cycles
 SCF Done:  E(RB3LYP) =  -1453.29277100     A.U. after   12 cycles
 SCF Done:  E(RB3LYP) =  -1453.29301053     A.U. after   12 cycles
 SCF Done:  E(RB3LYP) =  -1453.29307172     A.U. after   10 cycles
 SCF Done:  E(RB3LYP) =  -1453.29312139     A.U. after   11 cycles
 SCF Done:  E(RB3LYP) =  -1453.29314728     A.U. after   11 cycles
 SCF Done:  E(RB3LYP) =  -1453.29318413     A.U. after   11 cycles
 SCF Done:  E(RB3LYP) =  -1453.29321319     A.U. after   11 cycles
 SCF Done:  E(RB3LYP) =  -1453.29328104     A.U. after   11 cycles
 SCF Done:  E(RB3LYP) =  -1453.29330062     A.U. after   12 cycles
 SCF Done:  E(RB3LYP) =  -1453.29330024     A.U. after   12 cycles
 SCF Done:  E(RB3LYP) =  -1453.29331667     A.U. after   11 cycles
 SCF Done:  E(RB3LYP) =  -1453.29331235     A.U. after   10 cycles
 SCF Done:  E(RB3LYP) =  -1453.29331752     A.U. after   11 cycles
 SCF Done:  E(RB3LYP) =  -1453.29331696     A.U. after   10 cycles
 SCF Done:  E(RB3LYP) =  -1453.29331790     A.U. after   10 cycles
 SCF Done:  E(RB3LYP) =  -1453.29331789     A.U. after    8 cycles
 SCF Done:  E(RB3LYP) =  -1453.29331804     A.U. after    8 cycles
 Optimization completed.
    -- Stationary point found.

                         Standard orientation:
 ---------------------------------------------------------------------
 Center     Atomic      Atomic             Coordinates (Angstroms)
 Number     Number       Type             X           Y           Z
 ---------------------------------------------------------------------
      1          8           0       -3.794605    1.566457    1.251999
      2         16           0       -2.437424    2.092344    1.018197
      3          8           0       -1.850307    3.078009    1.940277
      4          6           0       -2.346729    2.701883   -0.707704
      5          6           0       -1.984787    1.457314   -1.518883
      6          6           0       -0.854756    0.743876   -0.741587
      7          7           0       -0.404049   -0.504999   -1.357759
      8          6           0       -1.418422   -1.476389   -1.803193
      9          6           0       -2.290562   -2.116625   -0.762422
     10          6           0       -2.192767   -3.233071    0.018189
     11          6           0       -3.337983   -3.236870    0.882483
     12          6           0       -4.054023   -2.123451    0.566971
     13          8           0       -3.436327   -1.434217   -0.435058
     14          6           0        0.735970   -1.114372   -0.664616
     15          6           0        2.039149   -0.339942   -0.834173
     16          6           0        2.238502    0.421171   -1.969521
     17          6           0        3.442253    1.129091   -2.188843
     18          6           0        4.456490    1.068170   -1.264055
     19          6           0        4.311134    0.287429   -0.087006
     20          6           0        5.357927    0.205829    0.870110
     21          6           0        5.227797   -0.561560    2.004141
     22          6           0        4.034449   -1.286341    2.227018
     23          6           0        2.998157   -1.226200    1.321159
     24          6           0        3.089840   -0.436867    0.138942
     25          6           0       -1.290894    0.679376    0.758041
     26          1           0       -3.316284    3.139142   -0.954850
     27          1           0       -1.569111    3.470459   -0.740683
     28          1           0       -2.869100    0.818904   -1.598607
     29          1           0       -1.652968    1.715956   -2.529640
     30          1           0        0.014197    1.411879   -0.774096
     31          1           0       -0.876604   -2.265486   -2.334744
     32          1           0       -2.060690   -0.989855   -2.543659
     33          1           0       -1.402048   -3.970340   -0.018708
     34          1           0       -3.591167   -3.973096    1.632598
     35          1           0       -4.969552   -1.688079    0.936255
     36          1           0        0.872522   -2.119227   -1.086056
     37          1           0        0.520154   -1.270590    0.402434
     38          1           0        1.438381    0.472020   -2.701878
     39          1           0        3.557460    1.721180   -3.092830
     40          1           0        5.385488    1.611205   -1.420435
     41          1           0        6.272697    0.764067    0.684783
     42          1           0        6.037218   -0.614797    2.726970
     43          1           0        3.934288   -1.896781    3.120459
     44          1           0        2.100938   -1.803206    1.517314
     45          1           0       -1.854141   -0.219320    1.007301
     46          1           0       -0.459115    0.806760    1.453178
 ---------------------------------------------------------------------

 The electronic state is 1-A.
 Alpha  occ. eigenvalues --  -89.07794 -19.21921 -19.12889 -19.12747 -14.34720
 Alpha  occ. eigenvalues --  -10.24265 -10.24260 -10.23949 -10.23525 -10.22735
 Alpha  occ. eigenvalues --  -10.22334 -10.21474 -10.21053 -10.20432 -10.20344
 Alpha  occ. eigenvalues --  -10.20147 -10.19524 -10.19455 -10.19436 -10.19406
 Alpha  occ. eigenvalues --  -10.19392 -10.19376 -10.19299 -10.19224 -10.18999
 Alpha  occ. eigenvalues --   -8.10830  -6.07246  -6.07161  -6.07153  -1.11228
 Alpha  occ. eigenvalues --   -1.08320  -0.98096  -0.94303  -0.87549  -0.84275
 Alpha  occ. eigenvalues --   -0.82360  -0.80269  -0.79061  -0.77266  -0.74921
 Alpha  occ. eigenvalues --   -0.74237  -0.73402  -0.71350  -0.69588  -0.65552
 Alpha  occ. eigenvalues --   -0.62430  -0.61528  -0.60598  -0.59812  -0.58716
 Alpha  occ. eigenvalues --   -0.57303  -0.55606  -0.53501  -0.52269  -0.51453
 Alpha  occ. eigenvalues --   -0.50785  -0.50304  -0.49198  -0.48132  -0.46847
 Alpha  occ. eigenvalues --   -0.45992  -0.45633  -0.44903  -0.44261  -0.43714
 Alpha  occ. eigenvalues --   -0.43502  -0.43376  -0.42702  -0.41754  -0.41474
 Alpha  occ. eigenvalues --   -0.41202  -0.40464  -0.39951  -0.39481  -0.39156
 Alpha  occ. eigenvalues --   -0.38707  -0.38403  -0.37289  -0.37155  -0.36621
 Alpha  occ. eigenvalues --   -0.35415  -0.33933  -0.33106  -0.32634  -0.31098
 Alpha  occ. eigenvalues --   -0.29812  -0.28576  -0.28304  -0.28225  -0.27510
 Alpha  occ. eigenvalues --   -0.24624  -0.23653  -0.22353  -0.21656
 Alpha virt. eigenvalues --   -0.04294  -0.01256   0.00348   0.02667   0.05760
 Alpha virt. eigenvalues --    0.06499   0.06570   0.07248   0.08218   0.08478
 Alpha virt. eigenvalues --    0.09038   0.09613   0.09940   0.10739   0.11009

 Mulliken charges:
               1
     1  O   -0.548834
     2  S    1.125505
     3  O   -0.526825
     4  C   -0.479577
     5  C   -0.327725
     6  C    0.047450
     7  N   -0.394970
     8  C   -0.256218
     9  C    0.333326
    10  C   -0.205583
    11  C   -0.183435
    12  C    0.087707
    13  O   -0.434950
    14  C   -0.202810
    15  C    0.075974
    16  C   -0.187079
    17  C   -0.132884
    18  C   -0.189513
    19  C    0.136438
    20  C   -0.193360
    21  C   -0.132187
    22  C   -0.132677
    23  C   -0.203882
    24  C    0.077427
    25  C   -0.534717
    26  H    0.206558
    27  H    0.197268
    28  H    0.190922
    29  H    0.167387
    30  H    0.161720
    31  H    0.166143
    32  H    0.169637
    33  H    0.139362
    34  H    0.145774
    35  H    0.173529
    36  H    0.157954
    37  H    0.146616
    38  H    0.139670
    39  H    0.130529
    40  H    0.130794
    41  H    0.131942
    42  H    0.132729
    43  H    0.131889
    44  H    0.129969
    45  H    0.226310
    46  H    0.206699
 Sum of Mulliken charges =  -0.00000

 Dipole moment (field-independent basis, Debye):
    X=              2.4500    Y=             -2.9704    Z=             -3.3604  Tot=              5.1106
 Quadrupole moment (field-independent basis, Debye-Ang):
   XX=           -153.8128   YY=           -151.9692   ZZ=           -151.7855
   XY=              9.8095   XZ=             11.1419   YZ=            -17.7599

 Normal termination of Gaussian 16 at Fri Nov  4 21:27:00 2022.
