 Gaussian 16, Revision B.01,
 Gaussian 16:  ES64L-G16RevB.01 20-Dec-2017

 -------------------------------------------------------------------
 #p b3lyp/6-31g(d) 6D 10F nosymm GFInput td=(50-50,nstate=2) SCF=XQC
 -------------------------------------------------------------------

 ------------------------------
 Gaussian input prepared by ASE
 ------------------------------
 Symbolic Z-matrix:
 Charge =  0 Multiplicity = 1

                          Input orientation:
 ---------------------------------------------------------------------
 Center     Atomic      Atomic             Coordinates (Angstroms)
 Number     Number       Type             X           Y           Z
 ---------------------------------------------------------------------
      1          8           0       -4.346898   -0.609621   -1.505416
      2         16           0       -3.127062   -1.434236   -1.433513
      3          8           0       -2.772699   -2.339833   -2.538408
      4          6           0       -3.142072   -2.345122    0.156632
      5          6           0       -2.515831   -1.364240    1.148428
      6          6           0       -1.272297   -0.770280    0.447724
      7          7           0       -0.561101    0.231157    1.243852
      8          6           0       -1.342841    1.294547    1.898868
      9          6           0       -2.075787    2.273144    1.027735
     10          6           0       -1.756948    3.466316    0.444595
     11          6           0       -2.887881    3.856607   -0.347366
     12          6           0       -3.817029    2.874809   -0.190134
     13          8           0       -3.343661    1.907805    0.647409
     14          6           0        0.671550    0.707986    0.607748
     15          6           0        1.785563   -0.333546    0.576859
     16          6           0        1.836725   -1.308007    1.554538
     17          6           0        2.868177   -2.274024    1.588975
     18          6           0        3.859584   -2.258596    0.637926
     19          6           0        3.864746   -1.268873   -0.380185
     20          6           0        4.891867   -1.234454   -1.361175
     21          6           0        4.909716   -0.268306   -2.339994
     22          6           0        3.891921    0.712452   -2.375585
     23          6           0        2.878850    0.705626   -1.441916
     24          6           0        2.819484   -0.282336   -0.417466
     25          6           0       -1.706157   -0.353751   -0.995027
     26          1           0       -4.178215   -2.612068    0.374494
     27          1           0       -2.542563   -3.249618    0.018927
     28          1           0       -3.245375   -0.583254    1.380290
     29          1           0       -2.231522   -1.859878    2.082312
     30          1           0       -0.562406   -1.596492    0.322052
     31          1           0       -0.640186    1.849684    2.528856
     32          1           0       -2.062437    0.826063    2.577262
     33          1           0       -0.828747    4.008329    0.566373
     34          1           0       -2.991497    4.749899   -0.947446
     35          1           0       -4.808585    2.707772   -0.581320
     36          1           0        1.021705    1.573035    1.186604
     37          1           0        0.478383    1.091305   -0.404837
     38          1           0        1.054068   -1.323359    2.307093
     39          1           0        2.869284   -3.027624    2.371996
     40          1           0        4.656123   -2.998662    0.652387
     41          1           0        5.671712   -1.991378   -1.320095
     42          1           0        5.702099   -0.254239   -3.083236
     43          1           0        3.909520    1.478784   -3.145866
     44          1           0        2.119949    1.478956   -1.491347
     45          1           0       -2.071823    0.670577   -1.058868
     46          1           0       -0.929410   -0.523054   -1.742890
 ---------------------------------------------------------------------

 SCF Done:  E(RB3LYP) =  -1453.29332639     A.U. after   14 cycles

 Excitation energies and oscillator strengths:

 Excited state symmetry could not be determined.
 Excited State   1:      Triplet-?Sym    2.6866 eV  461.50 nm  f=0.0000  <S**2>=2.000
      89 -> 98         0.12605
      91 -> 96        -0.17110
      93 -> 95        -0.10259
      94 -> 95         0.66941
      94 <- 95         0.10603
 This state for optimization and/or second-order correction.
 Total Energy, E(TD-HF/TD-DFT) =  -1453.19459689
 Copying the excited state density for this state as the 1-particle RhoCI density.

 Excited state symmetry could not be determined.
 Excited State   2:      Triplet-?Sym    3.9654 eV  312.67 nm  f=0.0000  <S**2>=2.000
      91 -> 95         0.52926
      94 -> 96        -0.45221

 Excited state symmetry could not be determined.
 Excited State   3:      Singlet-?Sym    4.2762 eV  289.94 nm  f=0.0219  <S**2>=0.000
      92 -> 95         0.18446
      93 -> 95         0.56849
      94 -> 95         0.36834

 Excited state symmetry could not be determined.
 Excited State   4:      Singlet-?Sym    4.3686 eV  283.81 nm  f=0.0831  <S**2>=0.000
      91 -> 96        -0.13665
      93 -> 95        -0.36006
      94 -> 95         0.58043

 Alpha  occ. eigenvalues --  -89.07794 -19.21921 -19.12889 -19.12747 -14.34721
 Alpha  occ. eigenvalues --  -10.24265 -10.24260 -10.23949 -10.23525 -10.22735
 Alpha  occ. eigenvalues --  -10.22334 -10.21474 -10.21053 -10.20432 -10.20344
 Alpha  occ. eigenvalues --  -10.20147 -10.19524 -10.19455 -10.19435 -10.19406
 Alpha  occ. eigenvalues --  -10.19392 -10.19375 -10.19299 -10.19224 -10.18999
 Alpha  occ. eigenvalues --   -8.10830  -6.07246  -6.07161  -6.07153  -1.11229
 Alpha  occ. eigenvalues --   -1.08320  -0.98096  -0.94303  -0.87548  -0.84275
 Alpha  occ. eigenvalues --   -0.82360  -0.80269  -0.79061  -0.77266  -0.74921
 Alpha  occ. eigenvalues --   -0.74237  -0.73402  -0.71350  -0.69588  -0.65552
 Alpha  occ. eigenvalues --   -0.62430  -0.61528  -0.60598  -0.59812  -0.58716
 Alpha  occ. eigenvalues --   -0.57303  -0.55606  -0.53501  -0.52269  -0.51453
 Alpha  occ. eigenvalues --   -0.50785  -0.50304  -0.49198  -0.48132  -0.46847
 Alpha  occ. eigenvalues --   -0.45992  -0.45633  -0.44903  -0.44261  -0.43714
 Alpha  occ. eigenvalues --   -0.43502  -0.43376  -0.42702  -0.41754  -0.41474
 Alpha  occ. eigenvalues --   -0.41202  -0.40464  -0.39951  -0.39481  -0.39156
 Alpha  occ. eigenvalues --   -0.38707  -0.38403  -0.37289  -0.37155  -0.36621
 Alpha  occ. eigenvalues --   -0.35415  -0.33933  -0.33106  -0.32634  -0.31098
 Alpha  occ. eigenvalues --   -0.29812  -0.28576  -0.28304  -0.28226  -0.27510
 Alpha  occ. eigenvalues --   -0.24624  -0.23653  -0.22353  -0.21656
 Alpha virt. eigenvalues --   -0.04294  -0.01256   0.00348   0.02667   0.05760
 Alpha virt. eigenvalues --    0.06498   0.06570   0.07248   0.08218   0.08478
 Alpha virt. eigenvalues --    0.09038   0.09614   0.09941   0.10739   0.11009

 Mulliken charges:
               1
     1  O   -0.548840
     2  S    1.125530
     3  O   -0.526824
     4  C   -0.479577
     5  C   -0.327731
     6  C    0.047429
     7  N   -0.394970
     8  C   -0.256221
     9  C    0.333361
    10  C   -0.205599
    11  C   -0.183429
    12  C    0.087706
    13  O   -0.434964
    14  C   -0.202805
    15  C    0.075967
    16  C   -0.187076
    17  C   -0.132873
    18  C   -0.189524
    19  C    0.136460
    20  C   -0.193372
    21  C   -0.132186
    22  C   -0.132664
    23  C   -0.203887
    24  C    0.077418
    25  C   -0.534724
    26  H    0.206558
    27  H    0.197269
    28  H    0.190922
    29  H    0.167391
    30  H    0.161722
    31  H    0.166142
    32  H    0.169636
    33  H    0.139363
    34  H    0.145774
    35  H    0.173531
    36  H    0.157953
    37  H    0.146612
    38  H    0.139670
    39  H    0.130527
    40  H    0.130794
    41  H    0.131942
    42  H    0.132727
    43  H    0.131888
    44  H    0.129968
    45  H    0.226310
    46  H    0.206697
 Sum of Mulliken charges =  -0.00000

 Dipole moment (field-independent basis, Debye):
    X=              3.0653    Y=              1.7653    Z=              3.6885  Tot=              5.1105
 Quadrupole moment (field-independent basis, Debye-Ang):
   XX=           -159.9475   YY=           -143.2804   ZZ=           -157.9328
   XY=             -6.8786   XZ=            -17.5369   YZ=            -14.0974

 Normal termination of Gaussian 16 at Sat Nov  5 09:30:55 2022.
