 Gaussian 16, Revision B.01,
 Gaussian 16:  ES64L-G16RevB.01 20-Dec-2017

 -----------------------------
 #p b3lyp/6-31g(d) opt SCF=XQC
 -----------------------------

 ------------------------------
 Gaussian input prepared by ASE
 ------------------------------
 Symbolic Z-matrix:
 Charge =  0 Multiplicity = 1

 SCF Done:  E(RB3LYP) =  -1275.78130840     A.U. after   18 cycles
 SCF Done:  E(RB3LYP) =  -1275.79329698     A.U. after   15 cycles
 SCF Done:  E(RB3LYP) =  -1275.79611072     A.U. after   14 cycles
 SCF Done:  E(RB3LYP) =  -1275.79689456     A.U. after   14 cycles
 SCF Done:  E(RB3LYP) =  -1275.79883986     A.U. after   15 cycles
 SCF Done:  E(RB3LYP) =  -1275.80166410     A.U. after   16 cycles
 SCF Done:  E(RB3LYP) =  -1275.80296099     A.U. after   15 cycles
 SCF Done:  E(RB3LYP) =  -1275.80744731     A.U. after   14 cycles
 SCF Done:  E(RB3LYP) =  -1275.81207260     A.U. after   16 cycles
 SCF Done:  E(RB3LYP) =  -1275.81275764     A.U. after   13 cycles
 SCF Done:  E(RB3LYP) =  -1275.81344196     A.U. after   11 cycles
 SCF Done:  E(RB3LYP) =  -1275.81346662     A.U. after   12 cycles
 SCF Done:  E(RB3LYP) =  -1275.81347851     A.U. after   12 cycles
 SCF Done:  E(RB3LYP) =  -1275.81348543     A.U. after   12 cycles
 SCF Done:  E(RB3LYP) =  -1275.81348730     A.U. after   10 cycles
 SCF Done:  E(RB3LYP) =  -1275.81349018     A.U. after   11 cycles
 SCF Done:  E(RB3LYP) =  -1275.81349154     A.U. after   10 cycles
 SCF Done:  E(RB3LYP) =  -1275.81349191     A.U. after    8 cycles
 SCF Done:  E(RB3LYP) =  -1275.81349208     A.U. after    8 cycles
 SCF Done:  E(RB3LYP) =  -1275.81349211     A.U. after    7 cycles
 Optimization completed.
    -- Stationary point found.

                         Standard orientation:
 ---------------------------------------------------------------------
 Center     Atomic      Atomic             Coordinates (Angstroms)
 Number     Number       Type             X           Y           Z
 ---------------------------------------------------------------------
      1          6           0        1.564326    2.682127    0.010905
      2          6           0        2.270324    1.346534    0.005411
      3          6           0        3.654184    1.309518    0.004886
      4          6           0        4.360297    0.082704    0.000149
      5          7           0        5.734126    0.050342    0.000082
      6          6           0        6.440799   -1.221840   -0.007375
      7          6           0        6.495725    1.290399    0.002217
      8          6           0        3.599310   -1.112207   -0.004626
      9          6           0        2.211725   -1.118175   -0.004124
     10          6           0        1.516554   -2.457011   -0.009857
     11          6           0        1.516749    0.133581    0.001194
     12          7           0        0.150438    0.347339    0.002178
     13          7           0       -0.624301   -0.668351    0.001725
     14          6           0       -1.976216   -0.327301    0.000843
     15          7           0       -2.550486    0.838202   -0.007776
     16          6           0       -3.922776    0.705518   -0.006030
     17          6           0       -4.831353    1.777451   -0.013589
     18          6           0       -6.193660    1.510146   -0.010718
     19          6           0       -6.670654    0.186603   -0.000477
     20          6           0       -5.790619   -0.892321    0.007069
     21          6           0       -4.419152   -0.627189    0.004204
     22         16           0       -3.069377   -1.739190    0.011474
     23          1           0        2.290677    3.501188    0.010307
     24          1           0        0.918062    2.786557    0.887707
     25          1           0        0.911535    2.790467   -0.860477
     26          1           0        4.193976    2.248666    0.008126
     27          1           0        6.201471   -1.814786   -0.900350
     28          1           0        6.199715   -1.825579    0.877764
     29          1           0        7.515353   -1.034158   -0.005029
     30          1           0        6.281878    1.900091   -0.885959
     31          1           0        7.561142    1.056389    0.002634
     32          1           0        6.280757    1.897133    0.892060
     33          1           0        4.106094   -2.069913   -0.009065
     34          1           0        2.256021   -3.265271   -0.015650
     35          1           0        0.862090   -2.566841   -0.879766
     36          1           0        0.865648   -2.576128    0.861495
     37          1           0       -4.448357    2.793034   -0.021413
     38          1           0       -6.903028    2.333080   -0.016437
     39          1           0       -7.741250    0.001394    0.001569
     40          1           0       -6.163564   -1.912217    0.014942
 ---------------------------------------------------------------------

 The electronic state is 1-A.
 Alpha  occ. eigenvalues --  -88.89724 -14.37581 -14.36499 -14.35792 -14.32083
 Alpha  occ. eigenvalues --  -10.26287 -10.24191 -10.23322 -10.23308 -10.21568
 Alpha  occ. eigenvalues --  -10.21519 -10.20636 -10.20543 -10.20209 -10.19304
 Alpha  occ. eigenvalues --  -10.18786 -10.18539 -10.18468 -10.18430 -10.18331
 Alpha  occ. eigenvalues --  -10.17310 -10.17131  -7.95874  -5.92267  -5.91949
 Alpha  occ. eigenvalues --   -5.91535  -1.01679  -0.96576  -0.94763  -0.85895
 Alpha  occ. eigenvalues --   -0.83919  -0.79821  -0.78516  -0.78001  -0.74437
 Alpha  occ. eigenvalues --   -0.74263  -0.72997  -0.70357  -0.68556  -0.67420
 Alpha  occ. eigenvalues --   -0.64598  -0.59864  -0.59075  -0.58077  -0.57029
 Alpha  occ. eigenvalues --   -0.54074  -0.52223  -0.50902  -0.49825  -0.48006
 Alpha  occ. eigenvalues --   -0.47816  -0.46959  -0.44958  -0.43537  -0.43316
 Alpha  occ. eigenvalues --   -0.43215  -0.42480  -0.42150  -0.41677  -0.41357
 Alpha  occ. eigenvalues --   -0.40562  -0.40137  -0.40056  -0.39287  -0.38882
 Alpha  occ. eigenvalues --   -0.37832  -0.37750  -0.36791  -0.36323  -0.35335
 Alpha  occ. eigenvalues --   -0.35235  -0.33211  -0.32903  -0.32749  -0.29091
 Alpha  occ. eigenvalues --   -0.28100  -0.26379  -0.24174  -0.23290  -0.22349
 Alpha  occ. eigenvalues --   -0.21275  -0.19184
 Alpha virt. eigenvalues --   -0.07970   0.00218   0.00529   0.00612   0.02480
 Alpha virt. eigenvalues --    0.03704   0.07580   0.07778   0.09219   0.10660
 Alpha virt. eigenvalues --    0.11300   0.12214   0.12479   0.14089   0.14193

 Mulliken charges:
               1
     1  C   -0.505885
     2  C    0.161669
     3  C   -0.284821
     4  C    0.423592
     5  N   -0.481169
     6  C   -0.314846
     7  C   -0.314514
     8  C   -0.292812
     9  C    0.195126
    10  C   -0.498990
    11  C    0.180675
    12  N   -0.307729
    13  N   -0.334657
    14  C    0.293513
    15  N   -0.469921
    16  C    0.287588
    17  C   -0.147758
    18  C   -0.148221
    19  C   -0.118917
    20  C   -0.184921
    21  C   -0.123152
    22  S    0.209108
    23  H    0.136514
    24  H    0.179650
    25  H    0.180096
    26  H    0.123848
    27  H    0.168509
    28  H    0.168668
    29  H    0.161182
    30  H    0.168589
    31  H    0.161073
    32  H    0.168732
    33  H    0.124365
    34  H    0.135097
    35  H    0.177979
    36  H    0.178054
    37  H    0.142854
    38  H    0.130597
    39  H    0.130280
    40  H    0.140954
 Sum of Mulliken charges =  -0.00000

 Dipole moment (field-independent basis, Debye):
    X=              5.6121    Y=             -0.2828    Z=             -0.0008  Tot=              5.6192
 Quadrupole moment (field-independent basis, Debye-Ang):
   XX=            -84.1168   YY=           -127.8503   ZZ=           -139.2371
   XY=              0.5393   XZ=             -0.0360   YZ=              0.0029

 Normal termination of Gaussian 16 at Fri Nov  4 21:19:57 2022.
