 Gaussian 16, Revision B.01,
 Gaussian 16:  ES64L-G16RevB.01 20-Dec-2017

 -------------------------------------------------------------------
 #p b3lyp/6-31g(d) 6D 10F nosymm GFInput td=(50-50,nstate=2) SCF=XQC
 -------------------------------------------------------------------

 ------------------------------
 Gaussian input prepared by ASE
 ------------------------------
 Symbolic Z-matrix:
 Charge =  0 Multiplicity = 1

                          Input orientation:
 ---------------------------------------------------------------------
 Center     Atomic      Atomic             Coordinates (Angstroms)
 Number     Number       Type             X           Y           Z
 ---------------------------------------------------------------------
      1          6           0       -0.517265    2.467853   -0.548548
      2          6           0       -1.363389    1.260626   -0.218472
      3          6           0       -2.741018    1.347134   -0.323805
      4          6           0       -3.575399    0.243202   -0.025758
      5          7           0       -4.942541    0.333122   -0.132022
      6          6           0       -5.782555   -0.813129    0.181626
      7          6           0       -5.563671    1.579362   -0.554938
      8          6           0       -2.950117   -0.959249    0.386637
      9          6           0       -1.573461   -1.086978    0.504672
     10          6           0       -1.029192   -2.420315    0.953848
     11          6           0       -0.747393    0.041494    0.197956
     12          7           0        0.632040    0.124570    0.250524
     13          7           0        1.290676   -0.909828    0.608390
     14          6           0        2.669543   -0.703814    0.624903
     15          7           0        3.365670    0.357297    0.346139
     16          6           0        4.713448    0.109970    0.498157
     17          6           0        5.731293    1.052363    0.273442
     18          6           0        7.054603    0.677485    0.462278
     19          6           0        7.384853   -0.626841    0.873450
     20          6           0        6.394578   -1.578390    1.102592
     21          6           0        5.061942   -1.204777    0.913604
     22         16           0        3.601808   -2.146451    1.112986
     23          1           0       -1.149287    3.311209   -0.844767
     24          1           0        0.183606    2.252041   -1.360675
     25          1           0        0.094677    2.770401    0.306538
     26          1           0       -3.174613    2.287237   -0.642532
     27          1           0       -5.658361   -1.135194    1.224275
     28          1           0       -5.560318   -1.669652   -0.468814
     29          1           0       -6.828612   -0.540832    0.034942
     30          1           0       -5.333877    2.402479    0.134980
     31          1           0       -6.646568    1.450170   -0.577689
     32          1           0       -5.235619    1.875560   -1.560326
     33          1           0       -3.557404   -1.824714    0.623754
     34          1           0       -1.851274   -3.122736    1.129674
     35          1           0       -0.439206   -2.325945    1.870439
     36          1           0       -0.348293   -2.847642    0.211627
     37          1           0        5.461025    2.054683   -0.043522
     38          1           0        7.847773    1.399905    0.290679
     39          1           0        8.427490   -0.897731    1.014900
     40          1           0        6.654404   -2.583945    1.419904
 ---------------------------------------------------------------------

 SCF Done:  E(RB3LYP) =  -1275.81348897     A.U. after   16 cycles

 Excitation energies and oscillator strengths:

 Excited state symmetry could not be determined.
 Excited State   1:      Triplet-?Sym    1.6495 eV  751.66 nm  f=0.0000  <S**2>=2.000
      81 -> 83         0.69109
      81 -> 88        -0.10876
 This state for optimization and/or second-order correction.
 Total Energy, E(TD-HF/TD-DFT) =  -1275.75287221
 Copying the excited state density for this state as the 1-particle RhoCI density.

 Excited state symmetry could not be determined.
 Excited State   2:      Triplet-?Sym    1.7263 eV  718.20 nm  f=0.0000  <S**2>=2.000
      82 -> 83         0.69231

 Excited state symmetry could not be determined.
 Excited State   3:      Singlet-?Sym    2.3313 eV  531.83 nm  f=0.0001  <S**2>=0.000
      81 -> 83         0.70426

 Excited state symmetry could not be determined.
 Excited State   4:      Singlet-?Sym    2.9583 eV  419.11 nm  f=1.2493  <S**2>=0.000
      82 -> 83         0.70704

 Alpha  occ. eigenvalues --  -88.89723 -14.37581 -14.36499 -14.35792 -14.32083
 Alpha  occ. eigenvalues --  -10.26287 -10.24191 -10.23322 -10.23308 -10.21568
 Alpha  occ. eigenvalues --  -10.21519 -10.20636 -10.20543 -10.20209 -10.19304
 Alpha  occ. eigenvalues --  -10.18786 -10.18539 -10.18468 -10.18430 -10.18331
 Alpha  occ. eigenvalues --  -10.17310 -10.17131  -7.95874  -5.92267  -5.91949
 Alpha  occ. eigenvalues --   -5.91534  -1.01678  -0.96576  -0.94763  -0.85895
 Alpha  occ. eigenvalues --   -0.83919  -0.79821  -0.78516  -0.78001  -0.74437
 Alpha  occ. eigenvalues --   -0.74263  -0.72997  -0.70357  -0.68556  -0.67420
 Alpha  occ. eigenvalues --   -0.64598  -0.59864  -0.59075  -0.58077  -0.57029
 Alpha  occ. eigenvalues --   -0.54074  -0.52223  -0.50902  -0.49825  -0.48006
 Alpha  occ. eigenvalues --   -0.47816  -0.46959  -0.44958  -0.43537  -0.43316
 Alpha  occ. eigenvalues --   -0.43215  -0.42480  -0.42150  -0.41677  -0.41357
 Alpha  occ. eigenvalues --   -0.40562  -0.40137  -0.40056  -0.39287  -0.38882
 Alpha  occ. eigenvalues --   -0.37832  -0.37750  -0.36791  -0.36323  -0.35335
 Alpha  occ. eigenvalues --   -0.35235  -0.33211  -0.32903  -0.32749  -0.29091
 Alpha  occ. eigenvalues --   -0.28100  -0.26379  -0.24174  -0.23290  -0.22349
 Alpha  occ. eigenvalues --   -0.21274  -0.19184
 Alpha virt. eigenvalues --   -0.07970   0.00218   0.00529   0.00612   0.02480
 Alpha virt. eigenvalues --    0.03704   0.07580   0.07778   0.09219   0.10660
 Alpha virt. eigenvalues --    0.11300   0.12214   0.12479   0.14089   0.14193

 Mulliken charges:
               1
     1  C   -0.505887
     2  C    0.161670
     3  C   -0.284824
     4  C    0.423627
     5  N   -0.481195
     6  C   -0.314847
     7  C   -0.314508
     8  C   -0.292812
     9  C    0.195125
    10  C   -0.498986
    11  C    0.180662
    12  N   -0.307721
    13  N   -0.334660
    14  C    0.293515
    15  N   -0.469922
    16  C    0.287588
    17  C   -0.147748
    18  C   -0.148236
    19  C   -0.118913
    20  C   -0.184914
    21  C   -0.123163
    22  S    0.209107
    23  H    0.136514
    24  H    0.179650
    25  H    0.180098
    26  H    0.123849
    27  H    0.168510
    28  H    0.168668
    29  H    0.161183
    30  H    0.168588
    31  H    0.161073
    32  H    0.168733
    33  H    0.124365
    34  H    0.135096
    35  H    0.177979
    36  H    0.178054
    37  H    0.142855
    38  H    0.130598
    39  H    0.130280
    40  H    0.140954
 Sum of Mulliken charges =  -0.00000

 Dipole moment (field-independent basis, Debye):
    X=             -5.6012    Y=              0.2242    Z=             -0.3903  Tot=              5.6193
 Quadrupole moment (field-independent basis, Debye-Ang):
   XX=            -93.2394   YY=           -128.5095   ZZ=           -138.1671
   XY=             -2.7538   XZ=              2.0285   YZ=             -3.4148

 Normal termination of Gaussian 16 at Sat Nov  5 09:27:42 2022.
