 Gaussian 16, Revision B.01,
 Gaussian 16:  ES64L-G16RevB.01 20-Dec-2017

 -----------------------------
 #p b3lyp/6-31g(d) opt SCF=XQC
 -----------------------------

 ------------------------------
 Gaussian input prepared by ASE
 ------------------------------
 Symbolic Z-matrix:
 Charge =  0 Multiplicity = 1

 SCF Done:  E(RB3LYP) =  -1432.33430379     A.U. after   15 cycles
 SCF Done:  E(RB3LYP) =  -1432.33923234     A.U. after   13 cycles
 SCF Done:  E(RB3LYP) =  -1432.34080298     A.U. after   12 cycles
 SCF Done:  E(RB3LYP) =  -1432.34085275     A.U. after   11 cycles
 SCF Done:  E(RB3LYP) =  -1432.34098353     A.U. after   11 cycles
 SCF Done:  E(RB3LYP) =  -1432.34100086     A.U. after   10 cycles
 SCF Done:  E(RB3LYP) =  -1432.34102175     A.U. after   10 cycles
 SCF Done:  E(RB3LYP) =  -1432.34103842     A.U. after   10 cycles
 SCF Done:  E(RB3LYP) =  -1432.34104370     A.U. after   10 cycles
 SCF Done:  E(RB3LYP) =  -1432.34104585     A.U. after    8 cycles
 SCF Done:  E(RB3LYP) =  -1432.34190769     A.U. after   13 cycles
 SCF Done:  E(RB3LYP) =  -1432.34192520     A.U. after   10 cycles
 SCF Done:  E(RB3LYP) =  -1432.34190079     A.U. after   10 cycles
 SCF Done:  E(RB3LYP) =  -1432.34193902     A.U. after   10 cycles
 SCF Done:  E(RB3LYP) =  -1432.34194524     A.U. after   10 cycles
 SCF Done:  E(RB3LYP) =  -1432.34194659     A.U. after   10 cycles
 SCF Done:  E(RB3LYP) =  -1432.34194852     A.U. after    9 cycles
 SCF Done:  E(RB3LYP) =  -1432.34194843     A.U. after    8 cycles
 SCF Done:  E(RB3LYP) =  -1432.34194886     A.U. after    8 cycles
 SCF Done:  E(RB3LYP) =  -1432.34194889     A.U. after    7 cycles
 Optimization completed on the basis of negligible forces.
    -- Stationary point found.

                         Standard orientation:
 ---------------------------------------------------------------------
 Center     Atomic      Atomic             Coordinates (Angstroms)
 Number     Number       Type             X           Y           Z
 ---------------------------------------------------------------------
      1          6           0        8.618840    1.503455    1.391579
      2          6           0        8.409521    1.257398   -0.098395
      3          8           0        7.694148    0.042737   -0.357938
      4          6           0        6.339802    0.009985   -0.255690
      5          6           0        5.519385    1.102556    0.055626
      6          6           0        4.137634    0.930220    0.106035
      7          6           0        3.529759   -0.311025   -0.140872
      8          6           0        2.075645   -0.417379   -0.067494
      9          6           0        1.324396   -1.528003   -0.215881
     10          6           0       -0.145378   -1.612906   -0.098755
     11          8           0       -0.718241   -2.679398    0.106040
     12          7           0       -0.858857   -0.430883   -0.234563
     13          6           0       -2.230307   -0.289439   -0.123738
     14          7           0       -2.787562    0.870929   -0.295638
     15          6           0       -4.161759    0.772847   -0.131394
     16          6           0       -5.062078    1.852195   -0.250493
     17          6           0       -4.557559    3.233481   -0.580030
     18          6           0       -6.412554    1.580824   -0.052149
     19          6           0       -6.902372    0.293574    0.256847
     20          6           0       -8.384899    0.077843    0.459095
     21          6           0       -6.003064   -0.766128    0.371668
     22          6           0       -4.642925   -0.516007    0.176969
     23         16           0       -3.297507   -1.652744    0.253252
     24          6           0        4.376292   -1.397717   -0.451222
     25          6           0        5.749107   -1.243073   -0.507128
     26          1           0        9.140324    0.655057    1.845618
     27          1           0        7.670015    1.642756    1.918585
     28          1           0        9.228000    2.402562    1.539312
     29          1           0        9.370457    1.112653   -0.599580
     30          1           0        7.906969    2.102039   -0.585973
     31          1           0        5.938513    2.080385    0.261069
     32          1           0        3.513047    1.786731    0.349859
     33          1           0        1.577135    0.526382    0.157320
     34          1           0        1.777970   -2.502345   -0.369411
     35          1           0       -0.387155    0.420696   -0.510053
     36          1           0       -3.843404    3.585065    0.174026
     37          1           0       -5.382161    3.951071   -0.634635
     38          1           0       -4.027307    3.243437   -1.539685
     39          1           0       -7.124651    2.399642   -0.139434
     40          1           0       -8.956597    0.354806   -0.435770
     41          1           0       -8.609181   -0.969246    0.685840
     42          1           0       -8.770073    0.687607    1.286302
     43          1           0       -6.359352   -1.765112    0.608442
     44          1           0        3.951225   -2.375740   -0.655259
     45          1           0        6.399105   -2.077769   -0.749501
 ---------------------------------------------------------------------

 The electronic state is 1-A.
 Alpha  occ. eigenvalues --  -88.90240 -19.19190 -19.12768 -14.38745 -14.32225
 Alpha  occ. eigenvalues --  -10.30285 -10.28584 -10.26703 -10.25805 -10.22249
 Alpha  occ. eigenvalues --  -10.21054 -10.20975 -10.20776 -10.20746 -10.20670
 Alpha  occ. eigenvalues --  -10.20431 -10.20405 -10.20006 -10.19651 -10.18915
 Alpha  occ. eigenvalues --  -10.18882 -10.18355 -10.17791 -10.17511 -10.17331
 Alpha  occ. eigenvalues --   -7.96219  -5.92660  -5.92303  -5.91841  -1.07757
 Alpha  occ. eigenvalues --   -1.04834  -0.97859  -0.92044  -0.87261  -0.84142
 Alpha  occ. eigenvalues --   -0.81492  -0.79377  -0.78460  -0.76596  -0.76187
 Alpha  occ. eigenvalues --   -0.74603  -0.72411  -0.68874  -0.67880  -0.67004
 Alpha  occ. eigenvalues --   -0.64338  -0.62634  -0.61348  -0.59744  -0.58443
 Alpha  occ. eigenvalues --   -0.56341  -0.55834  -0.54586  -0.52393  -0.50534
 Alpha  occ. eigenvalues --   -0.49697  -0.48313  -0.47701  -0.46965  -0.45940
 Alpha  occ. eigenvalues --   -0.44772  -0.44618  -0.44070  -0.43306  -0.42978
 Alpha  occ. eigenvalues --   -0.41940  -0.41562  -0.41413  -0.40818  -0.40621
 Alpha  occ. eigenvalues --   -0.40199  -0.39645  -0.38927  -0.38882  -0.38632
 Alpha  occ. eigenvalues --   -0.38509  -0.37765  -0.36409  -0.36085  -0.34939
 Alpha  occ. eigenvalues --   -0.34260  -0.33472  -0.33402  -0.32442  -0.29193
 Alpha  occ. eigenvalues --   -0.28525  -0.28016  -0.27550  -0.26772  -0.26124
 Alpha  occ. eigenvalues --   -0.22357  -0.21755  -0.20293
 Alpha virt. eigenvalues --   -0.06712  -0.01658  -0.01197   0.01067   0.02487
 Alpha virt. eigenvalues --    0.03321   0.05136   0.06764   0.07632   0.09232
 Alpha virt. eigenvalues --    0.09578   0.10468   0.11469   0.11771   0.12377

 Mulliken charges:
               1
     1  C   -0.464391
     2  C   -0.042301
     3  O   -0.513735
     4  C    0.387244
     5  C   -0.192597
     6  C   -0.204661
     7  C    0.173057
     8  C   -0.167764
     9  C   -0.202987
    10  C    0.613044
    11  O   -0.504044
    12  N   -0.685773
    13  C    0.333374
    14  N   -0.545784
    15  C    0.221824
    16  C    0.170025
    17  C   -0.517025
    18  C   -0.266417
    19  C    0.202318
    20  C   -0.531300
    21  C   -0.254640
    22  C   -0.130197
    23  S    0.274260
    24  C   -0.176733
    25  C   -0.176311
    26  H    0.168877
    27  H    0.164490
    28  H    0.153724
    29  H    0.163421
    30  H    0.147243
    31  H    0.140240
    32  H    0.136344
    33  H    0.130240
    34  H    0.158951
    35  H    0.350714
    36  H    0.165176
    37  H    0.145657
    38  H    0.165834
    39  H    0.112244
    40  H    0.160374
    41  H    0.153788
    42  H    0.160360
    43  H    0.131991
    44  H    0.143699
    45  H    0.148147
 Sum of Mulliken charges =  -0.00000

 Dipole moment (field-independent basis, Debye):
    X=              5.1294    Y=              3.7119    Z=              0.0062  Tot=              6.3316
 Quadrupole moment (field-independent basis, Debye-Ang):
   XX=           -109.2609   YY=           -151.2286   ZZ=           -156.1040
   XY=              8.5824   XZ=              1.4145   YZ=              1.8448

 Normal termination of Gaussian 16 at Fri Nov  4 21:35:25 2022.
