 Gaussian 16, Revision B.01,
 Gaussian 16:  ES64L-G16RevB.01 20-Dec-2017

 -------------------------------------------------------------------
 #p b3lyp/6-31g(d) 6D 10F nosymm GFInput td=(50-50,nstate=2) SCF=XQC
 -------------------------------------------------------------------

 ------------------------------
 Gaussian input prepared by ASE
 ------------------------------
 Symbolic Z-matrix:
 Charge =  0 Multiplicity = 1

                          Input orientation:
 ---------------------------------------------------------------------
 Center     Atomic      Atomic             Coordinates (Angstroms)
 Number     Number       Type             X           Y           Z
 ---------------------------------------------------------------------
      1          6           0        8.196858   -2.024872   -0.607512
      2          6           0        8.013104   -1.258100    0.697354
      3          8           0        7.379174    0.012470    0.501630
      4          6           0        6.029150    0.091828    0.371564
      5          6           0        5.138067   -0.986841    0.450035
      6          6           0        3.770018   -0.757163    0.319008
      7          6           0        3.244997    0.527073    0.103931
      8          6           0        1.800340    0.691570   -0.026644
      9          6           0        1.123211    1.828126   -0.290489
     10          6           0       -0.338729    1.958186   -0.454748
     11          8           0       -0.842887    2.918190   -1.030711
     12          7           0       -1.126089    0.946474    0.075514
     13          6           0       -2.504468    0.861176   -0.001687
     14          7           0       -3.134311   -0.127391    0.557391
     15          6           0       -4.500316   -0.007566    0.346008
     16          6           0       -5.467607   -0.917560    0.821414
     17          6           0       -5.051172   -2.123471    1.623565
     18          6           0       -6.798978   -0.649344    0.517644
     19          6           0       -7.206678    0.475034   -0.232002
     20          6           0       -8.673436    0.698166   -0.522112
     21          6           0       -6.241637    1.368245   -0.696520
     22          6           0       -4.899275    1.117992   -0.403463
     23         16           0       -3.483854    2.068804   -0.851437
     24          6           0        4.161756    1.598276    0.027061
     25          6           0        5.522062    1.387615    0.156869
     26          1           0        8.769134   -1.424662   -1.321742
     27          1           0        7.237768   -2.280924   -1.067940
     28          1           0        8.745841   -2.954739   -0.419742
     29          1           0        8.984469   -1.006799    1.131902
     30          1           0        7.460170   -1.844193    1.441981
     31          1           0        5.491983   -1.998644    0.608225
     32          1           0        3.089996   -1.603856    0.381053
     33          1           0        1.240622   -0.237824    0.085969
     34          1           0        1.639616    2.763833   -0.481332
     35          1           0       -0.708580    0.218395    0.640468
     36          1           0       -4.365875   -2.761655    1.053199
     37          1           0       -5.919977   -2.722970    1.912813
     38          1           0       -4.516713   -1.828542    2.534375
     39          1           0       -7.561838   -1.338944    0.874937
     40          1           0       -9.256232    0.789841    0.403239
     41          1           0       -8.831134    1.610526   -1.105930
     42          1           0       -9.102262   -0.138131   -1.088821
     43          1           0       -6.534229    2.240403   -1.275057
     44          1           0        3.801918    2.610137   -0.132613
     45          1           0        6.226027    2.211833    0.101556
 ---------------------------------------------------------------------

 SCF Done:  E(RB3LYP) =  -1432.34195047     A.U. after   16 cycles

 Excitation energies and oscillator strengths:

 Excited state symmetry could not be determined.
 Excited State   1:      Triplet-?Sym    2.4850 eV  498.92 nm  f=0.0000  <S**2>=2.000
      85 -> 94        -0.16614
      91 -> 94         0.48460
      91 -> 96        -0.10180
      92 -> 94        -0.32552
      93 -> 94        -0.31659
 This state for optimization and/or second-order correction.
 Total Energy, E(TD-HF/TD-DFT) =  -1432.25062711
 Copying the excited state density for this state as the 1-particle RhoCI density.

 Excited state symmetry could not be determined.
 Excited State   2:      Triplet-?Sym    2.8795 eV  430.58 nm  f=0.0000  <S**2>=2.000
      91 -> 94         0.24260
      92 -> 94        -0.14647
      93 -> 94         0.54391
      93 -> 96         0.28452

 Excited state symmetry could not be determined.
 Excited State   3:      Singlet-?Sym    3.2811 eV  377.88 nm  f=0.3897  <S**2>=0.000
      93 -> 94         0.70540

 Excited state symmetry could not be determined.
 Excited State   4:      Singlet-?Sym    3.6711 eV  337.73 nm  f=0.1052  <S**2>=0.000
      91 -> 94         0.19349
      92 -> 94         0.67544

 Alpha  occ. eigenvalues --  -88.90240 -19.19190 -19.12768 -14.38745 -14.32225
 Alpha  occ. eigenvalues --  -10.30285 -10.28584 -10.26703 -10.25805 -10.22249
 Alpha  occ. eigenvalues --  -10.21054 -10.20976 -10.20776 -10.20746 -10.20670
 Alpha  occ. eigenvalues --  -10.20431 -10.20405 -10.20006 -10.19651 -10.18915
 Alpha  occ. eigenvalues --  -10.18882 -10.18355 -10.17791 -10.17511 -10.17331
 Alpha  occ. eigenvalues --   -7.96219  -5.92660  -5.92303  -5.91841  -1.07757
 Alpha  occ. eigenvalues --   -1.04834  -0.97859  -0.92044  -0.87261  -0.84142
 Alpha  occ. eigenvalues --   -0.81492  -0.79377  -0.78460  -0.76596  -0.76187
 Alpha  occ. eigenvalues --   -0.74603  -0.72411  -0.68874  -0.67880  -0.67004
 Alpha  occ. eigenvalues --   -0.64338  -0.62634  -0.61348  -0.59744  -0.58443
 Alpha  occ. eigenvalues --   -0.56341  -0.55834  -0.54586  -0.52393  -0.50534
 Alpha  occ. eigenvalues --   -0.49697  -0.48313  -0.47701  -0.46965  -0.45940
 Alpha  occ. eigenvalues --   -0.44772  -0.44618  -0.44070  -0.43306  -0.42978
 Alpha  occ. eigenvalues --   -0.41940  -0.41562  -0.41413  -0.40818  -0.40621
 Alpha  occ. eigenvalues --   -0.40199  -0.39645  -0.38927  -0.38882  -0.38632
 Alpha  occ. eigenvalues --   -0.38509  -0.37765  -0.36409  -0.36085  -0.34939
 Alpha  occ. eigenvalues --   -0.34260  -0.33472  -0.33402  -0.32442  -0.29193
 Alpha  occ. eigenvalues --   -0.28525  -0.28016  -0.27550  -0.26772  -0.26124
 Alpha  occ. eigenvalues --   -0.22357  -0.21755  -0.20293
 Alpha virt. eigenvalues --   -0.06712  -0.01658  -0.01197   0.01067   0.02487
 Alpha virt. eigenvalues --    0.03321   0.05136   0.06764   0.07632   0.09232
 Alpha virt. eigenvalues --    0.09578   0.10468   0.11469   0.11771   0.12377

 Mulliken charges:
               1
     1  C   -0.464390
     2  C   -0.042308
     3  O   -0.513727
     4  C    0.387235
     5  C   -0.192587
     6  C   -0.204665
     7  C    0.173054
     8  C   -0.167761
     9  C   -0.202992
    10  C    0.613048
    11  O   -0.504043
    12  N   -0.685779
    13  C    0.333385
    14  N   -0.545782
    15  C    0.221822
    16  C    0.170024
    17  C   -0.517025
    18  C   -0.266422
    19  C    0.202329
    20  C   -0.531301
    21  C   -0.254642
    22  C   -0.130198
    23  S    0.274250
    24  C   -0.176726
    25  C   -0.176316
    26  H    0.168877
    27  H    0.164489
    28  H    0.153725
    29  H    0.163422
    30  H    0.147244
    31  H    0.140239
    32  H    0.136345
    33  H    0.130240
    34  H    0.158951
    35  H    0.350715
    36  H    0.165177
    37  H    0.145657
    38  H    0.165835
    39  H    0.112244
    40  H    0.160374
    41  H    0.153788
    42  H    0.160360
    43  H    0.131991
    44  H    0.143698
    45  H    0.148148
 Sum of Mulliken charges =  -0.00000

 Dipole moment (field-independent basis, Debye):
    X=              4.8792    Y=             -3.7901    Z=              1.3844  Tot=              6.3316
 Quadrupole moment (field-independent basis, Debye-Ang):
   XX=           -113.4683   YY=           -152.4817   ZZ=           -156.5851
   XY=             -7.9181   XZ=              2.1558   YZ=             -0.0308

 Normal termination of Gaussian 16 at Sat Nov  5 09:27:57 2022.
