 Gaussian 16, Revision B.01,
 Gaussian 16:  ES64L-G16RevB.01 20-Dec-2017

 -----------------------------
 #p b3lyp/6-31g(d) opt SCF=XQC
 -----------------------------

 ------------------------------
 Gaussian input prepared by ASE
 ------------------------------
 Symbolic Z-matrix:
 Charge =  0 Multiplicity = 1

 SCF Done:  E(RB3LYP) =  -1351.06954415     A.U. after   15 cycles
 SCF Done:  E(RB3LYP) =  -1351.07609662     A.U. after   12 cycles
 SCF Done:  E(RB3LYP) =  -1351.07657892     A.U. after   11 cycles
 SCF Done:  E(RB3LYP) =  -1351.07689318     A.U. after   11 cycles
 SCF Done:  E(RB3LYP) =  -1351.07696984     A.U. after   10 cycles
 SCF Done:  E(RB3LYP) =  -1351.07704039     A.U. after   10 cycles
 SCF Done:  E(RB3LYP) =  -1351.07706208     A.U. after    9 cycles
 SCF Done:  E(RB3LYP) =  -1351.07707250     A.U. after   10 cycles
 SCF Done:  E(RB3LYP) =  -1351.07707789     A.U. after   10 cycles
 SCF Done:  E(RB3LYP) =  -1351.07708151     A.U. after    9 cycles
 SCF Done:  E(RB3LYP) =  -1351.07708480     A.U. after    9 cycles
 SCF Done:  E(RB3LYP) =  -1351.07708572     A.U. after    8 cycles
 SCF Done:  E(RB3LYP) =  -1351.07708673     A.U. after    9 cycles
 SCF Done:  E(RB3LYP) =  -1351.07708715     A.U. after    8 cycles
 SCF Done:  E(RB3LYP) =  -1351.07708724     A.U. after    7 cycles
 SCF Done:  E(RB3LYP) =  -1351.07708724     A.U. after    5 cycles
 SCF Done:  E(RB3LYP) =  -1351.07708724     A.U. after    6 cycles
 SCF Done:  E(RB3LYP) =  -1351.07708724     A.U. after    6 cycles
 SCF Done:  E(RB3LYP) =  -1351.07708724     A.U. after    6 cycles
 SCF Done:  E(RB3LYP) =  -1351.07708724     A.U. after    6 cycles
 Optimization completed.
    -- Stationary point found.

                         Standard orientation:
 ---------------------------------------------------------------------
 Center     Atomic      Atomic             Coordinates (Angstroms)
 Number     Number       Type             X           Y           Z
 ---------------------------------------------------------------------
      1          6           0      -11.482440    0.200581   -0.429731
      2          6           0      -11.131151   -0.639174    0.804421
      3          6           0       -9.681054   -0.479511    1.291911
      4          6           0       -8.621547   -1.001999    0.309694
      5          6           0       -7.185168   -1.000300    0.863811
      6          6           0       -6.607672    0.380368    1.227557
      7          6           0       -6.537602    1.405929    0.079599
      8          6           0       -5.747609    1.033718   -1.194097
      9          6           0       -4.203641    0.947205   -1.125825
     10          6           0       -3.545288    2.131926   -0.396759
     11          6           0       -2.027362    2.147657   -0.625528
     12          6           0       -1.386052    0.788272   -0.454578
     13          7           0       -0.051345    0.759014   -0.345293
     14          6           0        0.545520   -0.435965   -0.220980
     15          6           0        2.023485   -0.458065   -0.093802
     16          6           0        2.759839    0.736795   -0.104115
     17          6           0        4.144895    0.713956    0.013240
     18          6           0        4.807929   -0.507015    0.142281
     19          8           0        6.187321   -0.426847    0.332250
     20          6           0        7.056370   -1.302780   -0.271819
     21          8           0        6.720402   -2.207612   -0.995726
     22          6           0        8.479473   -0.927133    0.078250
     23          6           0        8.957706    0.305494   -0.722316
     24          6           0       10.407582    0.735977   -0.409262
     25          6           0       10.568708    1.795367    0.695902
     26          6           0       10.098498    1.382396    2.095654
     27          6           0        4.097951   -1.708903    0.162884
     28          6           0        2.711362   -1.673647    0.041893
     29          7           0       -0.098384   -1.619217   -0.205017
     30          6           0       -1.424034   -1.571886   -0.315945
     31          6           0       -2.153942   -0.386607   -0.441561
     32          6           0       -3.664276   -0.373316   -0.542197
     33          1           0      -10.891257   -0.090901   -1.305123
     34          1           0      -12.539615    0.086578   -0.695569
     35          1           0      -11.299698    1.267060   -0.245896
     36          1           0      -11.325091   -1.700310    0.591299
     37          1           0      -11.808773   -0.365705    1.624455
     38          1           0       -9.568693   -1.014017    2.246513
     39          1           0       -9.496851    0.581249    1.514402
     40          1           0       -8.880610   -2.033931    0.031448
     41          1           0       -8.658227   -0.423470   -0.622633
     42          1           0       -6.527965   -1.490801    0.133246
     43          1           0       -7.154539   -1.632180    1.763046
     44          1           0       -5.610748    0.237331    1.663985
     45          1           0       -7.211659    0.821952    2.031627
     46          1           0       -6.143846    2.347922    0.483350
     47          1           0       -7.562973    1.637661   -0.238874
     48          1           0       -5.987517    1.801165   -1.943084
     49          1           0       -6.132864    0.091836   -1.608864
     50          1           0       -3.856306    0.984355   -2.170768
     51          1           0       -3.977092    3.081106   -0.738203
     52          1           0       -3.753671    2.063324    0.679804
     53          1           0       -1.525545    2.856789    0.042482
     54          1           0       -1.807696    2.493531   -1.646424
     55          1           0        2.230945    1.677614   -0.205531
     56          1           0        4.724904    1.631561    0.009898
     57          1           0        9.108826   -1.790415   -0.156593
     58          1           0        8.541314   -0.733872    1.153059
     59          1           0        8.873135    0.061429   -1.788494
     60          1           0        8.272536    1.143499   -0.541528
     61          1           0       10.851181    1.145724   -1.325885
     62          1           0       11.007040   -0.151480   -0.158952
     63          1           0       11.630391    2.072751    0.746728
     64          1           0       10.033682    2.706264    0.391496
     65          1           0        9.014831    1.225160    2.134196
     66          1           0       10.338589    2.159606    2.830347
     67          1           0       10.585480    0.455463    2.423915
     68          1           0        4.618383   -2.652409    0.260161
     69          1           0        2.142062   -2.596187    0.052651
     70          1           0       -1.941171   -2.532963   -0.308311
     71          1           0       -4.000074   -1.220253   -1.155840
     72          1           0       -4.087371   -0.540993    0.456953
 ---------------------------------------------------------------------

 The electronic state is 1-A.
 Alpha  occ. eigenvalues --  -19.19857 -19.13807 -14.32826 -14.32632 -10.31771
 Alpha  occ. eigenvalues --  -10.25409 -10.24922 -10.23701 -10.23074 -10.20218
 Alpha  occ. eigenvalues --  -10.19657 -10.19638 -10.19572 -10.19179 -10.19144
 Alpha  occ. eigenvalues --  -10.18959 -10.18878 -10.18723 -10.18574 -10.18554
 Alpha  occ. eigenvalues --  -10.18541 -10.18470 -10.18457 -10.18340 -10.18300
 Alpha  occ. eigenvalues --  -10.18138 -10.18062 -10.18016 -10.17871 -10.17823
 Alpha  occ. eigenvalues --  -10.17549 -10.17333  -1.10353  -1.02213  -0.97914
 Alpha  occ. eigenvalues --   -0.88339  -0.85594  -0.84212  -0.81203  -0.80986
 Alpha  occ. eigenvalues --   -0.79316  -0.77699  -0.76783  -0.75748  -0.74780
 Alpha  occ. eigenvalues --   -0.74379  -0.72800  -0.70406  -0.69432  -0.66906
 Alpha  occ. eigenvalues --   -0.65812  -0.65054  -0.63017  -0.62574  -0.61638
 Alpha  occ. eigenvalues --   -0.61000  -0.59549  -0.57734  -0.56982  -0.56001
 Alpha  occ. eigenvalues --   -0.55538  -0.53878  -0.51931  -0.51289  -0.49572
 Alpha  occ. eigenvalues --   -0.48082  -0.47819  -0.47344  -0.46909  -0.46348
 Alpha  occ. eigenvalues --   -0.45804  -0.45592  -0.44907  -0.44443  -0.44099
 Alpha  occ. eigenvalues --   -0.43840  -0.43696  -0.42994  -0.42889  -0.42495
 Alpha  occ. eigenvalues --   -0.41923  -0.41658  -0.41530  -0.40432  -0.40271
 Alpha  occ. eigenvalues --   -0.40055  -0.39443  -0.39002  -0.38595  -0.38302
 Alpha  occ. eigenvalues --   -0.38113  -0.37234  -0.36840  -0.36513  -0.36182
 Alpha  occ. eigenvalues --   -0.35921  -0.35593  -0.35156  -0.34990  -0.34248
 Alpha  occ. eigenvalues --   -0.33889  -0.33185  -0.32973  -0.32651  -0.32445
 Alpha  occ. eigenvalues --   -0.32204  -0.31956  -0.31656  -0.31384  -0.30969
 Alpha  occ. eigenvalues --   -0.30795  -0.30343  -0.29680  -0.29168  -0.27247
 Alpha  occ. eigenvalues --   -0.26942  -0.24623  -0.23804  -0.22021
 Alpha virt. eigenvalues --   -0.04290  -0.03154   0.00500   0.00683   0.04143
 Alpha virt. eigenvalues --    0.06486   0.08479   0.08825   0.09339   0.09912
 Alpha virt. eigenvalues --    0.10599   0.11154   0.11455   0.11754   0.12011

 Mulliken charges:
               1
     1  C   -0.443718
     2  C   -0.249263
     3  C   -0.251045
     4  C   -0.259264
     5  C   -0.263376
     6  C   -0.264233
     7  C   -0.268469
     8  C   -0.275612
     9  C   -0.082674
    10  C   -0.280180
    11  C   -0.333449
    12  C    0.282161
    13  N   -0.532780
    14  C    0.416546
    15  C    0.098598
    16  C   -0.176634
    17  C   -0.175703
    18  C    0.355291
    19  O   -0.521416
    20  C    0.593116
    21  O   -0.451085
    22  C   -0.341700
    23  C   -0.272084
    24  C   -0.256640
    25  C   -0.250002
    26  C   -0.447544
    27  C   -0.148806
    28  C   -0.185654
    29  N   -0.467594
    30  C    0.011685
    31  C    0.103750
    32  C   -0.359058
    33  H    0.145730
    34  H    0.143006
    35  H    0.139738
    36  H    0.129932
    37  H    0.130845
    38  H    0.127033
    39  H    0.131017
    40  H    0.127603
    41  H    0.136865
    42  H    0.129908
    43  H    0.128774
    44  H    0.131998
    45  H    0.135172
    46  H    0.134861
    47  H    0.136440
    48  H    0.131229
    49  H    0.133797
    50  H    0.126828
    51  H    0.137781
    52  H    0.143566
    53  H    0.163654
    54  H    0.163806
    55  H    0.157397
    56  H    0.137533
    57  H    0.167007
    58  H    0.170354
    59  H    0.151132
    60  H    0.151697
    61  H    0.136956
    62  H    0.132703
    63  H    0.134029
    64  H    0.133603
    65  H    0.152964
    66  H    0.145103
    67  H    0.141234
    68  H    0.158509
    69  H    0.163094
    70  H    0.140054
    71  H    0.148291
    72  H    0.165592
 Sum of Mulliken charges =  -0.00000

 Dipole moment (field-independent basis, Debye):
    X=             -2.2278    Y=              2.2363    Z=              0.7064  Tot=              3.2346
 Quadrupole moment (field-independent basis, Debye-Ang):
   XX=           -161.5261   YY=           -194.6567   ZZ=           -197.0433
   XY=             10.0965   XZ=              7.5457   YZ=             -4.4494

 Normal termination of Gaussian 16 at Fri Nov  4 21:30:53 2022.
