 Gaussian 16, Revision B.01,
 Gaussian 16:  ES64L-G16RevB.01 20-Dec-2017

 -------------------------------------------------------------------
 #p b3lyp/6-31g(d) 6D 10F nosymm GFInput td=(50-50,nstate=2) SCF=XQC
 -------------------------------------------------------------------

 ------------------------------
 Gaussian input prepared by ASE
 ------------------------------
 Symbolic Z-matrix:
 Charge =  0 Multiplicity = 1

                          Input orientation:
 ---------------------------------------------------------------------
 Center     Atomic      Atomic             Coordinates (Angstroms)
 Number     Number       Type             X           Y           Z
 ---------------------------------------------------------------------
      1          6           0      -10.847995   -0.483336    0.015303
      2          6           0      -10.503301    1.010954    0.016979
      3          6           0       -9.046657    1.329165   -0.360975
      4          6           0       -8.005051    0.819243    0.646664
      5          6           0       -6.564637    1.281668    0.361006
      6          6           0       -5.957926    0.803494   -0.971401
      7          6           0       -5.877113   -0.722908   -1.166494
      8          6           0       -5.104347   -1.559404   -0.123402
      9          6           0       -3.561839   -1.447319   -0.059432
     10          6           0       -2.875209   -1.513033   -1.435204
     11          6           0       -1.359087   -1.703865   -1.288104
     12          6           0       -0.742684   -0.791322   -0.250924
     13          7           0        0.592026   -0.678718   -0.261586
     14          6           0        1.166787    0.102196    0.665506
     15          6           0        2.644999    0.226146    0.641723
     16          6           0        3.404056   -0.454759   -0.322754
     17          6           0        4.789290   -0.338904   -0.342253
     18          6           0        5.429743    0.460900    0.604935
     19          8           0        6.811856    0.578369    0.459329
     20          6           0        7.659201    0.579344    1.540722
     21          8           0        7.300300    0.492474    2.689321
     22          6           0        9.091935    0.661963    1.061838
     23          6           0        9.587502   -0.693206    0.507841
     24          6           0       11.047768   -0.672005    0.005214
     25          6           0       11.237799   -0.358868   -1.489941
     26          6           0       10.770652    1.027016   -1.950425
     27          6           0        4.697002    1.154383    1.569923
     28          6           0        3.310446    1.028502    1.581209
     29          7           0        0.500427    0.781607    1.619088
     30          6           0       -0.824893    0.657467    1.615961
     31          6           0       -1.532865   -0.119627    0.694912
     32          6           0       -3.043403   -0.216849    0.710295
     33          1           0      -10.269346   -1.037864    0.762588
     34          1           0      -11.909201   -0.642815    0.238228
     35          1           0      -10.643385   -0.933979   -0.964301
     36          1           0      -10.719232    1.434372    1.008511
     37          1           0      -11.169147    1.529628   -0.685901
     38          1           0       -8.937155    2.419225   -0.457754
     39          1           0       -8.840396    0.913645   -1.357692
     40          1           0       -8.286037    1.172144    1.649622
     41          1           0       -8.037870   -0.277004    0.696080
     42          1           0       -5.922676    0.959421    1.191835
     43          1           0       -6.539150    2.380764    0.374169
     44          1           0       -4.960567    1.248749   -1.080064
     45          1           0       -6.547049    1.214262   -1.802381
     46          1           0       -5.462214   -0.920843   -2.163533
     47          1           0       -6.900292   -1.121161   -1.198235
     48          1           0       -5.335296   -2.612172   -0.337537
     49          1           0       -5.510830   -1.370579    0.879947
     50          1           0       -3.221996   -2.328602    0.507822
     51          1           0       -3.291353   -2.333299   -2.033510
     52          1           0       -3.076488   -0.587269   -1.991590
     53          1           0       -0.838565   -1.551695   -2.240378
     54          1           0       -1.140770   -2.740459   -0.991586
     55          1           0        2.892550   -1.072763   -1.051853
     56          1           0        5.386765   -0.857972   -1.085229
     57          1           0        9.702751    0.959239    1.919173
     58          1           0        9.165836    1.439401    0.295995
     59          1           0        9.489967   -1.434898    1.310234
     60          1           0        8.919975   -1.021017   -0.299217
     61          1           0       11.492007   -1.657724    0.194637
     62          1           0       11.632006    0.038938    0.607551
     63          1           0       12.304975   -0.469090   -1.725911
     64          1           0       10.718007   -1.127396   -2.079713
     65          1           0        9.684499    1.142906   -1.864499
     66          1           0       11.031330    1.194524   -3.001834
     67          1           0       11.242287    1.824074   -1.361892
     68          1           0        5.199964    1.770456    2.303406
     69          1           0        2.723639    1.556523    2.324276
     70          1           0       -1.360312    1.204936    2.393625
     71          1           0       -3.400164   -0.245517    1.748813
     72          1           0       -3.461851    0.700140    0.275028
 ---------------------------------------------------------------------

 SCF Done:  E(RB3LYP) =  -1351.07707856     A.U. after   15 cycles

 Excitation energies and oscillator strengths:

 Excited state symmetry could not be determined.
 Excited State   1:      Triplet-?Sym    3.0477 eV  406.82 nm  f=0.0000  <S**2>=2.000
     115 ->124         0.10451
     117 ->123        -0.15772
     119 ->120         0.64772
 This state for optimization and/or second-order correction.
 Total Energy, E(TD-HF/TD-DFT) =  -1350.96507873
 Copying the excited state density for this state as the 1-particle RhoCI density.

 Excited state symmetry could not be determined.
 Excited State   2:      Triplet-?Sym    3.7287 eV  332.51 nm  f=0.0000  <S**2>=2.000
     118 ->120        -0.35559
     118 ->121         0.58932

 Excited state symmetry could not be determined.
 Excited State   3:      Singlet-?Sym    4.1371 eV  299.69 nm  f=0.0023  <S**2>=0.000
     118 ->120         0.67242
     118 ->121        -0.18625

 Excited state symmetry could not be determined.
 Excited State   4:      Singlet-?Sym    4.2911 eV  288.93 nm  f=0.0031  <S**2>=0.000
     118 ->120         0.18238
     118 ->121         0.67627

 Alpha  occ. eigenvalues --  -19.19857 -19.13807 -14.32826 -14.32632 -10.31771
 Alpha  occ. eigenvalues --  -10.25409 -10.24921 -10.23701 -10.23074 -10.20218
 Alpha  occ. eigenvalues --  -10.19657 -10.19638 -10.19572 -10.19178 -10.19144
 Alpha  occ. eigenvalues --  -10.18959 -10.18878 -10.18722 -10.18574 -10.18554
 Alpha  occ. eigenvalues --  -10.18541 -10.18470 -10.18457 -10.18340 -10.18300
 Alpha  occ. eigenvalues --  -10.18138 -10.18061 -10.18016 -10.17871 -10.17823
 Alpha  occ. eigenvalues --  -10.17548 -10.17332  -1.10353  -1.02213  -0.97913
 Alpha  occ. eigenvalues --   -0.88339  -0.85594  -0.84212  -0.81203  -0.80986
 Alpha  occ. eigenvalues --   -0.79316  -0.77699  -0.76783  -0.75748  -0.74780
 Alpha  occ. eigenvalues --   -0.74379  -0.72800  -0.70406  -0.69432  -0.66906
 Alpha  occ. eigenvalues --   -0.65812  -0.65054  -0.63017  -0.62574  -0.61638
 Alpha  occ. eigenvalues --   -0.61000  -0.59549  -0.57734  -0.56982  -0.56001
 Alpha  occ. eigenvalues --   -0.55538  -0.53878  -0.51931  -0.51289  -0.49572
 Alpha  occ. eigenvalues --   -0.48082  -0.47819  -0.47344  -0.46909  -0.46348
 Alpha  occ. eigenvalues --   -0.45804  -0.45592  -0.44907  -0.44443  -0.44099
 Alpha  occ. eigenvalues --   -0.43840  -0.43696  -0.42994  -0.42889  -0.42495
 Alpha  occ. eigenvalues --   -0.41923  -0.41658  -0.41530  -0.40432  -0.40271
 Alpha  occ. eigenvalues --   -0.40055  -0.39443  -0.39002  -0.38595  -0.38302
 Alpha  occ. eigenvalues --   -0.38113  -0.37234  -0.36840  -0.36513  -0.36182
 Alpha  occ. eigenvalues --   -0.35921  -0.35593  -0.35156  -0.34990  -0.34248
 Alpha  occ. eigenvalues --   -0.33889  -0.33185  -0.32973  -0.32651  -0.32445
 Alpha  occ. eigenvalues --   -0.32204  -0.31956  -0.31656  -0.31384  -0.30969
 Alpha  occ. eigenvalues --   -0.30795  -0.30343  -0.29680  -0.29168  -0.27247
 Alpha  occ. eigenvalues --   -0.26942  -0.24623  -0.23804  -0.22022
 Alpha virt. eigenvalues --   -0.04290  -0.03154   0.00500   0.00683   0.04143
 Alpha virt. eigenvalues --    0.06486   0.08479   0.08825   0.09339   0.09912
 Alpha virt. eigenvalues --    0.10599   0.11154   0.11455   0.11754   0.12011

 Mulliken charges:
               1
     1  C   -0.443711
     2  C   -0.249264
     3  C   -0.251052
     4  C   -0.259247
     5  C   -0.263364
     6  C   -0.264255
     7  C   -0.268468
     8  C   -0.275574
     9  C   -0.082694
    10  C   -0.280197
    11  C   -0.333424
    12  C    0.282141
    13  N   -0.532802
    14  C    0.416569
    15  C    0.098594
    16  C   -0.176636
    17  C   -0.175692
    18  C    0.355301
    19  O   -0.521423
    20  C    0.593131
    21  O   -0.451099
    22  C   -0.341704
    23  C   -0.272044
    24  C   -0.256687
    25  C   -0.249989
    26  C   -0.447536
    27  C   -0.148820
    28  C   -0.185653
    29  N   -0.467593
    30  C    0.011681
    31  C    0.103760
    32  C   -0.359043
    33  H    0.145729
    34  H    0.143005
    35  H    0.139735
    36  H    0.129932
    37  H    0.130845
    38  H    0.127033
    39  H    0.131017
    40  H    0.127600
    41  H    0.136861
    42  H    0.129906
    43  H    0.128771
    44  H    0.131999
    45  H    0.135176
    46  H    0.134862
    47  H    0.136434
    48  H    0.131224
    49  H    0.133791
    50  H    0.126828
    51  H    0.137782
    52  H    0.143567
    53  H    0.163654
    54  H    0.163807
    55  H    0.157396
    56  H    0.137530
    57  H    0.167006
    58  H    0.170354
    59  H    0.151128
    60  H    0.151692
    61  H    0.136961
    62  H    0.132709
    63  H    0.134028
    64  H    0.133603
    65  H    0.152964
    66  H    0.145099
    67  H    0.141231
    68  H    0.158509
    69  H    0.163094
    70  H    0.140054
    71  H    0.148287
    72  H    0.165588
 Sum of Mulliken charges =  -0.00000

 Dipole moment (field-independent basis, Debye):
    X=             -2.1788    Y=             -0.6919    Z=             -2.2884  Tot=              3.2346
 Quadrupole moment (field-independent basis, Debye-Ang):
   XX=           -163.7890   YY=           -192.1738   ZZ=           -200.8431
   XY=              0.0813   XZ=            -13.6416   YZ=              2.4746

 Normal termination of Gaussian 16 at Sat Nov  5 09:29:28 2022.
