 Gaussian 16, Revision B.01,
 Gaussian 16:  ES64L-G16RevB.01 20-Dec-2017

 -------------------------------------------------------------------
 #p b3lyp/6-31g(d) 6D 10F nosymm GFInput td=(50-50,nstate=2) SCF=XQC
 -------------------------------------------------------------------

 ------------------------------
 Gaussian input prepared by ASE
 ------------------------------
 Symbolic Z-matrix:
 Charge =  0 Multiplicity = 1

                          Input orientation:
 ---------------------------------------------------------------------
 Center     Atomic      Atomic             Coordinates (Angstroms)
 Number     Number       Type             X           Y           Z
 ---------------------------------------------------------------------
      1          6           0       -5.249134    2.078879   -0.064737
      2          6           0       -3.925281    1.384292    0.283837
      3          6           0       -4.004528    0.671382    1.639701
      4          6           0       -3.543156    0.418272   -0.852759
      5          7           0       -2.238372   -0.202934   -0.675407
      6          7           0       -1.102090    0.542199   -0.733147
      7          6           0       -0.078999   -0.278207   -0.504637
      8          6           0        1.293141    0.259518   -0.491079
      9          6           0        1.633001    1.328556   -1.371712
     10          6           0        2.897562    1.862908   -1.373739
     11          6           0        3.906728    1.373398   -0.499439
     12          6           0        5.224359    1.901090   -0.482149
     13          6           0        6.170138    1.407827    0.389383
     14          6           0        5.838383    0.362631    1.286019
     15          6           0        4.569461   -0.171982    1.291883
     16          6           0        3.572477    0.311138    0.401393
     17          6           0        2.255472   -0.220378    0.382580
     18          6           0       -0.560443   -1.616642   -0.304021
     19          6           0       -0.082380   -2.943352   -0.138663
     20          7           0        1.241427   -3.265211   -0.075502
     21          7           0       -0.953364   -3.957026   -0.019603
     22          6           0       -2.267492   -3.680044   -0.094125
     23          7           0       -2.858154   -2.508034   -0.304740
     24          6           0       -1.963742   -1.509947   -0.414032
     25          1           0       -5.521860    2.805578    0.708466
     26          1           0       -6.068905    1.352653   -0.140598
     27          1           0       -5.185680    2.614428   -1.019683
     28          1           0       -3.135537    2.145578    0.336058
     29          1           0       -3.050479    0.204747    1.906184
     30          1           0       -4.770400   -0.114390    1.628523
     31          1           0       -4.261848    1.381094    2.434299
     32          1           0       -4.261152   -0.404577   -0.922770
     33          1           0       -3.531323    0.950263   -1.810553
     34          1           0        0.868419    1.708451   -2.041026
     35          1           0        3.144933    2.673836   -2.054985
     36          1           0        5.474604    2.705975   -1.169386
     37          1           0        7.175009    1.821199    0.394348
     38          1           0        6.591568   -0.015979    1.971689
     39          1           0        4.312319   -0.973320    1.980877
     40          1           0        2.001016   -0.996697    1.099832
     41          1           0        1.449990   -4.252069   -0.150707
     42          1           0        1.922878   -2.617724   -0.444564
     43          1           0       -2.928562   -4.537381    0.018692
 ---------------------------------------------------------------------

 SCF Done:  E(RB3LYP) =  -1009.26152315     A.U. after   15 cycles

 Excitation energies and oscillator strengths:

 Excited state symmetry could not be determined.
 Excited State   1:      Triplet-?Sym    2.6123 eV  474.61 nm  f=0.0000  <S**2>=2.000
      82 -> 87        -0.10270
      83 -> 85         0.28390
      83 -> 86        -0.23399
      84 -> 85         0.57107
 This state for optimization and/or second-order correction.
 Total Energy, E(TD-HF/TD-DFT) =  -1009.16552231
 Copying the excited state density for this state as the 1-particle RhoCI density.

 Excited state symmetry could not be determined.
 Excited State   2:      Triplet-?Sym    3.1502 eV  393.58 nm  f=0.0000  <S**2>=2.000
      82 -> 86         0.13938
      83 -> 85        -0.42002
      83 -> 87         0.12943
      84 -> 85         0.22571
      84 -> 86         0.43207
      84 -> 87        -0.10669

 Excited state symmetry could not be determined.
 Excited State   3:      Singlet-?Sym    3.9870 eV  310.97 nm  f=0.1697  <S**2>=0.000
      83 -> 85        -0.21424
      83 -> 87        -0.10522
      84 -> 85         0.61552
      84 -> 86        -0.21887

 Excited state symmetry could not be determined.
 Excited State   4:      Singlet-?Sym    4.1072 eV  301.87 nm  f=0.0719  <S**2>=0.000
      82 -> 85         0.11409
      82 -> 86        -0.11156
      83 -> 85         0.44501
      84 -> 85         0.31550
      84 -> 86         0.38912

 Alpha  occ. eigenvalues --  -14.40763 -14.36108 -14.35781 -14.32443 -14.31970
 Alpha  occ. eigenvalues --  -10.28063 -10.25445 -10.24848 -10.22736 -10.22372
 Alpha  occ. eigenvalues --  -10.20887 -10.20334 -10.20185 -10.19649 -10.19639
 Alpha  occ. eigenvalues --  -10.19579 -10.19538 -10.19520 -10.19498 -10.19465
 Alpha  occ. eigenvalues --  -10.19295 -10.19267 -10.17722 -10.17081  -1.05376
 Alpha  occ. eigenvalues --   -0.98255  -0.93428  -0.88019  -0.86771  -0.85277
 Alpha  occ. eigenvalues --   -0.82401  -0.79292  -0.78500  -0.77588  -0.74753
 Alpha  occ. eigenvalues --   -0.72546  -0.69605  -0.68271  -0.66475  -0.65334
 Alpha  occ. eigenvalues --   -0.62158  -0.61800  -0.59995  -0.58491  -0.57215
 Alpha  occ. eigenvalues --   -0.55490  -0.53902  -0.51676  -0.50649  -0.49856
 Alpha  occ. eigenvalues --   -0.49291  -0.48576  -0.47498  -0.46061  -0.45242
 Alpha  occ. eigenvalues --   -0.44436  -0.43632  -0.43132  -0.42546  -0.42187
 Alpha  occ. eigenvalues --   -0.41958  -0.40949  -0.39945  -0.39694  -0.39146
 Alpha  occ. eigenvalues --   -0.38569  -0.37671  -0.37365  -0.35482  -0.34533
 Alpha  occ. eigenvalues --   -0.34491  -0.33596  -0.33462  -0.32959  -0.32850
 Alpha  occ. eigenvalues --   -0.30522  -0.29194  -0.28436  -0.27680  -0.26089
 Alpha  occ. eigenvalues --   -0.25527  -0.24257  -0.22493  -0.21025
 Alpha virt. eigenvalues --   -0.04943  -0.03138  -0.01198   0.00970   0.02372
 Alpha virt. eigenvalues --    0.05134   0.08928   0.09110   0.09554   0.10390
 Alpha virt. eigenvalues --    0.11740   0.12505   0.12956   0.13528   0.13908

 Mulliken charges:
               1
     1  C   -0.448447
     2  C   -0.081677
     3  C   -0.448507
     4  C   -0.139386
     5  N   -0.366627
     6  N   -0.353280
     7  C    0.199192
     8  C    0.122466
     9  C   -0.158751
    10  C   -0.200153
    11  C    0.141241
    12  C   -0.192288
    13  C   -0.134241
    14  C   -0.136846
    15  C   -0.191076
    16  C    0.135409
    17  C   -0.302128
    18  C   -0.012345
    19  C    0.433365
    20  N   -0.779865
    21  N   -0.503014
    22  C    0.170871
    23  N   -0.502746
    24  C    0.564281
    25  H    0.148947
    26  H    0.143865
    27  H    0.143351
    28  H    0.153032
    29  H    0.156261
    30  H    0.147890
    31  H    0.143253
    32  H    0.180608
    33  H    0.159084
    34  H    0.150102
    35  H    0.134029
    36  H    0.132254
    37  H    0.132471
    38  H    0.132586
    39  H    0.132815
    40  H    0.156095
    41  H    0.344964
    42  H    0.346519
    43  H    0.146423
 Sum of Mulliken charges =  -0.00000

 Dipole moment (field-independent basis, Debye):
    X=              2.0811    Y=              0.7356    Z=             -0.5940  Tot=              2.2858
 Quadrupole moment (field-independent basis, Debye-Ang):
   XX=           -122.9116   YY=           -138.8451   ZZ=           -137.4141
   XY=             -7.4247   XZ=              0.6953   YZ=             -2.3467

 Normal termination of Gaussian 16 at Sat Nov  5 09:29:47 2022.
