 Gaussian 16, Revision B.01,
 Gaussian 16:  ES64L-G16RevB.01 20-Dec-2017

 -----------------------------
 #p b3lyp/6-31g(d) opt SCF=XQC
 -----------------------------

 ------------------------------
 Gaussian input prepared by ASE
 ------------------------------
 Symbolic Z-matrix:
 Charge =  0 Multiplicity = 1

 SCF Done:  E(RB3LYP) =  -1009.25603690     A.U. after   15 cycles
 SCF Done:  E(RB3LYP) =  -1009.26108934     A.U. after   12 cycles
 SCF Done:  E(RB3LYP) =  -1009.26112975     A.U. after   12 cycles
 SCF Done:  E(RB3LYP) =  -1009.26142450     A.U. after   12 cycles
 SCF Done:  E(RB3LYP) =  -1009.26147161     A.U. after   10 cycles
 SCF Done:  E(RB3LYP) =  -1009.26150107     A.U. after   10 cycles
 SCF Done:  E(RB3LYP) =  -1009.26151448     A.U. after   10 cycles
 SCF Done:  E(RB3LYP) =  -1009.26152157     A.U. after   10 cycles
 SCF Done:  E(RB3LYP) =  -1009.26152304     A.U. after    8 cycles
 SCF Done:  E(RB3LYP) =  -1009.26152325     A.U. after    7 cycles
 SCF Done:  E(RB3LYP) =  -1009.26152330     A.U. after    7 cycles
 Optimization completed.
    -- Stationary point found.

                         Standard orientation:
 ---------------------------------------------------------------------
 Center     Atomic      Atomic             Coordinates (Angstroms)
 Number     Number       Type             X           Y           Z
 ---------------------------------------------------------------------
      1          6           0        5.125062   -3.055781    0.338061
      2          6           0        3.903170   -2.165117    0.603088
      3          6           0        4.049664   -1.386096    1.916310
      4          6           0        3.685608   -1.229072   -0.600054
      5          7           0        2.476322   -0.424330   -0.500931
      6          7           0        1.248972   -1.008163   -0.550374
      7          6           0        0.345121   -0.042059   -0.403087
      8          6           0       -1.088481   -0.383937   -0.401077
      9          6           0       -1.553531   -1.449257   -1.227324
     10          6           0       -2.879803   -1.803584   -1.237672
     11          6           0       -3.830837   -1.125893   -0.426064
     12          6           0       -5.209165   -1.465120   -0.419205
     13          6           0       -6.096861   -0.792616    0.391418
     14          6           0       -5.643525    0.251258    1.234784
     15          6           0       -4.312987    0.605484    1.249082
     16          6           0       -3.372750   -0.065231    0.420560
     17          6           0       -1.994474    0.277765    0.411935
     18          6           0        1.003528    1.227335   -0.266776
     19          6           0        0.711217    2.614952   -0.195210
     20          7           0       -0.555962    3.119233   -0.192944
     21          7           0        1.711914    3.504596   -0.108808
     22          6           0        2.976023    3.045293   -0.125365
     23          7           0        3.402394    1.792258   -0.247671
     24          6           0        2.380450    0.921859   -0.325985
     25          1           0        5.276026   -3.763047    1.161043
     26          1           0        6.039516   -2.455482    0.245338
     27          1           0        5.009665   -3.636457   -0.585118
     28          1           0        3.014104   -2.805691    0.675241
     29          1           0        3.164017   -0.776804    2.124553
     30          1           0        4.917561   -0.715453    1.882909
     31          1           0        4.187250   -2.073106    2.759151
     32          1           0        4.512629   -0.518889   -0.695857
     33          1           0        3.621877   -1.813512   -1.524658
     34          1           0       -0.834088   -1.972055   -1.848591
     35          1           0       -3.221936   -2.613959   -1.877303
     36          1           0       -5.553164   -2.269503   -1.065261
     37          1           0       -7.149354   -1.062648    0.389093
     38          1           0       -6.352240    0.772246    1.872805
     39          1           0       -3.962695    1.405522    1.897319
     40          1           0       -1.650976    1.055218    1.089759
     41          1           0       -0.623259    4.118705   -0.332833
     42          1           0       -1.312260    2.549768   -0.544433
     43          1           0        3.747277    3.808891   -0.042581
 ---------------------------------------------------------------------

 The electronic state is 1-A.
 Alpha  occ. eigenvalues --  -14.40763 -14.36108 -14.35781 -14.32443 -14.31970
 Alpha  occ. eigenvalues --  -10.28063 -10.25445 -10.24848 -10.22736 -10.22372
 Alpha  occ. eigenvalues --  -10.20887 -10.20334 -10.20185 -10.19649 -10.19639
 Alpha  occ. eigenvalues --  -10.19579 -10.19538 -10.19520 -10.19498 -10.19465
 Alpha  occ. eigenvalues --  -10.19295 -10.19267 -10.17722 -10.17081  -1.05376
 Alpha  occ. eigenvalues --   -0.98255  -0.93428  -0.88019  -0.86771  -0.85277
 Alpha  occ. eigenvalues --   -0.82401  -0.79292  -0.78500  -0.77588  -0.74753
 Alpha  occ. eigenvalues --   -0.72546  -0.69605  -0.68271  -0.66475  -0.65334
 Alpha  occ. eigenvalues --   -0.62158  -0.61800  -0.59995  -0.58491  -0.57215
 Alpha  occ. eigenvalues --   -0.55490  -0.53902  -0.51676  -0.50649  -0.49856
 Alpha  occ. eigenvalues --   -0.49291  -0.48576  -0.47498  -0.46061  -0.45242
 Alpha  occ. eigenvalues --   -0.44436  -0.43632  -0.43132  -0.42546  -0.42187
 Alpha  occ. eigenvalues --   -0.41958  -0.40949  -0.39945  -0.39694  -0.39146
 Alpha  occ. eigenvalues --   -0.38569  -0.37671  -0.37365  -0.35482  -0.34533
 Alpha  occ. eigenvalues --   -0.34491  -0.33596  -0.33462  -0.32959  -0.32850
 Alpha  occ. eigenvalues --   -0.30522  -0.29194  -0.28436  -0.27680  -0.26089
 Alpha  occ. eigenvalues --   -0.25527  -0.24257  -0.22493  -0.21025
 Alpha virt. eigenvalues --   -0.04943  -0.03138  -0.01198   0.00970   0.02372
 Alpha virt. eigenvalues --    0.05134   0.08928   0.09110   0.09554   0.10390
 Alpha virt. eigenvalues --    0.11740   0.12505   0.12956   0.13528   0.13908

 Mulliken charges:
               1
     1  C   -0.448448
     2  C   -0.081665
     3  C   -0.448510
     4  C   -0.139390
     5  N   -0.366626
     6  N   -0.353278
     7  C    0.199196
     8  C    0.122464
     9  C   -0.158749
    10  C   -0.200154
    11  C    0.141247
    12  C   -0.192289
    13  C   -0.134245
    14  C   -0.136844
    15  C   -0.191076
    16  C    0.135402
    17  C   -0.302130
    18  C   -0.012356
    19  C    0.433360
    20  N   -0.779862
    21  N   -0.503015
    22  C    0.170878
    23  N   -0.502746
    24  C    0.564284
    25  H    0.148947
    26  H    0.143864
    27  H    0.143351
    28  H    0.153031
    29  H    0.156262
    30  H    0.147890
    31  H    0.143253
    32  H    0.180609
    33  H    0.159084
    34  H    0.150102
    35  H    0.134030
    36  H    0.132255
    37  H    0.132471
    38  H    0.132586
    39  H    0.132816
    40  H    0.156097
    41  H    0.344964
    42  H    0.346520
    43  H    0.146423
 Sum of Mulliken charges =  -0.00000

 Dipole moment (field-independent basis, Debye):
    X=             -2.1490    Y=             -0.4781    Z=             -0.6149  Tot=              2.2858
 Quadrupole moment (field-independent basis, Debye-Ang):
   XX=           -126.1899   YY=           -135.9520   ZZ=           -137.8379
   XY=             -8.8881   XZ=              0.1301   YZ=              2.2428

 1\1\GINC-NODE49\FOpt\RB3LYP\6-31G(d)\C19H19N5\WYKGROUP\04-Nov-2022\0\\
 #p b3lyp/6-31g(d) opt SCF=XQC\\Gaussian input prepared by ASE\\0,1\C,-
 5.2491343702,2.0788788043,-0.06473736\C,-3.9252809285,1.3842921152,0.2
 838374363\C,-4.0045280983,0.6713824424,1.6397006718\C,-3.543155775,0.4
 1827202,-0.8527589781\N,-2.2383723209,-0.202933733,-0.6754072334\N,-1.
 1020900165,0.5421986521,-0.7331471307\C,-0.0789990035,-0.2782067161,-0
 .5046366771\C,1.293140804,0.2595178187,-0.4910785619\C,1.6330010573,1.
 3285558669,-1.3717116554\C,2.8975622579,1.8629084167,-1.3737394917\C,3

 Normal termination of Gaussian 16 at Fri Nov  4 21:07:59 2022.
