 Gaussian 16, Revision B.01,
 Gaussian 16:  ES64L-G16RevB.01 20-Dec-2017

 -------------------------------------------------------------------
 #p b3lyp/6-31g(d) 6D 10F nosymm GFInput td=(50-50,nstate=2) SCF=XQC
 -------------------------------------------------------------------

 ------------------------------
 Gaussian input prepared by ASE
 ------------------------------
 Symbolic Z-matrix:
 Charge =  0 Multiplicity = 1

                          Input orientation:
 ---------------------------------------------------------------------
 Center     Atomic      Atomic             Coordinates (Angstroms)
 Number     Number       Type             X           Y           Z
 ---------------------------------------------------------------------
      1          6           0        4.464369   -1.634520    3.168016
      2          6           0        3.462834   -1.150372    2.154126
      3          6           0        2.098366   -1.282067    2.417035
      4          7           0        1.109893   -0.897039    1.609223
      5          6           0        1.507382   -0.340185    0.452622
      6          7           0        0.587435    0.097506   -0.464027
      7          6           0       -0.819307    0.089579   -0.473655
      8          6           0       -1.627297   -0.428861    0.545237
      9          6           0       -3.018458   -0.377942    0.433656
     10          6           0       -3.656683    0.167662   -0.690665
     11          7           0       -5.065009    0.188915   -0.850348
     12          6           0       -5.672532    1.500319   -1.124749
     13          6           0       -7.110394    1.319942   -1.633347
     14          7           0       -7.960042    0.530472   -0.741201
     15          6           0       -8.437911    1.257543    0.429237
     16          6           0       -7.298966   -0.737433   -0.432850
     17          6           0       -5.861797   -0.589710    0.095669
     18          6           0       -2.830806    0.672842   -1.713659
     19          6           0       -1.449563    0.642274   -1.603635
     20          7           0        2.785270   -0.154759    0.076593
     21          6           0        3.763765   -0.548453    0.904692
     22          6           0        5.112998   -0.293617    0.385400
     23          6           0        6.356326   -0.536999    0.909437
     24          6           0        7.433869   -0.124929    0.057638
     25          6           0        8.822143   -0.222038    0.276702
     26          6           0        9.699594    0.243835   -0.690593
     27          6           0        9.215352    0.810942   -1.885323
     28          6           0        7.849994    0.917940   -2.124673
     29          6           0        6.962395    0.448490   -1.149851
     30         16           0        5.211737    0.469415   -1.212602
     31          1           0        5.117575   -2.418180    2.764392
     32          1           0        3.944989   -2.056304    4.034733
     33          1           0        5.108496   -0.825366    3.534288
     34          1           0        1.783779   -1.735591    3.357541
     35          1           0        1.030915    0.494369   -1.282028
     36          1           0       -1.166701   -0.856708    1.424417
     37          1           0       -3.605763   -0.770327    1.256568
     38          1           0       -5.083707    2.021902   -1.883139
     39          1           0       -5.660473    2.132680   -0.217164
     40          1           0       -7.070420    0.805116   -2.602978
     41          1           0       -7.574803    2.300186   -1.793447
     42          1           0       -7.656421    1.597954    1.132009
     43          1           0       -9.130462    0.617731    0.988141
     44          1           0       -8.993422    2.142253    0.097412
     45          1           0       -7.906240   -1.288182    0.295134
     46          1           0       -7.263231   -1.331179   -1.356092
     47          1           0       -5.414940   -1.584417    0.195481
     48          1           0       -5.870968   -0.131419    1.103333
     49          1           0       -3.277953    1.070569   -2.619669
     50          1           0       -0.843235    1.037840   -2.416591
     51          1           0        6.530822   -0.995047    1.872203
     52          1           0        9.195796   -0.659844    1.198909
     53          1           0       10.771310    0.171949   -0.528064
     54          1           0        9.918460    1.170405   -2.631636
     55          1           0        7.481637    1.356153   -3.047857
 ---------------------------------------------------------------------

 SCF Done:  E(RB3LYP) =  -1601.56680524     A.U. after   15 cycles

 Excitation energies and oscillator strengths:

 Excited state symmetry could not be determined.
 Excited State   1:      Triplet-?Sym    2.3373 eV  530.46 nm  f=0.0000  <S**2>=2.000
     108 ->111        -0.19238
     109 ->111         0.13863
     110 ->111         0.64598
 This state for optimization and/or second-order correction.
 Total Energy, E(TD-HF/TD-DFT) =  -1601.48091106
 Copying the excited state density for this state as the 1-particle RhoCI density.

 Excited state symmetry could not be determined.
 Excited State   2:      Singlet-?Sym    2.5757 eV  481.36 nm  f=0.0190  <S**2>=0.000
     110 ->111         0.70163

 Excited state symmetry could not be determined.
 Excited State   3:      Triplet-?Sym    2.5987 eV  477.09 nm  f=0.0000  <S**2>=2.000
     106 ->111        -0.19679
     108 ->111         0.60874
     110 ->111         0.19285

 Excited state symmetry could not be determined.
 Excited State   4:      Singlet-?Sym    3.4532 eV  359.04 nm  f=0.0128  <S**2>=0.000
     109 ->111         0.69958

 Alpha  occ. eigenvalues --  -88.90062 -14.36594 -14.33406 -14.33075 -14.32764
 Alpha  occ. eigenvalues --  -14.31975 -10.28924 -10.25225 -10.23299 -10.22933
 Alpha  occ. eigenvalues --  -10.22298 -10.22072 -10.21092 -10.20855 -10.20707
 Alpha  occ. eigenvalues --  -10.20474 -10.20452 -10.20451 -10.20280 -10.20189
 Alpha  occ. eigenvalues --  -10.20039 -10.19875 -10.19713 -10.19638 -10.19596
 Alpha  occ. eigenvalues --  -10.19275 -10.18403 -10.17968 -10.17614 -10.17266
 Alpha  occ. eigenvalues --   -7.96076  -5.92518  -5.92150  -5.91712  -1.00440
 Alpha  occ. eigenvalues --   -0.94457  -0.93100  -0.90349  -0.89892  -0.88240
 Alpha  occ. eigenvalues --   -0.83638  -0.82525  -0.80280  -0.76978  -0.76113
 Alpha  occ. eigenvalues --   -0.74834  -0.73692  -0.73479  -0.71331  -0.70950
 Alpha  occ. eigenvalues --   -0.69205  -0.66780  -0.64937  -0.64519  -0.63006
 Alpha  occ. eigenvalues --   -0.60906  -0.60128  -0.58984  -0.58522  -0.56253
 Alpha  occ. eigenvalues --   -0.55075  -0.54066  -0.52819  -0.51680  -0.50394
 Alpha  occ. eigenvalues --   -0.49382  -0.47502  -0.46770  -0.46143  -0.46061
 Alpha  occ. eigenvalues --   -0.45593  -0.45075  -0.45043  -0.44525  -0.43691
 Alpha  occ. eigenvalues --   -0.43254  -0.42954  -0.42385  -0.42242  -0.41674
 Alpha  occ. eigenvalues --   -0.41314  -0.40792  -0.40194  -0.40147  -0.39060
 Alpha  occ. eigenvalues --   -0.38885  -0.38515  -0.37818  -0.37104  -0.36816
 Alpha  occ. eigenvalues --   -0.36036  -0.35299  -0.35248  -0.34598  -0.34430
 Alpha  occ. eigenvalues --   -0.34170  -0.33580  -0.33011  -0.32330  -0.30525
 Alpha  occ. eigenvalues --   -0.30428  -0.28476  -0.27344  -0.24792  -0.24196
 Alpha  occ. eigenvalues --   -0.23475  -0.22732  -0.21680  -0.20161  -0.17470
 Alpha virt. eigenvalues --   -0.06450  -0.01415  -0.00214   0.00648   0.00908
 Alpha virt. eigenvalues --    0.03051   0.03663   0.06406   0.08272   0.08925
 Alpha virt. eigenvalues --    0.09426   0.10190   0.10897   0.11340   0.11848

 Mulliken charges:
               1
     1  C   -0.549941
     2  C    0.127845
     3  C    0.012400
     4  N   -0.477576
     5  C    0.703098
     6  N   -0.772306
     7  C    0.366525
     8  C   -0.171848
     9  C   -0.202793
    10  C    0.333741
    11  N   -0.499388
    12  C   -0.141071
    13  C   -0.142401
    14  N   -0.365819
    15  C   -0.305267
    16  C   -0.145826
    17  C   -0.134258
    18  C   -0.172367
    19  C   -0.208056
    20  N   -0.589434
    21  C    0.314649
    22  C   -0.222010
    23  C   -0.160214
    24  C    0.139041
    25  C   -0.170485
    26  C   -0.146521
    27  C   -0.116615
    28  C   -0.184917
    29  C   -0.128123
    30  S    0.257765
    31  H    0.169669
    32  H    0.161028
    33  H    0.169528
    34  H    0.139265
    35  H    0.341718
    36  H    0.173104
    37  H    0.127544
    38  H    0.147002
    39  H    0.127893
    40  H    0.145560
    41  H    0.135875
    42  H    0.126263
    43  H    0.148569
    44  H    0.148581
    45  H    0.135728
    46  H    0.147522
    47  H    0.151315
    48  H    0.123127
    49  H    0.127572
    50  H    0.120807
    51  H    0.145374
    52  H    0.130854
    53  H    0.132026
    54  H    0.133357
    55  H    0.142891
 Sum of Mulliken charges =  -0.00000

 Dipole moment (field-independent basis, Debye):
    X=              1.4745    Y=              0.1781    Z=              1.3852  Tot=              2.0309
 Quadrupole moment (field-independent basis, Debye-Ang):
   XX=           -157.2521   YY=           -181.0872   ZZ=           -169.5976
   XY=             -6.6119   XZ=              0.5726   YZ=            -11.0013

 Normal termination of Gaussian 16 at Sat Nov  5 09:30:47 2022.
