 Gaussian 16, Revision B.01,
 Gaussian 16:  ES64L-G16RevB.01 20-Dec-2017

 -----------------------------
 #p b3lyp/6-31g(d) opt SCF=XQC
 -----------------------------

 ------------------------------
 Gaussian input prepared by ASE
 ------------------------------
 Symbolic Z-matrix:
 Charge =  0 Multiplicity = 1

 SCF Done:  E(RB3LYP) =  -1601.55881090     A.U. after   15 cycles
 SCF Done:  E(RB3LYP) =  -1601.56498304     A.U. after   12 cycles
 SCF Done:  E(RB3LYP) =  -1601.56623835     A.U. after   11 cycles
 SCF Done:  E(RB3LYP) =  -1601.56665467     A.U. after   11 cycles
 SCF Done:  E(RB3LYP) =  -1601.56676298     A.U. after   11 cycles
 SCF Done:  E(RB3LYP) =  -1601.56679193     A.U. after   10 cycles
 SCF Done:  E(RB3LYP) =  -1601.56680270     A.U. after    9 cycles
 SCF Done:  E(RB3LYP) =  -1601.56680477     A.U. after    8 cycles
 SCF Done:  E(RB3LYP) =  -1601.56680544     A.U. after    8 cycles
 SCF Done:  E(RB3LYP) =  -1601.56680583     A.U. after    8 cycles
 SCF Done:  E(RB3LYP) =  -1601.56680599     A.U. after    7 cycles
 SCF Done:  E(RB3LYP) =  -1601.56680601     A.U. after    6 cycles
 Optimization completed.
    -- Stationary point found.

                         Standard orientation:
 ---------------------------------------------------------------------
 Center     Atomic      Atomic             Coordinates (Angstroms)
 Number     Number       Type             X           Y           Z
 ---------------------------------------------------------------------
      1          6           0       -3.821931    3.540998    0.158265
      2          6           0       -2.778703    2.458439    0.086254
      3          6           0       -1.426790    2.805209    0.068382
      4          7           0       -0.405302    1.950430    0.006728
      5          6           0       -0.753621    0.653465   -0.041890
      6          7           0        0.204006   -0.324695   -0.107292
      7          6           0        1.609389   -0.274737   -0.145786
      8          6           0        2.372649    0.898767   -0.136298
      9          6           0        3.767111    0.830551   -0.170851
     10          6           0        4.452322   -0.392403   -0.233967
     11          7           0        5.864100   -0.488324   -0.317726
     12          6           0        6.524213   -1.325182    0.696217
     13          6           0        7.967187   -1.632148    0.269304
     14          7           0        8.765704   -0.440780   -0.020699
     15          6           0        9.239252    0.265684    1.164027
     16          6           0        8.052766    0.403374   -0.979243
     17          6           0        6.608832    0.743323   -0.571692
     18          6           0        3.670828   -1.563958   -0.256734
     19          6           0        2.287031   -1.506330   -0.205178
     20          7           0       -2.014288    0.185069   -0.031823
     21          6           0       -3.026625    1.062194    0.031597
     22          6           0       -4.352511    0.432085    0.036449
     23          6           0       -5.616465    0.960164    0.093613
     24          6           0       -6.656988   -0.026452    0.074578
     25          6           0       -8.052905    0.158345    0.119199
     26          6           0       -8.888716   -0.947609    0.089125
     27          6           0       -8.354808   -2.248713    0.014616
     28          6           0       -6.980927   -2.456935   -0.030445
     29          6           0       -6.135293   -1.342270   -0.000158
     30         16           0       -4.383962   -1.339345   -0.044939
     31          1           0       -4.491981    3.529845   -0.710426
     32          1           0       -3.339765    4.523634    0.186491
     33          1           0       -4.446155    3.456777    1.056616
     34          1           0       -1.152203    3.859854    0.107457
     35          1           0       -0.204439   -1.249711   -0.135896
     36          1           0        1.875233    1.857138   -0.088740
     37          1           0        4.319280    1.763371   -0.138736
     38          1           0        5.973455   -2.262191    0.808456
     39          1           0        6.511582   -0.824605    1.682625
     40          1           0        7.933543   -2.244857   -0.641896
     41          1           0        8.469761   -2.217635    1.048284
     42          1           0        8.452782    0.693694    1.811149
     43          1           0        9.894500    1.086800    0.851332
     44          1           0        9.833804   -0.422443    1.775912
     45          1           0        8.621695    1.328081   -1.131905
     46          1           0        8.019406   -0.131072   -1.938119
     47          1           0        6.124803    1.283213   -1.392253
     48          1           0        6.608749    1.415009    0.308272
     49          1           0        4.154422   -2.532273   -0.343253
     50          1           0        1.715719   -2.432622   -0.229419
     51          1           0       -5.831222    2.017533    0.148598
     52          1           0       -8.464895    1.162694    0.176658
     53          1           0       -9.966056   -0.812201    0.123172
     54          1           0       -9.025764   -3.103033   -0.008069
     55          1           0       -6.574187   -3.462544   -0.087907
 ---------------------------------------------------------------------

 The electronic state is 1-A.
 Alpha  occ. eigenvalues --  -88.90063 -14.36594 -14.33406 -14.33075 -14.32764
 Alpha  occ. eigenvalues --  -14.31975 -10.28924 -10.25225 -10.23299 -10.22933
 Alpha  occ. eigenvalues --  -10.22298 -10.22072 -10.21092 -10.20855 -10.20707
 Alpha  occ. eigenvalues --  -10.20474 -10.20453 -10.20451 -10.20280 -10.20189
 Alpha  occ. eigenvalues --  -10.20039 -10.19875 -10.19713 -10.19639 -10.19596
 Alpha  occ. eigenvalues --  -10.19275 -10.18403 -10.17968 -10.17614 -10.17266
 Alpha  occ. eigenvalues --   -7.96076  -5.92519  -5.92151  -5.91712  -1.00440
 Alpha  occ. eigenvalues --   -0.94456  -0.93100  -0.90349  -0.89892  -0.88240
 Alpha  occ. eigenvalues --   -0.83638  -0.82525  -0.80280  -0.76978  -0.76113
 Alpha  occ. eigenvalues --   -0.74834  -0.73692  -0.73479  -0.71331  -0.70950
 Alpha  occ. eigenvalues --   -0.69205  -0.66780  -0.64937  -0.64519  -0.63006
 Alpha  occ. eigenvalues --   -0.60906  -0.60128  -0.58984  -0.58522  -0.56253
 Alpha  occ. eigenvalues --   -0.55075  -0.54066  -0.52819  -0.51680  -0.50394
 Alpha  occ. eigenvalues --   -0.49382  -0.47502  -0.46770  -0.46143  -0.46061
 Alpha  occ. eigenvalues --   -0.45593  -0.45075  -0.45043  -0.44525  -0.43691
 Alpha  occ. eigenvalues --   -0.43254  -0.42954  -0.42385  -0.42242  -0.41674
 Alpha  occ. eigenvalues --   -0.41315  -0.40792  -0.40194  -0.40147  -0.39060
 Alpha  occ. eigenvalues --   -0.38885  -0.38515  -0.37818  -0.37104  -0.36816
 Alpha  occ. eigenvalues --   -0.36036  -0.35299  -0.35248  -0.34598  -0.34430
 Alpha  occ. eigenvalues --   -0.34170  -0.33580  -0.33011  -0.32330  -0.30525
 Alpha  occ. eigenvalues --   -0.30428  -0.28476  -0.27344  -0.24792  -0.24196
 Alpha  occ. eigenvalues --   -0.23475  -0.22732  -0.21680  -0.20161  -0.17470
 Alpha virt. eigenvalues --   -0.06450  -0.01415  -0.00214   0.00648   0.00908
 Alpha virt. eigenvalues --    0.03051   0.03663   0.06406   0.08272   0.08925
 Alpha virt. eigenvalues --    0.09426   0.10190   0.10897   0.11340   0.11848

 Mulliken charges:
               1
     1  C   -0.549940
     2  C    0.127821
     3  C    0.012410
     4  N   -0.477586
     5  C    0.703108
     6  N   -0.772305
     7  C    0.366528
     8  C   -0.171856
     9  C   -0.202784
    10  C    0.333725
    11  N   -0.499382
    12  C   -0.141064
    13  C   -0.142429
    14  N   -0.365798
    15  C   -0.305265
    16  C   -0.145828
    17  C   -0.134274
    18  C   -0.172361
    19  C   -0.208053
    20  N   -0.589442
    21  C    0.314658
    22  C   -0.221995
    23  C   -0.160215
    24  C    0.139027
    25  C   -0.170478
    26  C   -0.146519
    27  C   -0.116621
    28  C   -0.184919
    29  C   -0.128110
    30  S    0.257755
    31  H    0.169671
    32  H    0.161030
    33  H    0.169530
    34  H    0.139265
    35  H    0.341718
    36  H    0.173108
    37  H    0.127543
    38  H    0.147003
    39  H    0.127894
    40  H    0.145566
    41  H    0.135877
    42  H    0.126260
    43  H    0.148569
    44  H    0.148580
    45  H    0.135727
    46  H    0.147522
    47  H    0.151317
    48  H    0.123132
    49  H    0.127572
    50  H    0.120807
    51  H    0.145374
    52  H    0.130854
    53  H    0.132027
    54  H    0.133358
    55  H    0.142892
 Sum of Mulliken charges =  -0.00000

 Dipole moment (field-independent basis, Debye):
    X=             -1.5018    Y=              1.0788    Z=              0.8401  Tot=              2.0310
 Quadrupole moment (field-independent basis, Debye-Ang):
   XX=           -159.1059   YY=           -162.9443   ZZ=           -187.8623
   XY=             -2.8058   XZ=              5.6410   YZ=             -0.8860

 Normal termination of Gaussian 16 at Fri Nov  4 21:14:48 2022.
