 Gaussian 16, Revision B.01,
 Gaussian 16:  ES64L-G16RevB.01 20-Dec-2017

 -------------------------------------------------------------------
 #p b3lyp/6-31g(d) 6D 10F nosymm GFInput td=(50-50,nstate=2) SCF=XQC
 -------------------------------------------------------------------

 ------------------------------
 Gaussian input prepared by ASE
 ------------------------------
 Symbolic Z-matrix:
 Charge =  0 Multiplicity = 1

                          Input orientation:
 ---------------------------------------------------------------------
 Center     Atomic      Atomic             Coordinates (Angstroms)
 Number     Number       Type             X           Y           Z
 ---------------------------------------------------------------------
      1          6           0        6.147883    0.845717   -0.646201
      2          6           0        4.885892    0.116829   -0.315031
      3          6           0        3.642351    0.565403    0.047121
      4          6           0        2.791307   -0.577370    0.232422
      5          6           0        1.394387   -0.628423    0.632746
      6          8           0        0.786208   -1.682672    0.817890
      7          6           0        0.665241    0.689664    0.963166
      8          7           0        0.585430    1.693275   -0.111711
      9          6           0        0.201516    3.028672    0.367813
     10         16           0       -0.199110    1.196626   -1.546115
     11          8           0        0.449887   -0.048109   -1.954444
     12          8           0       -0.223973    2.375206   -2.416729
     13          6           0       -1.897506    0.810277   -1.099367
     14          6           0       -2.901936    1.791899   -1.294327
     15          6           0       -4.198189    1.508181   -0.933138
     16          6           0       -4.545222    0.252454   -0.363798
     17          6           0       -5.875415   -0.065049    0.019722
     18          6           0       -6.175385   -1.292318    0.567054
     19          6           0       -5.159820   -2.262215    0.757608
     20          6           0       -3.860905   -1.987628    0.395335
     21          6           0       -3.518889   -0.730245   -0.172512
     22          6           0       -2.186744   -0.424455   -0.556043
     23          6           0        3.561701   -1.713549   -0.031567
     24          6           0        3.212164   -3.165393   -0.009875
     25          7           0        4.811418   -1.271616   -0.353913
     26          1           0        5.987117    1.923309   -0.553840
     27          1           0        6.974299    0.575446    0.025579
     28          1           0        6.482384    0.649952   -1.674085
     29          1           0        3.352239    1.602304    0.138181
     30          1           0        1.219977    1.174041    1.776457
     31          1           0       -0.325788    0.418959    1.354454
     32          1           0        0.179334    3.718911   -0.475010
     33          1           0       -0.775435    3.035474    0.876101
     34          1           0        0.964510    3.364378    1.077226
     35          1           0       -2.636805    2.739577   -1.749811
     36          1           0       -4.980346    2.247258   -1.088645
     37          1           0       -6.654840    0.678798   -0.126828
     38          1           0       -7.197143   -1.522748    0.856373
     39          1           0       -5.412407   -3.225586    1.191680
     40          1           0       -3.075589   -2.724967    0.539773
     41          1           0       -1.403947   -1.164453   -0.414486
     42          1           0        2.362657   -3.369505   -0.669031
     43          1           0        4.062315   -3.779283   -0.330350
     44          1           0        2.907289   -3.486317    0.991821
     45          1           0        5.577885   -1.880710   -0.603625
 ---------------------------------------------------------------------

 SCF Done:  E(RB3LYP) =  -1469.37406386     A.U. after   15 cycles

 Excitation energies and oscillator strengths:

 Excited state symmetry could not be determined.
 Excited State   1:      Triplet-?Sym    2.6928 eV  460.42 nm  f=0.0000  <S**2>=2.000
      90 -> 96         0.14618
      93 -> 95         0.66576
      93 -> 96        -0.10526
      93 <- 95         0.10268
 This state for optimization and/or second-order correction.
 Total Energy, E(TD-HF/TD-DFT) =  -1469.27510346
 Copying the excited state density for this state as the 1-particle RhoCI density.

 Excited state symmetry could not be determined.
 Excited State   2:      Triplet-?Sym    3.1405 eV  394.80 nm  f=0.0000  <S**2>=2.000
      91 -> 97         0.13302
      94 -> 96        -0.10756
      94 -> 97         0.66737
      94 -> 99        -0.10967

 Excited state symmetry could not be determined.
 Excited State   3:      Singlet-?Sym    3.6428 eV  340.35 nm  f=0.0001  <S**2>=0.000
      94 -> 95         0.70617

 Excited state symmetry could not be determined.
 Excited State   4:      Singlet-?Sym    4.1199 eV  300.94 nm  f=0.0012  <S**2>=0.000
      91 -> 97         0.13852
      92 -> 96         0.10402
      92 -> 97        -0.67181

 Alpha  occ. eigenvalues --  -89.10089 -19.13468 -19.13280 -19.11701 -14.38329
 Alpha  occ. eigenvalues --  -14.36856 -10.26186 -10.22460 -10.22299 -10.22117
 Alpha  occ. eigenvalues --  -10.22089 -10.21243 -10.20886 -10.20776 -10.20563
 Alpha  occ. eigenvalues --  -10.20484 -10.20194 -10.20026 -10.19848 -10.19819
 Alpha  occ. eigenvalues --  -10.19751 -10.19384 -10.18524 -10.16928 -10.16873
 Alpha  occ. eigenvalues --   -8.12629  -6.09105  -6.09054  -6.08942  -1.10155
 Alpha  occ. eigenvalues --   -1.01583  -0.99318  -0.97998  -0.93115  -0.88303
 Alpha  occ. eigenvalues --   -0.83335  -0.78391  -0.78261  -0.78009  -0.75827
 Alpha  occ. eigenvalues --   -0.73668  -0.73202  -0.72378  -0.70086  -0.65689
 Alpha  occ. eigenvalues --   -0.64597  -0.62759  -0.61856  -0.60395  -0.58366
 Alpha  occ. eigenvalues --   -0.57673  -0.54387  -0.52196  -0.51069  -0.50084
 Alpha  occ. eigenvalues --   -0.49621  -0.49339  -0.48026  -0.46345  -0.45514
 Alpha  occ. eigenvalues --   -0.45114  -0.44359  -0.43919  -0.43579  -0.42850
 Alpha  occ. eigenvalues --   -0.42744  -0.42403  -0.41746  -0.41685  -0.41539
 Alpha  occ. eigenvalues --   -0.41182  -0.40110  -0.39885  -0.39476  -0.38639
 Alpha  occ. eigenvalues --   -0.38444  -0.37764  -0.37143  -0.35743  -0.35594
 Alpha  occ. eigenvalues --   -0.35314  -0.34012  -0.33960  -0.32369  -0.30852
 Alpha  occ. eigenvalues --   -0.29786  -0.29180  -0.28980  -0.26467  -0.25057
 Alpha  occ. eigenvalues --   -0.24079  -0.23392  -0.22474  -0.20078
 Alpha virt. eigenvalues --   -0.05224  -0.02558  -0.02241   0.02167   0.04431
 Alpha virt. eigenvalues --    0.06468   0.07166   0.07525   0.08672   0.09571
 Alpha virt. eigenvalues --    0.09943   0.10662   0.11339   0.11907   0.12309

 Mulliken charges:
               1
     1  C   -0.531843
     2  C    0.336591
     3  C   -0.249457
     4  C    0.026360
     5  C    0.414496
     6  O   -0.520464
     7  C   -0.245752
     8  N   -0.514363
     9  C   -0.333147
    10  S    1.268705
    11  O   -0.543733
    12  O   -0.555974
    13  C   -0.172200
    14  C   -0.154909
    15  C   -0.190773
    16  C    0.145554
    17  C   -0.191722
    18  C   -0.129624
    19  C   -0.137633
    20  C   -0.180369
    21  C    0.119623
    22  C   -0.222365
    23  C    0.333215
    24  C   -0.503743
    25  N   -0.663638
    26  H    0.173365
    27  H    0.156477
    28  H    0.162734
    29  H    0.132757
    30  H    0.169719
    31  H    0.165964
    32  H    0.205673
    33  H    0.151185
    34  H    0.164143
    35  H    0.172588
    36  H    0.139423
    37  H    0.134921
    38  H    0.136128
    39  H    0.137382
    40  H    0.153238
    41  H    0.209830
    42  H    0.196158
    43  H    0.129706
    44  H    0.182336
    45  H    0.323438
 Sum of Mulliken charges =  -0.00000

 Dipole moment (field-independent basis, Debye):
    X=              1.0401    Y=              0.0560    Z=              3.2974  Tot=              3.4580
 Quadrupole moment (field-independent basis, Debye-Ang):
   XX=           -105.5299   YY=           -140.8511   ZZ=           -163.9692
   XY=             -7.0489   XZ=             -3.2664   YZ=              6.3869

 Normal termination of Gaussian 16 at Sat Nov  5 09:44:49 2022.
