 Gaussian 16, Revision B.01,
 Gaussian 16:  ES64L-G16RevB.01 20-Dec-2017

 -----------------------------
 #p b3lyp/6-31g(d) opt SCF=XQC
 -----------------------------

 ------------------------------
 Gaussian input prepared by ASE
 ------------------------------
 Symbolic Z-matrix:
 Charge =  0 Multiplicity = 1

 SCF Done:  E(RB3LYP) =  -1469.35897598     A.U. after   15 cycles
 SCF Done:  E(RB3LYP) =  -1469.36872055     A.U. after   15 cycles
 SCF Done:  E(RB3LYP) =  -1469.37089984     A.U. after   15 cycles
 SCF Done:  E(RB3LYP) =  -1469.37334732     A.U. after   13 cycles
 SCF Done:  E(RB3LYP) =  -1469.37381112     A.U. after   12 cycles
 SCF Done:  E(RB3LYP) =  -1469.37399309     A.U. after   12 cycles
 SCF Done:  E(RB3LYP) =  -1469.37405031     A.U. after   12 cycles
 SCF Done:  E(RB3LYP) =  -1469.37406405     A.U. after   10 cycles
 SCF Done:  E(RB3LYP) =  -1469.37406582     A.U. after    8 cycles
 SCF Done:  E(RB3LYP) =  -1469.37406615     A.U. after    7 cycles
 SCF Done:  E(RB3LYP) =  -1469.37406633     A.U. after    7 cycles
 SCF Done:  E(RB3LYP) =  -1469.37406643     A.U. after    6 cycles
 Optimization completed.
    -- Stationary point found.

                         Standard orientation:
 ---------------------------------------------------------------------
 Center     Atomic      Atomic             Coordinates (Angstroms)
 Number     Number       Type             X           Y           Z
 ---------------------------------------------------------------------
      1          6           0       -6.320579   -0.859094    0.059052
      2          6           0       -5.058161   -0.061285    0.117124
      3          6           0       -3.807715   -0.366659    0.588188
      4          6           0       -2.960235    0.774697    0.379321
      5          6           0       -1.558505    0.954237    0.721623
      6          8           0       -0.953412    2.011692    0.544832
      7          6           0       -0.818336   -0.183903    1.453040
      8          7           0       -0.747346   -1.482820    0.762578
      9          6           0       -0.350344   -2.588984    1.645421
     10         16           0        0.015889   -1.479927   -0.766193
     11          8           0       -0.644776   -0.436463   -1.548497
     12          8           0        0.035496   -2.877782   -1.205799
     13          6           0        1.717941   -0.968060   -0.493409
     14          6           0        2.724796   -1.959018   -0.372099
     15          6           0        4.024160   -1.572309   -0.141155
     16          6           0        4.372095   -0.199398   -0.016693
     17          6           0        5.705511    0.226548    0.223885
     18          6           0        6.006246    1.565355    0.337467
     19          6           0        4.988261    2.543784    0.215966
     20          6           0        3.686174    2.165353   -0.018938
     21          6           0        3.343284    0.791367   -0.141520
     22          6           0        2.007855    0.376489   -0.385896
     23          6           0       -3.739848    1.762457   -0.229477
     24          6           0       -3.397547    3.142427   -0.686654
     25          7           0       -4.991359    1.238839   -0.372826
     26          1           0       -6.153072   -1.847746    0.495041
     27          1           0       -7.139566   -0.385291    0.617685
     28          1           0       -6.669434   -1.008989   -0.971769
     29          1           0       -3.511101   -1.317182    1.007888
     30          1           0       -1.359936   -0.377339    2.387409
     31          1           0        0.176293    0.200113    1.720944
     32          1           0       -0.335574   -3.516075    1.073095
     33          1           0        0.633160   -2.429248    2.114503
     34          1           0       -1.102300   -2.675820    2.436083
     35          1           0        2.458650   -3.003540   -0.490386
     36          1           0        4.808027   -2.321237   -0.058425
     37          1           0        6.486787   -0.523975    0.316675
     38          1           0        7.030482    1.878100    0.521657
     39          1           0        5.241505    3.596163    0.309076
     40          1           0        2.899013    2.909032   -0.111523
     41          1           0        1.223162    1.121745   -0.482106
     42          1           0       -2.557754    3.121268   -1.388159
     43          1           0       -4.254951    3.617927   -1.177653
     44          1           0       -3.081321    3.772292    0.151563
     45          1           0       -5.764140    1.732906   -0.796536
 ---------------------------------------------------------------------

 The electronic state is 1-A.
 Alpha  occ. eigenvalues --  -89.10089 -19.13467 -19.13280 -19.11701 -14.38329
 Alpha  occ. eigenvalues --  -14.36856 -10.26187 -10.22460 -10.22299 -10.22117
 Alpha  occ. eigenvalues --  -10.22089 -10.21243 -10.20886 -10.20776 -10.20563
 Alpha  occ. eigenvalues --  -10.20484 -10.20194 -10.20026 -10.19848 -10.19819
 Alpha  occ. eigenvalues --  -10.19751 -10.19384 -10.18524 -10.16928 -10.16873
 Alpha  occ. eigenvalues --   -8.12629  -6.09105  -6.09054  -6.08942  -1.10155
 Alpha  occ. eigenvalues --   -1.01583  -0.99318  -0.97998  -0.93115  -0.88303
 Alpha  occ. eigenvalues --   -0.83334  -0.78391  -0.78261  -0.78009  -0.75827
 Alpha  occ. eigenvalues --   -0.73668  -0.73202  -0.72378  -0.70086  -0.65689
 Alpha  occ. eigenvalues --   -0.64597  -0.62759  -0.61856  -0.60395  -0.58366
 Alpha  occ. eigenvalues --   -0.57673  -0.54387  -0.52196  -0.51069  -0.50084
 Alpha  occ. eigenvalues --   -0.49621  -0.49339  -0.48026  -0.46345  -0.45514
 Alpha  occ. eigenvalues --   -0.45114  -0.44359  -0.43919  -0.43579  -0.42850
 Alpha  occ. eigenvalues --   -0.42744  -0.42403  -0.41746  -0.41685  -0.41539
 Alpha  occ. eigenvalues --   -0.41182  -0.40110  -0.39885  -0.39476  -0.38639
 Alpha  occ. eigenvalues --   -0.38444  -0.37764  -0.37143  -0.35743  -0.35594
 Alpha  occ. eigenvalues --   -0.35314  -0.34012  -0.33960  -0.32369  -0.30852
 Alpha  occ. eigenvalues --   -0.29786  -0.29180  -0.28980  -0.26467  -0.25057
 Alpha  occ. eigenvalues --   -0.24079  -0.23392  -0.22474  -0.20078
 Alpha virt. eigenvalues --   -0.05224  -0.02558  -0.02241   0.02167   0.04431
 Alpha virt. eigenvalues --    0.06468   0.07166   0.07525   0.08672   0.09571
 Alpha virt. eigenvalues --    0.09943   0.10662   0.11339   0.11907   0.12309

 Mulliken charges:
               1
     1  C   -0.531841
     2  C    0.336579
     3  C   -0.249454
     4  C    0.026373
     5  C    0.414477
     6  O   -0.520456
     7  C   -0.245735
     8  N   -0.514352
     9  C   -0.333147
    10  S    1.268690
    11  O   -0.543712
    12  O   -0.555988
    13  C   -0.172205
    14  C   -0.154915
    15  C   -0.190769
    16  C    0.145549
    17  C   -0.191722
    18  C   -0.129623
    19  C   -0.137632
    20  C   -0.180370
    21  C    0.119626
    22  C   -0.222367
    23  C    0.333199
    24  C   -0.503735
    25  N   -0.663631
    26  H    0.173365
    27  H    0.156477
    28  H    0.162734
    29  H    0.132759
    30  H    0.169718
    31  H    0.165965
    32  H    0.205670
    33  H    0.151184
    34  H    0.164143
    35  H    0.172586
    36  H    0.139423
    37  H    0.134921
    38  H    0.136128
    39  H    0.137381
    40  H    0.153240
    41  H    0.209829
    42  H    0.196158
    43  H    0.129705
    44  H    0.182336
    45  H    0.323438
 Sum of Mulliken charges =  -0.00000

 Dipole moment (field-independent basis, Debye):
    X=             -0.9968    Y=              1.0204    Z=              3.1501  Tot=              3.4580
 Quadrupole moment (field-independent basis, Debye-Ang):
   XX=           -105.0447   YY=           -146.9279   ZZ=           -155.7799
   XY=             -6.0707   XZ=              3.8210   YZ=            -11.2655

 Normal termination of Gaussian 16 at Fri Nov  4 21:50:51 2022.
