 Gaussian 16, Revision B.01,
 Gaussian 16:  ES64L-G16RevB.01 20-Dec-2017

 -----------------------------
 #p b3lyp/6-31g(d) opt SCF=XQC
 -----------------------------

 ------------------------------
 Gaussian input prepared by ASE
 ------------------------------
 Symbolic Z-matrix:
 Charge =  0 Multiplicity = 1

 SCF Done:  E(RB3LYP) =  -1374.85227738     A.U. after   15 cycles
 SCF Done:  E(RB3LYP) =  -1374.85823656     A.U. after   12 cycles
 SCF Done:  E(RB3LYP) =  -1374.85885216     A.U. after   12 cycles
 SCF Done:  E(RB3LYP) =  -1374.85907934     A.U. after   12 cycles
 SCF Done:  E(RB3LYP) =  -1374.85923396     A.U. after   13 cycles
 SCF Done:  E(RB3LYP) =  -1374.85938244     A.U. after   12 cycles
 SCF Done:  E(RB3LYP) =  -1374.85945531     A.U. after   10 cycles
 SCF Done:  E(RB3LYP) =  -1374.85948345     A.U. after   12 cycles
 SCF Done:  E(RB3LYP) =  -1374.85950074     A.U. after   11 cycles
 SCF Done:  E(RB3LYP) =  -1374.85952130     A.U. after   10 cycles
 SCF Done:  E(RB3LYP) =  -1374.85952787     A.U. after   10 cycles
 SCF Done:  E(RB3LYP) =  -1374.85953041     A.U. after   10 cycles
 SCF Done:  E(RB3LYP) =  -1374.85953197     A.U. after   10 cycles
 SCF Done:  E(RB3LYP) =  -1374.85953255     A.U. after    8 cycles
 SCF Done:  E(RB3LYP) =  -1374.85953257     A.U. after    7 cycles
 SCF Done:  E(RB3LYP) =  -1374.85953258     A.U. after    6 cycles
 Optimization completed.
    -- Stationary point found.

                         Standard orientation:
 ---------------------------------------------------------------------
 Center     Atomic      Atomic             Coordinates (Angstroms)
 Number     Number       Type             X           Y           Z
 ---------------------------------------------------------------------
      1          6           0       10.373445    0.610914   -1.437894
      2          8           0        9.599446    1.231750   -0.424199
      3          6           0        8.293911    0.855826   -0.288125
      4          6           0        7.572121    1.509282    0.720454
      5          6           0        6.237859    1.195994    0.939503
      6          6           0        5.577431    0.221377    0.168501
      7          6           0        4.155415   -0.128172    0.392275
      8          6           0        3.460369    0.179768    1.579915
      9          6           0        2.136239   -0.174781    1.692979
     10          6           0        1.538067   -0.843426    0.595420
     11          7           0        0.212664   -1.206507    0.590780
     12          6           0       -0.349284   -2.063651   -0.455756
     13          6           0       -1.653857   -1.474375   -1.018094
     14          6           0       -2.515171   -0.793793    0.081637
     15          6           0       -4.005064   -1.077348   -0.133707
     16          8           0       -4.422052   -2.223846   -0.256918
     17          7           0       -4.802532    0.039561   -0.139688
     18          6           0       -6.202206    0.123729   -0.275202
     19          6           0       -7.053705   -0.974675   -0.418497
     20          6           0       -8.431933   -0.776979   -0.545446
     21          6           0       -8.967187    0.506543   -0.530592
     22          6           0       -8.125485    1.615667   -0.387459
     23          6           0       -6.751997    1.428169   -0.260200
     24          8           0       -5.831656    2.439180   -0.113395
     25          6           0       -6.297857    3.779729   -0.105754
     26          6           0       -2.092297   -1.313084    1.470368
     27          6           0       -0.627966   -0.954947    1.758005
     28          7           0        2.265643   -1.150440   -0.501294
     29          7           0        3.534690   -0.792572   -0.596072
     30          6           0        6.313230   -0.416067   -0.841093
     31          6           0        7.653049   -0.110637   -1.073587
     32          1           0       10.451934   -0.472973   -1.280111
     33          1           0       11.367440    1.057323   -1.371396
     34          1           0        9.957540    0.799233   -2.436559
     35          1           0        8.076555    2.265910    1.313395
     36          1           0        5.701337    1.739191    1.712285
     37          1           0        3.963159    0.665466    2.410113
     38          1           0        1.585984    0.031827    2.603296
     39          1           0       -0.534189   -3.066845   -0.044043
     40          1           0        0.402925   -2.165806   -1.235635
     41          1           0       -2.230995   -2.284999   -1.474508
     42          1           0       -1.424803   -0.744866   -1.802572
     43          1           0       -2.334300    0.289658    0.061058
     44          1           0       -4.348600    0.938679   -0.050020
     45          1           0       -6.623774   -1.966356   -0.430394
     46          1           0       -9.082070   -1.639823   -0.656832
     47          1           0      -10.037947    0.659766   -0.629759
     48          1           0       -8.546650    2.614524   -0.376324
     49          1           0       -5.411688    4.406090    0.011383
     50          1           0       -6.984128    3.959294    0.731626
     51          1           0       -6.800971    4.032713   -1.047609
     52          1           0       -2.717592   -0.878492    2.258879
     53          1           0       -2.250834   -2.395976    1.504387
     54          1           0       -0.568086    0.111898    2.018214
     55          1           0       -0.272841   -1.518566    2.637348
     56          1           0        5.815754   -1.162304   -1.450516
     57          1           0        8.184905   -0.631892   -1.861594
 ---------------------------------------------------------------------

 The electronic state is 1-A.
 Alpha  occ. eigenvalues --  -19.19422 -19.17474 -19.11784 -14.37515 -14.35656
 Alpha  occ. eigenvalues --  -14.34834 -14.34227 -10.29050 -10.25632 -10.25432
 Alpha  occ. eigenvalues --  -10.25362 -10.24212 -10.23843 -10.23369 -10.23122
 Alpha  occ. eigenvalues --  -10.21598 -10.21059 -10.20691 -10.20530 -10.20310
 Alpha  occ. eigenvalues --  -10.20050 -10.19289 -10.18861 -10.18678 -10.18590
 Alpha  occ. eigenvalues --  -10.18572 -10.18363 -10.18277 -10.18143 -10.17965
 Alpha  occ. eigenvalues --  -10.17961  -1.07819  -1.06020  -1.03626  -1.00471
 Alpha  occ. eigenvalues --   -0.94964  -0.93925  -0.85186  -0.84714  -0.82704
 Alpha  occ. eigenvalues --   -0.81116  -0.78950  -0.76602  -0.76194  -0.74885
 Alpha  occ. eigenvalues --   -0.74461  -0.73960  -0.70722  -0.69840  -0.68287
 Alpha  occ. eigenvalues --   -0.66151  -0.64366  -0.63182  -0.61974  -0.60215
 Alpha  occ. eigenvalues --   -0.59853  -0.58038  -0.57267  -0.55825  -0.54776
 Alpha  occ. eigenvalues --   -0.53545  -0.52895  -0.52150  -0.51127  -0.50661
 Alpha  occ. eigenvalues --   -0.49738  -0.48195  -0.47797  -0.47124  -0.46587
 Alpha  occ. eigenvalues --   -0.46504  -0.46453  -0.45637  -0.44385  -0.43680
 Alpha  occ. eigenvalues --   -0.43588  -0.43291  -0.42458  -0.42280  -0.41862
 Alpha  occ. eigenvalues --   -0.41644  -0.41374  -0.41132  -0.40394  -0.40148
 Alpha  occ. eigenvalues --   -0.39149  -0.38256  -0.37918  -0.37293  -0.37056
 Alpha  occ. eigenvalues --   -0.36843  -0.35871  -0.35418  -0.35263  -0.34140
 Alpha  occ. eigenvalues --   -0.33742  -0.33317  -0.32607  -0.32434  -0.32033
 Alpha  occ. eigenvalues --   -0.30516  -0.30177  -0.29694  -0.28903  -0.25108
 Alpha  occ. eigenvalues --   -0.24495  -0.23870  -0.22701  -0.21226  -0.20973
 Alpha  occ. eigenvalues --   -0.18761
 Alpha virt. eigenvalues --   -0.03439  -0.01895  -0.01278   0.00758   0.01000
 Alpha virt. eigenvalues --    0.04580   0.04935   0.06838   0.08402   0.08695
 Alpha virt. eigenvalues --    0.09577   0.09906   0.10335   0.11351   0.12177

 Mulliken charges:
               1
     1  C   -0.214617
     2  O   -0.508560
     3  C    0.381419
     4  C   -0.181755
     5  C   -0.189249
     6  C    0.105930
     7  C    0.251872
     8  C   -0.151645
     9  C   -0.170902
    10  C    0.553988
    11  N   -0.499743
    12  C   -0.158277
    13  C   -0.279798
    14  C   -0.173976
    15  C    0.621085
    16  O   -0.518807
    17  N   -0.730546
    18  C    0.300164
    19  C   -0.173247
    20  C   -0.144977
    21  C   -0.134539
    22  C   -0.202082
    23  C    0.336370
    24  O   -0.543942
    25  C   -0.215192
    26  C   -0.304026
    27  C   -0.117480
    28  N   -0.371783
    29  N   -0.339866
    30  C   -0.175895
    31  C   -0.200194
    32  H    0.152667
    33  H    0.168398
    34  H    0.153325
    35  H    0.134935
    36  H    0.123117
    37  H    0.145166
    38  H    0.142275
    39  H    0.146846
    40  H    0.207460
    41  H    0.171939
    42  H    0.149762
    43  H    0.125985
    44  H    0.352131
    45  H    0.187048
    46  H    0.130824
    47  H    0.128460
    48  H    0.132692
    49  H    0.170525
    50  H    0.158551
    51  H    0.159907
    52  H    0.150155
    53  H    0.175656
    54  H    0.144165
    55  H    0.144442
    56  H    0.162036
    57  H    0.131803
 Sum of Mulliken charges =  -0.00000

 Dipole moment (field-independent basis, Debye):
    X=             -1.6032    Y=              4.3497    Z=              2.2324  Tot=              5.1453
 Quadrupole moment (field-independent basis, Debye-Ang):
   XX=           -155.0261   YY=           -173.5116   ZZ=           -174.8603
   XY=            -24.3063   XZ=             -6.3144   YZ=              0.5069

 Normal termination of Gaussian 16 at Fri Nov  4 22:04:09 2022.
