 Gaussian 16, Revision B.01,
 Gaussian 16:  ES64L-G16RevB.01 20-Dec-2017

 -------------------------------------------------------------------
 #p b3lyp/6-31g(d) 6D 10F nosymm GFInput td=(50-50,nstate=2) SCF=XQC
 -------------------------------------------------------------------

 ------------------------------
 Gaussian input prepared by ASE
 ------------------------------
 Symbolic Z-matrix:
 Charge =  0 Multiplicity = 1

                          Input orientation:
 ---------------------------------------------------------------------
 Center     Atomic      Atomic             Coordinates (Angstroms)
 Number     Number       Type             X           Y           Z
 ---------------------------------------------------------------------
      1          6           0       10.438610   -0.117082   -1.470984
      2          8           0        9.623898    0.981213   -1.094044
      3          6           0        8.330993    0.731413   -0.733138
      4          6           0        7.567324    1.853279   -0.381789
      5          6           0        6.241891    1.703749    0.001948
      6          6           0        5.632168    0.436465    0.054041
      7          6           0        4.220318    0.258920    0.465801
      8          6           0        3.492980    1.235262    1.177236
      9          6           0        2.181117    0.986052    1.506960
     10          6           0        1.628121   -0.257846    1.111427
     11          7           0        0.317428   -0.589909    1.357110
     12          6           0       -0.193290   -1.942588    1.122282
     13          6           0       -1.508497   -1.911348    0.325644
     14          6           0       -2.414224   -0.715340    0.730226
     15          6           0       -3.888419   -1.130132    0.765669
     16          8           0       -4.260216   -2.098357    1.419753
     17          7           0       -4.726609   -0.316740    0.045039
     18          6           0       -6.125769   -0.396592   -0.098172
     19          6           0       -6.933131   -1.358651    0.513942
     20          6           0       -8.315238   -1.345779    0.303400
     21          6           0       -8.898006   -0.381718   -0.512144
     22          6           0       -8.100828    0.587995   -1.131232
     23          6           0       -6.723842    0.582888   -0.927019
     24          8           0       -5.844512    1.483534   -1.480499
     25          6           0       -6.360276    2.489037   -2.339233
     26          6           0       -1.997482   -0.192835    2.119604
     27          6           0       -0.552906    0.324509    2.091081
     28          7           0        2.386286   -1.173230    0.468258
     29          7           0        3.642660   -0.911843    0.150872
     30          6           0        6.409258   -0.673326   -0.308610
     31          6           0        7.740778   -0.538265   -0.697542
     32          1           0       10.554468   -0.835701   -0.648774
     33          1           0       11.413965    0.305186   -1.720189
     34          1           0       10.034091   -0.638035   -2.348904
     35          1           0        8.032502    2.833144   -0.426417
     36          1           0        5.671688    2.596315    0.243412
     37          1           0        3.962301    2.162907    1.488912
     38          1           0        1.607219    1.711338    2.071534
     39          1           0       -0.348185   -2.445755    2.088164
     40          1           0        0.576153   -2.495813    0.587150
     41          1           0       -2.046776   -2.846655    0.509957
     42          1           0       -1.292590   -1.856180   -0.746921
     43          1           0       -2.273404    0.102279    0.010036
     44          1           0       -4.308100    0.443136   -0.474525
     45          1           0       -6.466496   -2.103127    1.143562
     46          1           0       -8.930740   -2.100005    0.784945
     47          1           0       -9.971756   -0.372347   -0.675886
     48          1           0       -8.558958    1.337783   -1.766177
     49          1           0       -5.500258    3.076638   -2.665482
     50          1           0       -7.067752    3.141033   -1.811223
     51          1           0       -6.855359    2.050591   -3.214947
     52          1           0       -2.652632    0.623807    2.444395
     53          1           0       -2.116252   -1.000423    2.849428
     54          1           0       -0.537425    1.306717    1.596630
     55          1           0       -0.193012    0.480335    3.122206
     56          1           0        5.950943   -1.655699   -0.283338
     57          1           0        8.305778   -1.424207   -0.964776
 ---------------------------------------------------------------------

 SCF Done:  E(RB3LYP) =  -1374.85953643     A.U. after   15 cycles

 Excitation energies and oscillator strengths:

 Excited state symmetry could not be determined.
 Excited State   1:      Triplet-?Sym    2.7299 eV  454.17 nm  f=0.0000  <S**2>=2.000
     109 ->112         0.48065
     111 ->112        -0.47394
     111 ->113         0.12206
 This state for optimization and/or second-order correction.
 Total Energy, E(TD-HF/TD-DFT) =  -1374.75921473
 Copying the excited state density for this state as the 1-particle RhoCI density.

 Excited state symmetry could not be determined.
 Excited State   2:      Triplet-?Sym    2.7418 eV  452.19 nm  f=0.0000  <S**2>=2.000
     109 ->112         0.49313
     111 ->112         0.45653
     111 ->113        -0.12749

 Excited state symmetry could not be determined.
 Excited State   3:      Singlet-?Sym    3.5167 eV  352.56 nm  f=0.0034  <S**2>=0.000
     109 ->112         0.66497
     111 ->112        -0.21183

 Excited state symmetry could not be determined.
 Excited State   4:      Singlet-?Sym    3.6543 eV  339.28 nm  f=0.0147  <S**2>=0.000
     109 ->112         0.21108
     111 ->112         0.66119

 Alpha  occ. eigenvalues --  -19.19422 -19.17474 -19.11784 -14.37515 -14.35656
 Alpha  occ. eigenvalues --  -14.34834 -14.34227 -10.29050 -10.25632 -10.25432
 Alpha  occ. eigenvalues --  -10.25362 -10.24212 -10.23843 -10.23369 -10.23122
 Alpha  occ. eigenvalues --  -10.21597 -10.21059 -10.20691 -10.20530 -10.20310
 Alpha  occ. eigenvalues --  -10.20050 -10.19289 -10.18860 -10.18678 -10.18590
 Alpha  occ. eigenvalues --  -10.18572 -10.18363 -10.18277 -10.18143 -10.17965
 Alpha  occ. eigenvalues --  -10.17961  -1.07819  -1.06020  -1.03626  -1.00471
 Alpha  occ. eigenvalues --   -0.94964  -0.93925  -0.85186  -0.84714  -0.82704
 Alpha  occ. eigenvalues --   -0.81116  -0.78950  -0.76602  -0.76194  -0.74885
 Alpha  occ. eigenvalues --   -0.74461  -0.73960  -0.70722  -0.69840  -0.68287
 Alpha  occ. eigenvalues --   -0.66151  -0.64366  -0.63182  -0.61974  -0.60215
 Alpha  occ. eigenvalues --   -0.59853  -0.58038  -0.57267  -0.55825  -0.54776
 Alpha  occ. eigenvalues --   -0.53545  -0.52895  -0.52150  -0.51127  -0.50661
 Alpha  occ. eigenvalues --   -0.49738  -0.48195  -0.47797  -0.47124  -0.46587
 Alpha  occ. eigenvalues --   -0.46504  -0.46453  -0.45637  -0.44385  -0.43680
 Alpha  occ. eigenvalues --   -0.43588  -0.43291  -0.42458  -0.42280  -0.41862
 Alpha  occ. eigenvalues --   -0.41644  -0.41374  -0.41132  -0.40394  -0.40148
 Alpha  occ. eigenvalues --   -0.39149  -0.38256  -0.37918  -0.37293  -0.37056
 Alpha  occ. eigenvalues --   -0.36843  -0.35871  -0.35418  -0.35263  -0.34140
 Alpha  occ. eigenvalues --   -0.33742  -0.33317  -0.32607  -0.32434  -0.32033
 Alpha  occ. eigenvalues --   -0.30516  -0.30178  -0.29694  -0.28903  -0.25108
 Alpha  occ. eigenvalues --   -0.24495  -0.23870  -0.22701  -0.21226  -0.20973
 Alpha  occ. eigenvalues --   -0.18761
 Alpha virt. eigenvalues --   -0.03439  -0.01895  -0.01278   0.00758   0.01000
 Alpha virt. eigenvalues --    0.04580   0.04936   0.06838   0.08402   0.08695
 Alpha virt. eigenvalues --    0.09577   0.09906   0.10335   0.11351   0.12177

 Mulliken charges:
               1
     1  C   -0.214621
     2  O   -0.508563
     3  C    0.381423
     4  C   -0.181752
     5  C   -0.189239
     6  C    0.105919
     7  C    0.251878
     8  C   -0.151647
     9  C   -0.170897
    10  C    0.553989
    11  N   -0.499736
    12  C   -0.158271
    13  C   -0.279790
    14  C   -0.174000
    15  C    0.621093
    16  O   -0.518799
    17  N   -0.730544
    18  C    0.300129
    19  C   -0.173233
    20  C   -0.144967
    21  C   -0.134549
    22  C   -0.202088
    23  C    0.336387
    24  O   -0.543939
    25  C   -0.215195
    26  C   -0.304022
    27  C   -0.117495
    28  N   -0.371787
    29  N   -0.339870
    30  C   -0.175893
    31  C   -0.200195
    32  H    0.152668
    33  H    0.168399
    34  H    0.153326
    35  H    0.134934
    36  H    0.123116
    37  H    0.145167
    38  H    0.142273
    39  H    0.146842
    40  H    0.207459
    41  H    0.171939
    42  H    0.149761
    43  H    0.125987
    44  H    0.352130
    45  H    0.187049
    46  H    0.130823
    47  H    0.128461
    48  H    0.132692
    49  H    0.170525
    50  H    0.158552
    51  H    0.159908
    52  H    0.150156
    53  H    0.175656
    54  H    0.144170
    55  H    0.144444
    56  H    0.162036
    57  H    0.131803
 Sum of Mulliken charges =  -0.00000

 Dipole moment (field-independent basis, Debye):
    X=             -1.8038    Y=              4.6903    Z=             -1.1052  Tot=              5.1453
 Quadrupole moment (field-independent basis, Debye-Ang):
   XX=           -153.2794   YY=           -175.9569   ZZ=           -175.2999
   XY=            -21.3306   XZ=             10.4483   YZ=              0.7468

 Normal termination of Gaussian 16 at Sat Nov  5 09:45:55 2022.
