 Gaussian 16, Revision B.01,
 Gaussian 16:  ES64L-G16RevB.01 20-Dec-2017

 -------------------------------------------------------------------
 #p b3lyp/6-31g(d) 6D 10F nosymm GFInput td=(50-50,nstate=2) SCF=XQC
 -------------------------------------------------------------------

 ------------------------------
 Gaussian input prepared by ASE
 ------------------------------
 Symbolic Z-matrix:
 Charge =  0 Multiplicity = 1

                          Input orientation:
 ---------------------------------------------------------------------
 Center     Atomic      Atomic             Coordinates (Angstroms)
 Number     Number       Type             X           Y           Z
 ---------------------------------------------------------------------
      1          6           0       -3.063287   -1.849160   -3.058613
      2          6           0       -1.984458   -1.776637   -2.025346
      3          7           0       -1.146455   -2.861178   -1.833926
      4          6           0       -0.355357   -2.511503   -0.852323
      5          7           0        0.649210   -3.285665   -0.319819
      6          6           0        0.895431   -4.623324   -0.851985
      7          6           0        1.376808   -2.739958    0.701333
      8          7           0        2.396131   -3.336904    1.375477
      9          6           0        2.758164   -2.422275    2.267760
     10          7           0        2.030508   -1.280075    2.217840
     11          6           0        2.235286   -0.065111    3.027640
     12          6           0        3.271610    0.877950    2.446709
     13          6           0        4.592802    0.849180    2.907517
     14          6           0        5.552851    1.705008    2.365536
     15          6           0        5.196567    2.599875    1.355577
     16          6           0        3.878546    2.637724    0.894663
     17          6           0        2.918443    1.783637    1.437451
     18          6           0        1.115298   -1.458556    1.182505
     19          6           0        0.074733   -0.599245    0.705340
     20          8           0       -0.214089    0.522515    1.122092
     21          7           0       -0.623335   -1.230617   -0.361609
     22          6           0       -1.696485   -0.743313   -1.150831
     23          6           0       -2.300186    0.566785   -0.955642
     24          6           0       -2.948365    1.264939   -1.905378
     25          6           0       -3.647714    2.591623   -1.716803
     26          6           0       -5.126584    2.476688   -2.143345
     27          6           0       -3.528479    3.175055   -0.304107
     28          1           0       -2.728429   -1.465223   -4.031835
     29          1           0       -3.939424   -1.264743   -2.759068
     30          1           0       -3.359897   -2.892322   -3.203400
     31          1           0       -0.006057   -5.234088   -0.753789
     32          1           0        1.159134   -4.560732   -1.911360
     33          1           0        1.714723   -5.060325   -0.282287
     34          1           0        3.557731   -2.553769    2.984971
     35          1           0        2.535958   -0.397884    4.025697
     36          1           0        1.262677    0.422858    3.101717
     37          1           0        4.873199    0.158521    3.700683
     38          1           0        6.574615    1.675271    2.734399
     39          1           0        5.941609    3.268693    0.932989
     40          1           0        3.595315    3.337999    0.113389
     41          1           0        1.890485    1.813830    1.086252
     42          1           0       -2.194042    0.984587    0.038026
     43          1           0       -2.991776    0.873122   -2.921130
     44          1           0       -3.173104    3.303881   -2.412790
     45          1           0       -5.621482    3.454725   -2.107827
     46          1           0       -5.669331    1.795703   -1.476693
     47          1           0       -5.219620    2.089730   -3.165079
     48          1           0       -4.016993    4.154833   -0.254284
     49          1           0       -4.010703    2.524356    0.435497
     50          1           0       -2.482186    3.303525   -0.006718
 ---------------------------------------------------------------------

 SCF Done:  E(RB3LYP) =  -1163.09871397     A.U. after   16 cycles

 Excitation energies and oscillator strengths:

 Excited state symmetry could not be determined.
 Excited State   1:      Triplet-?Sym    2.6382 eV  469.96 nm  f=0.0000  <S**2>=2.000
      95 ->100         0.11153
      96 -> 97         0.57467
      96 -> 98        -0.18428
      96 ->100         0.32250
 This state for optimization and/or second-order correction.
 Total Energy, E(TD-HF/TD-DFT) =  -1163.00176326
 Copying the excited state density for this state as the 1-particle RhoCI density.

 Excited state symmetry could not be determined.
 Excited State   2:      Triplet-?Sym    3.0362 eV  408.36 nm  f=0.0000  <S**2>=2.000
      95 -> 97         0.32455
      96 -> 97        -0.30598
      96 -> 98        -0.15914
      96 ->100         0.48967

 Excited state symmetry could not be determined.
 Excited State   3:      Singlet-?Sym    3.4040 eV  364.23 nm  f=0.0667  <S**2>=0.000
      96 -> 97         0.69848

 Excited state symmetry could not be determined.
 Excited State   4:      Singlet-?Sym    4.1295 eV  300.24 nm  f=0.0258  <S**2>=0.000
      96 -> 98         0.69975

 Alpha  occ. eigenvalues --  -19.12837 -14.41219 -14.40198 -14.40091 -14.33633
 Alpha  occ. eigenvalues --  -14.30946 -10.31006 -10.28577 -10.26762 -10.26729
 Alpha  occ. eigenvalues --  -10.24696 -10.22870 -10.22619 -10.21208 -10.20718
 Alpha  occ. eigenvalues --  -10.20593 -10.19941 -10.19724 -10.19632 -10.19470
 Alpha  occ. eigenvalues --  -10.19170 -10.18673 -10.17665 -10.17473 -10.17395
 Alpha  occ. eigenvalues --  -10.16950 -10.16524  -1.06272  -1.03678  -1.02246
 Alpha  occ. eigenvalues --   -0.96815  -0.90674  -0.89210  -0.85940  -0.80981
 Alpha  occ. eigenvalues --   -0.79387  -0.77518  -0.77295  -0.74982  -0.72978
 Alpha  occ. eigenvalues --   -0.72169  -0.71146  -0.70147  -0.67552  -0.65099
 Alpha  occ. eigenvalues --   -0.63883  -0.61553  -0.61255  -0.60443  -0.58820
 Alpha  occ. eigenvalues --   -0.56992  -0.55236  -0.53536  -0.52693  -0.51976
 Alpha  occ. eigenvalues --   -0.50445  -0.49475  -0.48060  -0.47467  -0.46728
 Alpha  occ. eigenvalues --   -0.46199  -0.45834  -0.45052  -0.44578  -0.44381
 Alpha  occ. eigenvalues --   -0.43802  -0.43417  -0.42656  -0.41792  -0.41545
 Alpha  occ. eigenvalues --   -0.41097  -0.40688  -0.40216  -0.39254  -0.38803
 Alpha  occ. eigenvalues --   -0.37984  -0.37873  -0.37262  -0.36814  -0.36655
 Alpha  occ. eigenvalues --   -0.35916  -0.34661  -0.33639  -0.33246  -0.32475
 Alpha  occ. eigenvalues --   -0.32219  -0.30259  -0.29418  -0.27996  -0.27799
 Alpha  occ. eigenvalues --   -0.26478  -0.26004  -0.25645  -0.25350  -0.22732
 Alpha  occ. eigenvalues --   -0.18142
 Alpha virt. eigenvalues --   -0.03748  -0.01343  -0.00750  -0.00183   0.03426
 Alpha virt. eigenvalues --    0.04356   0.08077   0.09741   0.10187   0.10397
 Alpha virt. eigenvalues --    0.11355   0.11887   0.12376   0.12748   0.13845

 Mulliken charges:
               1
     1  C   -0.533140
     2  C    0.197097
     3  N   -0.569140
     4  C    0.753698
     5  N   -0.605666
     6  C   -0.324319
     7  C    0.472981
     8  N   -0.520155
     9  C    0.232661
    10  N   -0.482810
    11  C   -0.272835
    12  C    0.164764
    13  C   -0.181474
    14  C   -0.127637
    15  C   -0.125595
    16  C   -0.130713
    17  C   -0.184707
    18  C    0.202360
    19  C    0.659186
    20  O   -0.547545
    21  N   -0.665182
    22  C    0.274984
    23  C   -0.163310
    24  C   -0.126284
    25  C   -0.106001
    26  C   -0.440677
    27  C   -0.451581
    28  H    0.161205
    29  H    0.162813
    30  H    0.166945
    31  H    0.184461
    32  H    0.184462
    33  H    0.201104
    34  H    0.169095
    35  H    0.166886
    36  H    0.213276
    37  H    0.121000
    38  H    0.133265
    39  H    0.134053
    40  H    0.137739
    41  H    0.176445
    42  H    0.170936
    43  H    0.120798
    44  H    0.131919
    45  H    0.139172
    46  H    0.146272
    47  H    0.139243
    48  H    0.137327
    49  H    0.145757
    50  H    0.156868
 Sum of Mulliken charges =  -0.00000

 Dipole moment (field-independent basis, Debye):
    X=              2.4085    Y=              0.2264    Z=              1.6250  Tot=              2.9142
 Quadrupole moment (field-independent basis, Debye-Ang):
   XX=           -145.6264   YY=           -155.8813   ZZ=           -147.9814
   XY=              0.1581   XZ=              9.3554   YZ=             -5.6316

 Normal termination of Gaussian 16 at Sat Nov  5 09:44:23 2022.
