 Gaussian 16, Revision B.01,
 Gaussian 16:  ES64L-G16RevB.01 20-Dec-2017

 -----------------------------
 #p b3lyp/6-31g(d) opt SCF=XQC
 -----------------------------

 ------------------------------
 Gaussian input prepared by ASE
 ------------------------------
 Symbolic Z-matrix:
 Charge =  0 Multiplicity = 1

 SCF Done:  E(RB3LYP) =  -1163.09183087     A.U. after   16 cycles
 SCF Done:  E(RB3LYP) =  -1163.09820532     A.U. after   12 cycles
 SCF Done:  E(RB3LYP) =  -1163.09847225     A.U. after   12 cycles
 SCF Done:  E(RB3LYP) =  -1163.09859493     A.U. after   11 cycles
 SCF Done:  E(RB3LYP) =  -1163.09862945     A.U. after   10 cycles
 SCF Done:  E(RB3LYP) =  -1163.09865462     A.U. after   10 cycles
 SCF Done:  E(RB3LYP) =  -1163.09866473     A.U. after   10 cycles
 SCF Done:  E(RB3LYP) =  -1163.09866978     A.U. after   10 cycles
 SCF Done:  E(RB3LYP) =  -1163.09868638     A.U. after   10 cycles
 SCF Done:  E(RB3LYP) =  -1163.09870492     A.U. after   11 cycles
 SCF Done:  E(RB3LYP) =  -1163.09871157     A.U. after    9 cycles
 SCF Done:  E(RB3LYP) =  -1163.09871342     A.U. after    8 cycles
 SCF Done:  E(RB3LYP) =  -1163.09871369     A.U. after    8 cycles
 SCF Done:  E(RB3LYP) =  -1163.09871374     A.U. after    7 cycles
 SCF Done:  E(RB3LYP) =  -1163.09871375     A.U. after    7 cycles
 Optimization completed.
    -- Stationary point found.

                         Standard orientation:
 ---------------------------------------------------------------------
 Center     Atomic      Atomic             Coordinates (Angstroms)
 Number     Number       Type             X           Y           Z
 ---------------------------------------------------------------------
      1          6           0       -4.502390    1.802793    0.973132
      2          6           0       -3.060559    1.642626    0.609481
      3          7           0       -2.204884    2.725458    0.711527
      4          6           0       -1.047389    2.286170    0.288580
      5          7           0        0.110511    3.025039    0.215221
      6          6           0        0.105270    4.426766    0.625457
      7          6           0        1.226181    2.384088   -0.247821
      8          7           0        2.460660    2.930174   -0.414212
      9          6           0        3.183981    1.925807   -0.895706
     10          7           0        2.491732    0.772321   -1.059585
     11          6           0        3.029231   -0.525448   -1.507624
     12          6           0        3.627720   -1.349549   -0.383578
     13          6           0        5.006988   -1.329013   -0.147111
     14          6           0        5.560079   -2.074314    0.895240
     15          6           0        4.734392   -2.849260    1.710986
     16          6           0        3.357591   -2.878666    1.477297
     17          6           0        2.804796   -2.135194    0.434442
     18          6           0        1.194918    1.043916   -0.628433
     19          6           0        0.029977    0.212389   -0.609605
     20          8           0       -0.051927   -0.962500   -0.967898
     21          7           0       -1.079671    0.945080   -0.103488
     22          6           0       -2.413908    0.520014    0.122605
     23          6           0       -2.883713   -0.825812   -0.172260
     24          6           0       -3.929983   -1.424102    0.425168
     25          6           0       -4.487089   -2.789123    0.091863
     26          6           0       -5.983631   -2.677322   -0.268789
     27          6           0       -3.714754   -3.538909   -0.999759
     28          1           0       -4.691721    1.555688    2.026598
     29          1           0       -5.139655    1.153344    0.364036
     30          1           0       -4.802833    2.844055    0.822673
     31          1           0       -0.618414    4.986476    0.026822
     32          1           0       -0.179065    4.506345    1.678336
     33          1           0        1.109793    4.819785    0.473033
     34          1           0        4.234208    1.996819   -1.146650
     35          1           0        3.784874   -0.308431   -2.268655
     36          1           0        2.201079   -1.054818   -1.980382
     37          1           0        5.655618   -0.732410   -0.785929
     38          1           0        6.633017   -2.052563    1.066351
     39          1           0        5.162524   -3.432018    2.522209
     40          1           0        2.711977   -3.486390    2.105666
     41          1           0        1.734986   -2.159827    0.245097
     42          1           0       -2.321194   -1.359729   -0.928371
     43          1           0       -4.449072   -0.910860    1.234049
     44          1           0       -4.429069   -3.391038    1.014520
     45          1           0       -6.426399   -3.669973   -0.414879
     46          1           0       -6.116311   -2.105309   -1.195038
     47          1           0       -6.549144   -2.170006    0.521881
     48          1           0       -4.145059   -4.534826   -1.154928
     49          1           0       -3.760018   -3.003741   -1.956059
     50          1           0       -2.659397   -3.664216   -0.734818
 ---------------------------------------------------------------------

 The electronic state is 1-A.
 Alpha  occ. eigenvalues --  -19.12837 -14.41219 -14.40198 -14.40091 -14.33633
 Alpha  occ. eigenvalues --  -14.30946 -10.31006 -10.28577 -10.26762 -10.26729
 Alpha  occ. eigenvalues --  -10.24696 -10.22870 -10.22619 -10.21208 -10.20718
 Alpha  occ. eigenvalues --  -10.20593 -10.19941 -10.19724 -10.19632 -10.19470
 Alpha  occ. eigenvalues --  -10.19170 -10.18673 -10.17665 -10.17473 -10.17395
 Alpha  occ. eigenvalues --  -10.16950 -10.16524  -1.06272  -1.03678  -1.02246
 Alpha  occ. eigenvalues --   -0.96815  -0.90674  -0.89210  -0.85940  -0.80981
 Alpha  occ. eigenvalues --   -0.79387  -0.77518  -0.77295  -0.74982  -0.72978
 Alpha  occ. eigenvalues --   -0.72169  -0.71146  -0.70147  -0.67552  -0.65099
 Alpha  occ. eigenvalues --   -0.63883  -0.61553  -0.61255  -0.60443  -0.58820
 Alpha  occ. eigenvalues --   -0.56992  -0.55236  -0.53536  -0.52693  -0.51976
 Alpha  occ. eigenvalues --   -0.50445  -0.49475  -0.48060  -0.47468  -0.46728
 Alpha  occ. eigenvalues --   -0.46199  -0.45834  -0.45052  -0.44578  -0.44381
 Alpha  occ. eigenvalues --   -0.43802  -0.43417  -0.42656  -0.41792  -0.41545
 Alpha  occ. eigenvalues --   -0.41097  -0.40688  -0.40216  -0.39254  -0.38803
 Alpha  occ. eigenvalues --   -0.37984  -0.37872  -0.37262  -0.36814  -0.36655
 Alpha  occ. eigenvalues --   -0.35916  -0.34661  -0.33639  -0.33246  -0.32475
 Alpha  occ. eigenvalues --   -0.32219  -0.30259  -0.29418  -0.27996  -0.27799
 Alpha  occ. eigenvalues --   -0.26478  -0.26004  -0.25645  -0.25350  -0.22731
 Alpha  occ. eigenvalues --   -0.18142
 Alpha virt. eigenvalues --   -0.03748  -0.01343  -0.00750  -0.00183   0.03427
 Alpha virt. eigenvalues --    0.04356   0.08077   0.09741   0.10187   0.10397
 Alpha virt. eigenvalues --    0.11355   0.11888   0.12376   0.12748   0.13845

 Mulliken charges:
               1
     1  C   -0.533143
     2  C    0.197094
     3  N   -0.569139
     4  C    0.753691
     5  N   -0.605667
     6  C   -0.324324
     7  C    0.472978
     8  N   -0.520156
     9  C    0.232663
    10  N   -0.482821
    11  C   -0.272828
    12  C    0.164782
    13  C   -0.181479
    14  C   -0.127650
    15  C   -0.125586
    16  C   -0.130708
    17  C   -0.184729
    18  C    0.202400
    19  C    0.659190
    20  O   -0.547561
    21  N   -0.665195
    22  C    0.274988
    23  C   -0.163314
    24  C   -0.126270
    25  C   -0.106012
    26  C   -0.440671
    27  C   -0.451586
    28  H    0.161206
    29  H    0.162814
    30  H    0.166945
    31  H    0.184463
    32  H    0.184463
    33  H    0.201105
    34  H    0.169093
    35  H    0.166886
    36  H    0.213274
    37  H    0.121001
    38  H    0.133266
    39  H    0.134053
    40  H    0.137740
    41  H    0.176449
    42  H    0.170938
    43  H    0.120795
    44  H    0.131920
    45  H    0.139172
    46  H    0.146270
    47  H    0.139242
    48  H    0.137328
    49  H    0.145759
    50  H    0.156871
 Sum of Mulliken charges =  -0.00000

 Dipole moment (field-independent basis, Debye):
    X=              2.8869    Y=             -0.3367    Z=             -0.2133  Tot=              2.9143
 Quadrupole moment (field-independent basis, Debye-Ang):
   XX=           -140.3906   YY=           -157.0328   ZZ=           -154.1564
   XY=              0.8340   XZ=             -4.1312   YZ=             -4.6014

 Normal termination of Gaussian 16 at Fri Nov  4 21:57:24 2022.
