 Gaussian 16, Revision B.01,
 Gaussian 16:  ES64L-G16RevB.01 20-Dec-2017

 -------------------------------------------------------------------
 #p b3lyp/6-31g(d) 6D 10F nosymm GFInput td=(50-50,nstate=2) SCF=XQC
 -------------------------------------------------------------------

 ------------------------------
 Gaussian input prepared by ASE
 ------------------------------
 Symbolic Z-matrix:
 Charge =  0 Multiplicity = 1

                          Input orientation:
 ---------------------------------------------------------------------
 Center     Atomic      Atomic             Coordinates (Angstroms)
 Number     Number       Type             X           Y           Z
 ---------------------------------------------------------------------
      1          6           0        6.703673   -1.658847    2.889873
      2          6           0        6.348027   -1.601151    1.399340
      3          6           0        6.779709   -0.306642    0.688544
      4          6           0        6.125740    0.989840    1.197901
      5          6           0        4.613356    1.056232    1.022302
      6          8           0        4.327213    0.968586   -0.377994
      7          6           0        3.037260    0.994575   -0.796296
      8          6           0        2.844834    0.884338   -2.185342
      9          6           0        1.565808    0.900334   -2.712169
     10          6           0        0.445137    1.030426   -1.871630
     11          6           0       -0.894514    1.037175   -2.499230
     12          8           0       -1.103228    0.892478   -3.688142
     13          8           0       -1.896032    1.237902   -1.588759
     14          6           0       -3.246582    1.216057   -2.100589
     15          6           0       -3.885070   -0.154980   -1.973113
     16          6           0       -3.900634   -0.907260   -3.108158
     17          6           0       -4.564096   -2.191296   -3.208059
     18          8           0       -4.573987   -2.939647   -4.156225
     19          8           0       -5.302012   -2.548256   -2.079769
     20          6           0       -5.294536   -1.822637   -0.929685
     21          6           0       -6.138736   -2.349144    0.075085
     22          6           0       -6.235021   -1.705648    1.275877
     23          6           0       -5.451214   -0.550311    1.551111
     24          6           0       -5.524361    0.061230    2.828051
     25          6           0       -4.729265    1.137175    3.151136
     26          6           0       -3.806379    1.613654    2.199458
     27          6           0       -3.719715    1.046249    0.942675
     28          6           0       -4.562537   -0.029344    0.549278
     29          6           0       -4.545928   -0.649047   -0.765561
     30          6           0        0.643430    1.139029   -0.490017
     31          6           0        1.926701    1.121592    0.052071
     32          1           0        7.780344   -1.514343    3.044446
     33          1           0        6.433585   -2.629286    3.321298
     34          1           0        6.181585   -0.888492    3.469665
     35          1           0        6.827999   -2.444978    0.886525
     36          1           0        5.267903   -1.756785    1.272221
     37          1           0        6.571237   -0.401701   -0.383568
     38          1           0        7.868975   -0.197466    0.783397
     39          1           0        6.568216    1.845247    0.672358
     40          1           0        6.339273    1.137394    2.264536
     41          1           0        4.222711    2.003718    1.418636
     42          1           0        4.110782    0.235094    1.551042
     43          1           0        3.718030    0.785304   -2.822137
     44          1           0        1.406385    0.812109   -3.781655
     45          1           0       -3.220693    1.506124   -3.150547
     46          1           0       -3.794217    1.968656   -1.531998
     47          1           0       -3.412540   -0.560095   -4.011399
     48          1           0       -6.701267   -3.248143   -0.152125
     49          1           0       -6.897652   -2.084477    2.049576
     50          1           0       -6.218512   -0.351251    3.556325
     51          1           0       -4.792206    1.596591    4.133360
     52          1           0       -3.138485    2.431073    2.458170
     53          1           0       -2.949631    1.406797    0.278063
     54          1           0       -0.211265    1.231117    0.170661
     55          1           0        2.052399    1.205131    1.124973
 ---------------------------------------------------------------------

 SCF Done:  E(RB3LYP) =  -1381.37230126     A.U. after   16 cycles

 Excitation energies and oscillator strengths:

 Excited state symmetry could not be determined.
 Excited State   1:      Triplet-?Sym    2.3144 eV  535.72 nm  f=0.0000  <S**2>=2.000
     105 ->111        -0.11358
     110 ->111         0.66853
 This state for optimization and/or second-order correction.
 Total Energy, E(TD-HF/TD-DFT) =  -1381.28725030
 Copying the excited state density for this state as the 1-particle RhoCI density.

 Excited state symmetry could not be determined.
 Excited State   2:      Triplet-?Sym    3.1110 eV  398.54 nm  f=0.0000  <S**2>=2.000
     105 ->111         0.18981
     108 ->111        -0.37420
     108 ->114         0.15580
     110 ->112         0.10735
     110 ->113         0.48036

 Excited state symmetry could not be determined.
 Excited State   3:      Singlet-?Sym    3.5987 eV  344.53 nm  f=0.1850  <S**2>=0.000
     110 ->111         0.69236

 Excited state symmetry could not be determined.
 Excited State   4:      Singlet-?Sym    3.9510 eV  313.80 nm  f=0.0033  <S**2>=0.000
     109 ->111         0.70314

 Alpha  occ. eigenvalues --  -19.21144 -19.19992 -19.19075 -19.13934 -19.12473
 Alpha  occ. eigenvalues --  -10.32134 -10.31245 -10.27411 -10.26518 -10.25786
 Alpha  occ. eigenvalues --  -10.25218 -10.23515 -10.22289 -10.22151 -10.21188
 Alpha  occ. eigenvalues --  -10.21137 -10.20801 -10.20528 -10.20502 -10.20382
 Alpha  occ. eigenvalues --  -10.20313 -10.20257 -10.20249 -10.20076 -10.20063
 Alpha  occ. eigenvalues --  -10.19818 -10.19574 -10.19519 -10.18611 -10.18547
 Alpha  occ. eigenvalues --  -10.17962  -1.11291  -1.10457  -1.07754  -1.02161
 Alpha  occ. eigenvalues --   -1.01839  -0.88890  -0.86643  -0.84599  -0.83107
 Alpha  occ. eigenvalues --   -0.81379  -0.78182  -0.77756  -0.76048  -0.75777
 Alpha  occ. eigenvalues --   -0.75359  -0.73486  -0.72812  -0.69235  -0.66748
 Alpha  occ. eigenvalues --   -0.65061  -0.63871  -0.63233  -0.62289  -0.61567
 Alpha  occ. eigenvalues --   -0.60169  -0.57642  -0.56598  -0.56110  -0.55018
 Alpha  occ. eigenvalues --   -0.53770  -0.53394  -0.52241  -0.50013  -0.49784
 Alpha  occ. eigenvalues --   -0.48861  -0.48416  -0.47416  -0.46914  -0.46644
 Alpha  occ. eigenvalues --   -0.46194  -0.45610  -0.45523  -0.44794  -0.44561
 Alpha  occ. eigenvalues --   -0.43833  -0.43390  -0.43091  -0.42466  -0.42056
 Alpha  occ. eigenvalues --   -0.41914  -0.41234  -0.40285  -0.39812  -0.39738
 Alpha  occ. eigenvalues --   -0.39483  -0.38486  -0.38449  -0.37426  -0.36987
 Alpha  occ. eigenvalues --   -0.36399  -0.36289  -0.35948  -0.35384  -0.34169
 Alpha  occ. eigenvalues --   -0.34008  -0.33458  -0.33167  -0.33055  -0.32139
 Alpha  occ. eigenvalues --   -0.31992  -0.31506  -0.30854  -0.28145  -0.27229
 Alpha  occ. eigenvalues --   -0.26718  -0.26370  -0.24677  -0.23376  -0.21872
 Alpha virt. eigenvalues --   -0.07319  -0.04301  -0.03617  -0.01775  -0.01092
 Alpha virt. eigenvalues --    0.01842   0.06014   0.07002   0.07065   0.08148
 Alpha virt. eigenvalues --    0.08999   0.10406   0.10707   0.10989   0.11449

 Mulliken charges:
               1
     1  C   -0.444432
     2  C   -0.258137
     3  C   -0.254099
     4  C   -0.285039
     5  C   -0.043132
     6  O   -0.513741
     7  C    0.396861
     8  C   -0.184200
     9  C   -0.154553
    10  C    0.046832
    11  C    0.598648
    12  O   -0.490532
    13  O   -0.487967
    14  C   -0.169205
    15  C    0.181676
    16  C   -0.295004
    17  C    0.604252
    18  O   -0.467606
    19  O   -0.511331
    20  C    0.306207
    21  C   -0.171332
    22  C   -0.188493
    23  C    0.140765
    24  C   -0.197479
    25  C   -0.131171
    26  C   -0.143337
    27  C   -0.222355
    28  C    0.055439
    29  C    0.004093
    30  C   -0.168979
    31  C   -0.202521
    32  H    0.143914
    33  H    0.146963
    34  H    0.139340
    35  H    0.138689
    36  H    0.136755
    37  H    0.152639
    38  H    0.132277
    39  H    0.151030
    40  H    0.142148
    41  H    0.144413
    42  H    0.147481
    43  H    0.146772
    44  H    0.167048
    45  H    0.199786
    46  H    0.176867
    47  H    0.189025
    48  H    0.161018
    49  H    0.144400
    50  H    0.135663
    51  H    0.135251
    52  H    0.133330
    53  H    0.185645
    54  H    0.158809
    55  H    0.140608
 Sum of Mulliken charges =  -0.00000

 Dipole moment (field-independent basis, Debye):
    X=              2.3613    Y=              3.3368    Z=              6.9379  Tot=              8.0526
 Quadrupole moment (field-independent basis, Debye-Ang):
   XX=           -161.4853   YY=           -185.8790   ZZ=           -192.6856
   XY=             -9.8398   XZ=            -19.3866   YZ=            -12.0290

 Normal termination of Gaussian 16 at Sat Nov  5 09:44:22 2022.
