 Gaussian 16, Revision B.01,
 Gaussian 16:  ES64L-G16RevB.01 20-Dec-2017

 -----------------------------
 #p b3lyp/6-31g(d) opt SCF=XQC
 -----------------------------

 ------------------------------
 Gaussian input prepared by ASE
 ------------------------------
 Symbolic Z-matrix:
 Charge =  0 Multiplicity = 1

 SCF Done:  E(RB3LYP) =  -1381.36671180     A.U. after   16 cycles
 SCF Done:  E(RB3LYP) =  -1381.37145944     A.U. after   12 cycles
 SCF Done:  E(RB3LYP) =  -1381.37173543     A.U. after   12 cycles
 SCF Done:  E(RB3LYP) =  -1381.37216072     A.U. after   12 cycles
 SCF Done:  E(RB3LYP) =  -1381.37214043     A.U. after   11 cycles
 SCF Done:  E(RB3LYP) =  -1381.37228018     A.U. after   11 cycles
 SCF Done:  E(RB3LYP) =  -1381.37229574     A.U. after   10 cycles
 SCF Done:  E(RB3LYP) =  -1381.37229828     A.U. after   10 cycles
 SCF Done:  E(RB3LYP) =  -1381.37230193     A.U. after    9 cycles
 SCF Done:  E(RB3LYP) =  -1381.37230234     A.U. after    8 cycles
 SCF Done:  E(RB3LYP) =  -1381.37230264     A.U. after    7 cycles
 SCF Done:  E(RB3LYP) =  -1381.37230268     A.U. after    6 cycles
 SCF Done:  E(RB3LYP) =  -1381.37230270     A.U. after    6 cycles
 Optimization completed.
    -- Stationary point found.

                         Standard orientation:
 ---------------------------------------------------------------------
 Center     Atomic      Atomic             Coordinates (Angstroms)
 Number     Number       Type             X           Y           Z
 ---------------------------------------------------------------------
      1          6           0        7.697971    2.288240    2.479376
      2          6           0        7.178078    0.857369    2.295468
      3          6           0        7.648822    0.167049    1.003496
      4          6           0        7.189323    0.818922   -0.312523
      5          6           0        5.680662    0.833227   -0.527666
      6          8           0        5.225724   -0.524223   -0.555088
      7          6           0        3.904576   -0.779760   -0.725092
      8          6           0        3.541353   -2.138685   -0.720796
      9          6           0        2.217348   -2.503639   -0.886722
     10          6           0        1.220743   -1.526789   -1.065260
     11          6           0       -0.175854   -1.984690   -1.233894
     12          8           0       -0.535186   -3.145044   -1.184203
     13          8           0       -1.039598   -0.949442   -1.467336
     14          6           0       -2.436253   -1.292744   -1.601239
     15          6           0       -3.187022   -1.159254   -0.288918
     16          6           0       -3.408843   -2.321263    0.385636
     17          6           0       -4.202304   -2.405583    1.594858
     18          8           0       -4.396308   -3.382858    2.277823
     19          8           0       -4.834864   -1.215523    1.953473
     20          6           0       -4.621897   -0.038997    1.305627
     21          6           0       -5.390572    1.032861    1.815240
     22          6           0       -5.282295    2.268084    1.242738
     23          6           0       -4.362060    2.504812    0.183475
     24          6           0       -4.225161    3.811028   -0.350351
     25          6           0       -3.295978    4.089697   -1.326661
     26          6           0       -2.448251    3.058252   -1.776020
     27          6           0       -2.565103    1.772647   -1.283551
     28          6           0       -3.549630    1.430141   -0.316387
     29          6           0       -3.747633    0.092853    0.217996
     30          6           0        1.588736   -0.176032   -1.067866
     31          6           0        2.918576    0.203454   -0.899156
     32          1           0        8.794276    2.317278    2.443820
     33          1           0        7.386128    2.698668    3.446396
     34          1           0        7.325364    2.966584    1.702719
     35          1           0        7.509669    0.246758    3.145526
     36          1           0        6.080473    0.855388    2.343504
     37          1           0        7.308245   -0.875001    1.011252
     38          1           0        8.747132    0.133528    1.000429
     39          1           0        7.649246    0.288180   -1.155426
     40          1           0        7.539417    1.857640   -0.372333
     41          1           0        5.433929    1.322827   -1.479940
     42          1           0        5.165082    1.376257    0.275894
     43          1           0        4.320227   -2.881729   -0.582856
     44          1           0        1.926224   -3.548729   -0.881115
     45          1           0       -2.504804   -2.321568   -1.953435
     46          1           0       -2.837160   -0.623296   -2.363289
     47          1           0       -2.997860   -3.258228    0.028154
     48          1           0       -6.061340    0.829937    2.642983
     49          1           0       -5.884010    3.096356    1.607574
     50          1           0       -4.866637    4.596390    0.042184
     51          1           0       -3.198351    5.094688   -1.726976
     52          1           0       -1.677687    3.275298   -2.511079
     53          1           0       -1.846248    1.038412   -1.613523
     54          1           0        0.830254    0.588062   -1.195706
     55          1           0        3.176309    1.255811   -0.902969
 ---------------------------------------------------------------------

 The electronic state is 1-A.
 Alpha  occ. eigenvalues --  -19.21144 -19.19992 -19.19075 -19.13934 -19.12473
 Alpha  occ. eigenvalues --  -10.32134 -10.31245 -10.27411 -10.26518 -10.25786
 Alpha  occ. eigenvalues --  -10.25218 -10.23515 -10.22289 -10.22151 -10.21188
 Alpha  occ. eigenvalues --  -10.21137 -10.20801 -10.20528 -10.20502 -10.20382
 Alpha  occ. eigenvalues --  -10.20313 -10.20256 -10.20249 -10.20076 -10.20064
 Alpha  occ. eigenvalues --  -10.19818 -10.19574 -10.19519 -10.18611 -10.18547
 Alpha  occ. eigenvalues --  -10.17962  -1.11291  -1.10457  -1.07754  -1.02161
 Alpha  occ. eigenvalues --   -1.01839  -0.88890  -0.86643  -0.84599  -0.83107
 Alpha  occ. eigenvalues --   -0.81379  -0.78182  -0.77756  -0.76048  -0.75777
 Alpha  occ. eigenvalues --   -0.75359  -0.73486  -0.72812  -0.69235  -0.66748
 Alpha  occ. eigenvalues --   -0.65061  -0.63871  -0.63233  -0.62289  -0.61567
 Alpha  occ. eigenvalues --   -0.60169  -0.57642  -0.56598  -0.56110  -0.55018
 Alpha  occ. eigenvalues --   -0.53770  -0.53394  -0.52241  -0.50013  -0.49784
 Alpha  occ. eigenvalues --   -0.48861  -0.48416  -0.47416  -0.46914  -0.46644
 Alpha  occ. eigenvalues --   -0.46194  -0.45610  -0.45523  -0.44794  -0.44561
 Alpha  occ. eigenvalues --   -0.43833  -0.43390  -0.43091  -0.42467  -0.42056
 Alpha  occ. eigenvalues --   -0.41914  -0.41233  -0.40285  -0.39812  -0.39738
 Alpha  occ. eigenvalues --   -0.39483  -0.38486  -0.38449  -0.37426  -0.36987
 Alpha  occ. eigenvalues --   -0.36399  -0.36289  -0.35948  -0.35384  -0.34169
 Alpha  occ. eigenvalues --   -0.34008  -0.33458  -0.33167  -0.33055  -0.32139
 Alpha  occ. eigenvalues --   -0.31992  -0.31506  -0.30854  -0.28144  -0.27229
 Alpha  occ. eigenvalues --   -0.26718  -0.26370  -0.24677  -0.23376  -0.21872
 Alpha virt. eigenvalues --   -0.07319  -0.04300  -0.03617  -0.01775  -0.01092
 Alpha virt. eigenvalues --    0.01841   0.06014   0.07002   0.07065   0.08148
 Alpha virt. eigenvalues --    0.08999   0.10406   0.10707   0.10989   0.11449

 Mulliken charges:
               1
     1  C   -0.444436
     2  C   -0.258130
     3  C   -0.254112
     4  C   -0.285035
     5  C   -0.043134
     6  O   -0.513750
     7  C    0.396880
     8  C   -0.184193
     9  C   -0.154558
    10  C    0.046843
    11  C    0.598613
    12  O   -0.490520
    13  O   -0.487953
    14  C   -0.169194
    15  C    0.181701
    16  C   -0.295036
    17  C    0.604269
    18  O   -0.467609
    19  O   -0.511332
    20  C    0.306204
    21  C   -0.171335
    22  C   -0.188485
    23  C    0.140774
    24  C   -0.197477
    25  C   -0.131180
    26  C   -0.143334
    27  C   -0.222346
    28  C    0.055418
    29  C    0.004088
    30  C   -0.168982
    31  C   -0.202532
    32  H    0.143914
    33  H    0.146963
    34  H    0.139341
    35  H    0.138689
    36  H    0.136754
    37  H    0.152644
    38  H    0.132279
    39  H    0.151030
    40  H    0.142148
    41  H    0.144414
    42  H    0.147481
    43  H    0.146766
    44  H    0.167048
    45  H    0.199783
    46  H    0.176865
    47  H    0.189029
    48  H    0.161018
    49  H    0.144400
    50  H    0.135662
    51  H    0.135253
    52  H    0.133330
    53  H    0.185644
    54  H    0.158807
    55  H    0.140607
 Sum of Mulliken charges =  -0.00000

 Dipole moment (field-independent basis, Debye):
    X=              3.4716    Y=              6.7605    Z=             -2.6626  Tot=              8.0527
 Quadrupole moment (field-independent basis, Debye-Ang):
   XX=           -162.5706   YY=           -184.1576   ZZ=           -182.8245
   XY=            -16.8615   XZ=              9.3669   YZ=              7.6331

 1\1\GINC-NODE76\FOpt\RB3LYP\6-31G(d)\C26H24O5\WYKGROUP\04-Nov-2022\0\\
 #p b3lyp/6-31g(d) opt SCF=XQC\\Gaussian input prepared by ASE\\0,1\C,6
 .703673031,-1.6588472253,2.8898728299\C,6.3480265746,-1.6011511686,1.3
 993395729\C,6.7797085394,-0.3066421239,0.6885442245\C,6.1257403522,0.9
 89839646,1.1979011278\C,4.6133563166,1.0562320242,1.0223024496\O,4.327
 2132426,0.9685860886,-0.3779937019\C,3.0372601832,0.9945749784,-0.7962
 964029\C,2.8448342742,0.8843380262,-2.185341657\C,1.5658077161,0.90033
 36088,-2.7121692766\C,0.4451370561,1.0304260503,-1.8716301971\C,-0.894

 Normal termination of Gaussian 16 at Fri Nov  4 21:55:29 2022.
