 Gaussian 16, Revision B.01,
 Gaussian 16:  ES64L-G16RevB.01 20-Dec-2017

 -----------------------------
 #p b3lyp/6-31g(d) opt SCF=XQC
 -----------------------------

 ------------------------------
 Gaussian input prepared by ASE
 ------------------------------
 Symbolic Z-matrix:
 Charge =  0 Multiplicity = 1

 SCF Done:  E(RB3LYP) =  -1599.57879760     A.U. after   15 cycles
 SCF Done:  E(RB3LYP) =  -1599.58410547     A.U. after   15 cycles
 SCF Done:  E(RB3LYP) =  -1599.59002422     A.U. after   15 cycles
 SCF Done:  E(RB3LYP) =  -1599.59226587     A.U. after   15 cycles
 SCF Done:  E(RB3LYP) =  -1599.59283900     A.U. after   12 cycles
 SCF Done:  E(RB3LYP) =  -1599.59325188     A.U. after   12 cycles
 SCF Done:  E(RB3LYP) =  -1599.59351508     A.U. after   13 cycles
 SCF Done:  E(RB3LYP) =  -1599.59365557     A.U. after   12 cycles
 SCF Done:  E(RB3LYP) =  -1599.59378281     A.U. after   12 cycles
 SCF Done:  E(RB3LYP) =  -1599.59393336     A.U. after   12 cycles
 SCF Done:  E(RB3LYP) =  -1599.59452732     A.U. after   12 cycles
 SCF Done:  E(RB3LYP) =  -1599.59448192     A.U. after   15 cycles
 SCF Done:  E(RB3LYP) =  -1599.59457310     A.U. after   15 cycles
 SCF Done:  E(RB3LYP) =  -1599.59457124     A.U. after   11 cycles
 SCF Done:  E(RB3LYP) =  -1599.59453515     A.U. after   14 cycles
 SCF Done:  E(RB3LYP) =  -1599.59457932     A.U. after   13 cycles
 SCF Done:  E(RB3LYP) =  -1599.59458010     A.U. after   11 cycles
 SCF Done:  E(RB3LYP) =  -1599.59458285     A.U. after   11 cycles
 SCF Done:  E(RB3LYP) =  -1599.59458307     A.U. after    9 cycles
 SCF Done:  E(RB3LYP) =  -1599.59458307     A.U. after    7 cycles
 Optimization completed.
    -- Stationary point found.

                         Standard orientation:
 ---------------------------------------------------------------------
 Center     Atomic      Atomic             Coordinates (Angstroms)
 Number     Number       Type             X           Y           Z
 ---------------------------------------------------------------------
      1          6           0        4.820485    1.426803   -1.937814
      2          6           0        4.917640    0.240783   -1.013582
      3          6           0        6.137616   -0.333197   -0.661854
      4          6           0        6.221332   -1.438207    0.202900
      5          6           0        5.076601   -2.010579    0.747534
      6          6           0        3.844691   -1.448315    0.403510
      7         16           0        2.234969   -1.928059    0.926143
      8          6           0        1.587290   -0.616257   -0.083744
      9          7           0        0.212711   -0.367464   -0.230854
     10          6           0       -0.151588    0.867808   -0.986916
     11          6           0       -0.368199    2.076181   -0.095962
     12          6           0       -1.649879    2.531233    0.229186
     13          6           0       -1.788876    3.652532    1.045614
     14          6           0       -0.635290    4.283504    1.509351
     15          7           0        0.603167    3.875278    1.203910
     16          6           0        0.719577    2.799214    0.418845
     17          6           0       -0.703654   -1.171001    0.435897
     18          8           0       -0.335453   -2.024637    1.242192
     19          6           0       -2.163222   -1.062428    0.205541
     20          6           0       -3.125546   -1.612706    1.001577
     21          6           0       -4.387610   -1.336802    0.378405
     22          6           0       -5.735292   -1.610066    0.669960
     23          6           0       -6.704954   -1.165250   -0.220311
     24          6           0       -6.358622   -0.457652   -1.389759
     25          6           0       -5.030985   -0.173864   -1.702416
     26          6           0       -4.077990   -0.626629   -0.797207
     27          8           0       -2.723093   -0.455576   -0.906051
     28          7           0        2.467182    0.104307   -0.713859
     29          6           0        3.755296   -0.339212   -0.462577
     30          1           0        4.378977    2.292863   -1.429957
     31          1           0        4.179113    1.208055   -2.799494
     32          1           0        5.808418    1.717049   -2.308366
     33          1           0        7.052595    0.089033   -1.070286
     34          1           0        7.196029   -1.850597    0.448805
     35          1           0        5.140853   -2.864121    1.415870
     36          1           0       -1.041122    0.654305   -1.571422
     37          1           0        0.678231    1.041350   -1.669931
     38          1           0       -2.526858    2.020156   -0.157764
     39          1           0       -2.770496    4.031602    1.314779
     40          1           0       -0.705237    5.161166    2.150198
     41          1           0        1.732968    2.487643    0.175344
     42          1           0       -2.932285   -2.154947    1.915262
     43          1           0       -6.009585   -2.156919    1.567208
     44          1           0       -7.752548   -1.365849   -0.015634
     45          1           0       -7.143999   -0.126538   -2.062888
     46          1           0       -4.750542    0.366201   -2.600568
 ---------------------------------------------------------------------

 The electronic state is 1-A.
 Alpha  occ. eigenvalues --  -88.90906 -19.23721 -19.14317 -14.40602 -14.33128
 Alpha  occ. eigenvalues --  -14.32889 -10.32162 -10.29290 -10.27203 -10.26586
 Alpha  occ. eigenvalues --  -10.23677 -10.22299 -10.21987 -10.21590 -10.21533
 Alpha  occ. eigenvalues --  -10.21514 -10.21459 -10.21268 -10.21252 -10.21130
 Alpha  occ. eigenvalues --  -10.21019 -10.20865 -10.20693 -10.20090 -10.19455
 Alpha  occ. eigenvalues --  -10.19154 -10.18666 -10.18276 -10.17755  -7.96835
 Alpha  occ. eigenvalues --   -5.93282  -5.92911  -5.92461  -1.13133  -1.06524
 Alpha  occ. eigenvalues --   -0.98952  -0.94040  -0.93391  -0.87465  -0.84361
 Alpha  occ. eigenvalues --   -0.82274  -0.81600  -0.79956  -0.77534  -0.77370
 Alpha  occ. eigenvalues --   -0.75763  -0.75309  -0.73012  -0.71023  -0.68457
 Alpha  occ. eigenvalues --   -0.67563  -0.63636  -0.63083  -0.62476  -0.61677
 Alpha  occ. eigenvalues --   -0.60844  -0.58912  -0.56994  -0.55265  -0.53719
 Alpha  occ. eigenvalues --   -0.53207  -0.52161  -0.50779  -0.50062  -0.48955
 Alpha  occ. eigenvalues --   -0.48451  -0.48221  -0.47427  -0.46956  -0.46117
 Alpha  occ. eigenvalues --   -0.45068  -0.44535  -0.44065  -0.43403  -0.42565
 Alpha  occ. eigenvalues --   -0.42289  -0.42001  -0.41446  -0.41239  -0.40402
 Alpha  occ. eigenvalues --   -0.39645  -0.39526  -0.39116  -0.38864  -0.38396
 Alpha  occ. eigenvalues --   -0.38085  -0.36791  -0.36480  -0.35799  -0.35211
 Alpha  occ. eigenvalues --   -0.34369  -0.33395  -0.31232  -0.29547  -0.28895
 Alpha  occ. eigenvalues --   -0.28496  -0.27922  -0.27566  -0.25887  -0.25841
 Alpha  occ. eigenvalues --   -0.25094  -0.24172  -0.22378  -0.21497
 Alpha virt. eigenvalues --   -0.07160  -0.02536  -0.02208  -0.01606  -0.00717
 Alpha virt. eigenvalues --    0.00675   0.01137   0.03155   0.04388   0.07520
 Alpha virt. eigenvalues --    0.08296   0.09317   0.10092   0.11086   0.11366

 Mulliken charges:
               1
     1  C   -0.521050
     2  C    0.171018
     3  C   -0.213019
     4  C   -0.110913
     5  C   -0.194623
     6  C   -0.137346
     7  S    0.300037
     8  C    0.326468
     9  N   -0.524566
    10  C   -0.285430
    11  C    0.143474
    12  C   -0.155205
    13  C   -0.138991
    14  C    0.040937
    15  N   -0.407962
    16  C   -0.005065
    17  C    0.584206
    18  O   -0.503344
    19  C    0.268491
    20  C   -0.198294
    21  C    0.108962
    22  C   -0.198336
    23  C   -0.134848
    24  C   -0.142999
    25  C   -0.186631
    26  C    0.338921
    27  O   -0.546520
    28  N   -0.564872
    29  C    0.229770
    30  H    0.170201
    31  H    0.165951
    32  H    0.149303
    33  H    0.122590
    34  H    0.128910
    35  H    0.140465
    36  H    0.201134
    37  H    0.214007
    38  H    0.150885
    39  H    0.138713
    40  H    0.143402
    41  H    0.170292
    42  H    0.180986
    43  H    0.146629
    44  H    0.139090
    45  H    0.142254
    46  H    0.152916
 Sum of Mulliken charges =  -0.00000

 Dipole moment (field-independent basis, Debye):
    X=             -4.5026    Y=              0.1881    Z=             -1.6563  Tot=              4.8013
 Quadrupole moment (field-independent basis, Debye-Ang):
   XX=           -138.7577   YY=           -177.2415   ZZ=           -169.0543
   XY=             -5.1959   XZ=             -1.7231   YZ=             -4.9623

 Normal termination of Gaussian 16 at Fri Nov  4 22:24:06 2022.
