 Gaussian 16, Revision B.01,
 Gaussian 16:  ES64L-G16RevB.01 20-Dec-2017

 -------------------------------------------------------------------
 #p b3lyp/6-31g(d) 6D 10F nosymm GFInput td=(50-50,nstate=2) SCF=XQC
 -------------------------------------------------------------------

 ------------------------------
 Gaussian input prepared by ASE
 ------------------------------
 Symbolic Z-matrix:
 Charge =  0 Multiplicity = 1

                          Input orientation:
 ---------------------------------------------------------------------
 Center     Atomic      Atomic             Coordinates (Angstroms)
 Number     Number       Type             X           Y           Z
 ---------------------------------------------------------------------
      1          6           0       -5.173378   -1.212650    0.330545
      2          6           0       -4.767646   -1.238431   -1.120318
      3          6           0       -5.683489   -1.456630   -2.147512
      4          6           0       -5.298640   -1.477049   -3.499300
      5          6           0       -3.972755   -1.279314   -3.870211
      6          6           0       -3.040981   -1.061036   -2.852248
      7         16           0       -1.311493   -0.771019   -2.991060
      8          6           0       -1.251888   -0.672367   -1.217109
      9          7           0       -0.060719   -0.478878   -0.498301
     10          6           0       -0.211183   -0.261917    0.971573
     11          6           0       -0.290098    1.202720    1.358219
     12          6           0        0.804903    1.880660    1.903074
     13          6           0        0.672236    3.224781    2.247929
     14          6           0       -0.557613    3.846499    2.036090
     15          7           0       -1.624806    3.217693    1.526758
     16          6           0       -1.481752    1.928475    1.202342
     17          6           0        1.140656   -0.354754   -1.184773
     18          8           0        1.170082   -0.297010   -2.413666
     19          6           0        2.446768   -0.303222   -0.487202
     20          6           0        3.625105    0.083257   -1.057030
     21          6           0        4.643717   -0.089315   -0.062083
     22          6           0        6.032261    0.119366    0.003651
     23          6           0        6.689199   -0.189196    1.188518
     24          6           0        5.992228   -0.699746    2.302889
     25          6           0        4.616504   -0.916082    2.264263
     26          6           0        3.979604   -0.598952    1.069949
     27          8           0        2.639715   -0.729576    0.816008
     28          7           0       -2.387708   -0.815239   -0.600693
     29          6           0       -3.421989   -1.038485   -1.494849
     30          1           0       -4.977342   -0.232498    0.781966
     31          1           0       -4.606191   -1.946228    0.915234
     32          1           0       -6.239549   -1.431958    0.443447
     33          1           0       -6.728561   -1.615579   -1.892876
     34          1           0       -6.049594   -1.650108   -4.265256
     35          1           0       -3.675054   -1.294750   -4.914466
     36          1           0        0.621036   -0.748896    1.470335
     37          1           0       -1.129443   -0.778702    1.245357
     38          1           0        1.745814    1.361835    2.062856
     39          1           0        1.503457    3.778566    2.674680
     40          1           0       -0.697681    4.895626    2.292179
     41          1           0       -2.361489    1.432843    0.797691
     42          1           0        3.731012    0.436741   -2.071933
     43          1           0        6.576330    0.509594   -0.851364
     44          1           0        7.762046   -0.036748    1.261616
     45          1           0        6.539616   -0.930420    3.212125
     46          1           0        4.068752   -1.311901    3.112963
 ---------------------------------------------------------------------

 SCF Done:  E(RB3LYP) =  -1599.59458372     A.U. after   15 cycles

 Excitation energies and oscillator strengths:

 Excited state symmetry could not be determined.
 Excited State   1:      Triplet-?Sym    2.7643 eV  448.52 nm  f=0.0000  <S**2>=2.000
     102 ->105         0.60335
     102 ->107         0.12571
     103 ->105         0.20656
     104 ->105         0.20197
 This state for optimization and/or second-order correction.
 Total Energy, E(TD-HF/TD-DFT) =  -1599.49299817
 Copying the excited state density for this state as the 1-particle RhoCI density.

 Excited state symmetry could not be determined.
 Excited State   2:      Triplet-?Sym    2.9037 eV  426.99 nm  f=0.0000  <S**2>=2.000
     102 ->105        -0.19672
     103 ->110        -0.11258
     104 ->105         0.58310
     104 ->106         0.12885
     104 ->107        -0.23165

 Excited state symmetry could not be determined.
 Excited State   3:      Singlet-?Sym    3.4937 eV  354.87 nm  f=0.3145  <S**2>=0.000
     104 ->105         0.70354

 Excited state symmetry could not be determined.
 Excited State   4:      Singlet-?Sym    3.6742 eV  337.45 nm  f=0.1015  <S**2>=0.000
     103 ->105         0.70133

 Alpha  occ. eigenvalues --  -88.90906 -19.23721 -19.14317 -14.40601 -14.33128
 Alpha  occ. eigenvalues --  -14.32889 -10.32162 -10.29290 -10.27203 -10.26586
 Alpha  occ. eigenvalues --  -10.23677 -10.22299 -10.21987 -10.21590 -10.21533
 Alpha  occ. eigenvalues --  -10.21514 -10.21459 -10.21268 -10.21252 -10.21130
 Alpha  occ. eigenvalues --  -10.21019 -10.20866 -10.20693 -10.20090 -10.19455
 Alpha  occ. eigenvalues --  -10.19154 -10.18666 -10.18276 -10.17755  -7.96835
 Alpha  occ. eigenvalues --   -5.93282  -5.92911  -5.92461  -1.13133  -1.06524
 Alpha  occ. eigenvalues --   -0.98952  -0.94040  -0.93391  -0.87465  -0.84361
 Alpha  occ. eigenvalues --   -0.82274  -0.81600  -0.79956  -0.77534  -0.77370
 Alpha  occ. eigenvalues --   -0.75763  -0.75309  -0.73012  -0.71023  -0.68457
 Alpha  occ. eigenvalues --   -0.67563  -0.63636  -0.63083  -0.62476  -0.61677
 Alpha  occ. eigenvalues --   -0.60844  -0.58912  -0.56994  -0.55265  -0.53719
 Alpha  occ. eigenvalues --   -0.53207  -0.52161  -0.50779  -0.50062  -0.48955
 Alpha  occ. eigenvalues --   -0.48451  -0.48221  -0.47427  -0.46956  -0.46117
 Alpha  occ. eigenvalues --   -0.45068  -0.44535  -0.44065  -0.43403  -0.42565
 Alpha  occ. eigenvalues --   -0.42289  -0.42001  -0.41446  -0.41239  -0.40402
 Alpha  occ. eigenvalues --   -0.39645  -0.39526  -0.39115  -0.38864  -0.38396
 Alpha  occ. eigenvalues --   -0.38085  -0.36791  -0.36480  -0.35799  -0.35211
 Alpha  occ. eigenvalues --   -0.34369  -0.33395  -0.31232  -0.29547  -0.28895
 Alpha  occ. eigenvalues --   -0.28496  -0.27922  -0.27566  -0.25887  -0.25841
 Alpha  occ. eigenvalues --   -0.25094  -0.24172  -0.22378  -0.21497
 Alpha virt. eigenvalues --   -0.07160  -0.02536  -0.02208  -0.01606  -0.00717
 Alpha virt. eigenvalues --    0.00675   0.01137   0.03155   0.04388   0.07520
 Alpha virt. eigenvalues --    0.08296   0.09317   0.10092   0.11086   0.11366

 Mulliken charges:
               1
     1  C   -0.521046
     2  C    0.171010
     3  C   -0.213020
     4  C   -0.110908
     5  C   -0.194626
     6  C   -0.137350
     7  S    0.300040
     8  C    0.326463
     9  N   -0.524561
    10  C   -0.285435
    11  C    0.143422
    12  C   -0.155169
    13  C   -0.139008
    14  C    0.040959
    15  N   -0.407971
    16  C   -0.005053
    17  C    0.584224
    18  O   -0.503343
    19  C    0.268497
    20  C   -0.198302
    21  C    0.108977
    22  C   -0.198334
    23  C   -0.134852
    24  C   -0.142998
    25  C   -0.186617
    26  C    0.338879
    27  O   -0.546514
    28  N   -0.564875
    29  C    0.229782
    30  H    0.170200
    31  H    0.165951
    32  H    0.149302
    33  H    0.122589
    34  H    0.128910
    35  H    0.140465
    36  H    0.201136
    37  H    0.214011
    38  H    0.150883
    39  H    0.138713
    40  H    0.143401
    41  H    0.170293
    42  H    0.180986
    43  H    0.146629
    44  H    0.139091
    45  H    0.142254
    46  H    0.152915
 Sum of Mulliken charges =  -0.00000

 Dipole moment (field-independent basis, Debye):
    X=              3.9611    Y=             -0.6673    Z=              2.6300  Tot=              4.8013
 Quadrupole moment (field-independent basis, Debye-Ang):
   XX=           -145.2278   YY=           -175.4965   ZZ=           -165.5027
   XY=              9.5823   XZ=             10.6961   YZ=             -1.5178

 Normal termination of Gaussian 16 at Sat Nov  5 09:43:32 2022.
