 Gaussian 16, Revision B.01,
 Gaussian 16:  ES64L-G16RevB.01 20-Dec-2017

 -------------------------------------------------------------------
 #p b3lyp/6-31g(d) 6D 10F nosymm GFInput td=(50-50,nstate=2) SCF=XQC
 -------------------------------------------------------------------

 ------------------------------
 Gaussian input prepared by ASE
 ------------------------------
 Symbolic Z-matrix:
 Charge =  0 Multiplicity = 1

                          Input orientation:
 ---------------------------------------------------------------------
 Center     Atomic      Atomic             Coordinates (Angstroms)
 Number     Number       Type             X           Y           Z
 ---------------------------------------------------------------------
      1          6           0       -6.018336    4.169047    1.403153
      2          8           0       -6.085170    2.782460    1.115298
      3          6           0       -5.103975    2.237170    0.336815
      4          6           0       -4.025910    2.946002   -0.200201
      5          6           0       -3.082324    2.271356   -0.984265
      6          6           0       -3.190044    0.906091   -1.247179
      7          6           0       -2.165146    0.175532   -2.090007
      8          7           0       -1.346068   -0.767256   -1.306379
      9          6           0       -0.175709   -0.208609   -0.625860
     10          6           0        1.073269   -0.114723   -1.531977
     11          6           0        2.266738    0.446240   -0.790892
     12          6           0        2.625500    1.786480   -0.888725
     13          6           0        3.708750    2.296994   -0.159399
     14          6           0        4.448265    1.471156    0.682312
     15          8           0        5.517862    1.863954    1.431724
     16          6           0        5.917695    3.220495    1.352889
     17          6           0        4.093498    0.101421    0.792058
     18          8           0        4.869693   -0.639377    1.632814
     19          6           0        4.566046   -2.016337    1.775956
     20          6           0        3.016629   -0.388976    0.059713
     21          6           0       -1.615798   -2.108522   -1.431093
     22          8           0       -2.488842   -2.539460   -2.185391
     23          6           0       -0.822040   -3.085505   -0.596780
     24          6           0       -0.153940   -4.127789   -1.252227
     25          6           0        0.524934   -5.100989   -0.519807
     26          6           0        0.517273   -5.060102    0.876528
     27          6           0       -0.174119   -4.042434    1.536758
     28          6           0       -0.837479   -3.056715    0.804224
     29          6           0       -4.284283    0.210535   -0.701919
     30          6           0       -5.227357    0.861641    0.078822
     31          1           0       -5.103402    4.424350    1.954608
     32          1           0       -6.066810    4.774978    0.488388
     33          1           0       -6.887199    4.388344    2.026573
     34          1           0       -3.907743    4.008500   -0.020382
     35          1           0       -2.250313    2.835013   -1.402064
     36          1           0       -1.495454    0.895816   -2.573464
     37          1           0       -2.652360   -0.411424   -2.870751
     38          1           0       -0.449823    0.786739   -0.259542
     39          1           0        0.066337   -0.807891    0.251221
     40          1           0        0.846643    0.507325   -2.406371
     41          1           0        1.296791   -1.120986   -1.908173
     42          1           0        2.066856    2.452421   -1.542018
     43          1           0        3.969258    3.344494   -0.260189
     44          1           0        5.120766    3.898456    1.688023
     45          1           0        6.216948    3.496470    0.332472
     46          1           0        6.777034    3.317616    2.019071
     47          1           0        4.662500   -2.553545    0.822772
     48          1           0        5.295071   -2.409306    2.487143
     49          1           0        3.552840   -2.170027    2.171201
     50          1           0        2.745408   -1.436890    0.135812
     51          1           0       -0.181729   -4.173496   -2.336893
     52          1           0        1.049416   -5.898845   -1.038824
     53          1           0        1.037139   -5.824957    1.447362
     54          1           0       -0.203305   -4.017848    2.622895
     55          1           0       -1.386322   -2.274228    1.321818
     56          1           0       -4.391478   -0.851934   -0.904862
     57          1           0       -6.076682    0.331076    0.498275
 ---------------------------------------------------------------------

 SCF Done:  E(RB3LYP) =  -1324.54293419     A.U. after   15 cycles

 Excitation energies and oscillator strengths:

 Excited state symmetry could not be determined.
 Excited State   1:      Triplet-?Sym    3.5810 eV  346.23 nm  f=0.0000  <S**2>=2.000
     104 ->112         0.16763
     105 ->112        -0.11001
     106 ->112         0.23096
     108 ->112         0.18178
     108 ->114         0.56875
 This state for optimization and/or second-order correction.
 Total Energy, E(TD-HF/TD-DFT) =  -1324.41133594
 Copying the excited state density for this state as the 1-particle RhoCI density.

 Excited state symmetry could not be determined.
 Excited State   2:      Triplet-?Sym    3.6406 eV  340.56 nm  f=0.0000  <S**2>=2.000
     101 ->109        -0.28239
     101 ->110         0.10750
     102 ->109         0.14709
     102 ->110         0.37231
     105 ->109         0.42285
     106 ->109         0.14190

 Excited state symmetry could not be determined.
 Excited State   3:      Singlet-?Sym    4.4125 eV  280.99 nm  f=0.0157  <S**2>=0.000
     108 ->109         0.70164

 Excited state symmetry could not be determined.
 Excited State   4:      Singlet-?Sym    4.7014 eV  263.72 nm  f=0.0050  <S**2>=0.000
     101 ->109        -0.14209
     105 ->109        -0.29532
     105 ->115         0.10182
     106 ->109        -0.11817
     107 ->109         0.59060

 Alpha  occ. eigenvalues --  -19.17642 -19.17395 -19.17388 -19.10562 -14.35983
 Alpha  occ. eigenvalues --  -10.28160 -10.24469 -10.24326 -10.24221 -10.24083
 Alpha  occ. eigenvalues --  -10.23891 -10.23793 -10.22077 -10.21522 -10.20242
 Alpha  occ. eigenvalues --  -10.19795 -10.19695 -10.19643 -10.19553 -10.19492
 Alpha  occ. eigenvalues --  -10.19003 -10.18974 -10.18964 -10.18635 -10.18594
 Alpha  occ. eigenvalues --  -10.18567 -10.18370 -10.18335 -10.18183 -10.18118
 Alpha  occ. eigenvalues --   -1.07030  -1.06217  -1.05091  -1.02499  -0.92830
 Alpha  occ. eigenvalues --   -0.85844  -0.85038  -0.84752  -0.78678  -0.77170
 Alpha  occ. eigenvalues --   -0.75678  -0.75030  -0.74973  -0.74391  -0.73261
 Alpha  occ. eigenvalues --   -0.71281  -0.70340  -0.68737  -0.67092  -0.64064
 Alpha  occ. eigenvalues --   -0.61619  -0.61001  -0.60789  -0.59950  -0.57916
 Alpha  occ. eigenvalues --   -0.57629  -0.54722  -0.53519  -0.53072  -0.52229
 Alpha  occ. eigenvalues --   -0.50346  -0.49919  -0.49354  -0.47991  -0.47443
 Alpha  occ. eigenvalues --   -0.47302  -0.47100  -0.46732  -0.45945  -0.45648
 Alpha  occ. eigenvalues --   -0.44964  -0.44556  -0.44255  -0.43982  -0.43284
 Alpha  occ. eigenvalues --   -0.42838  -0.42503  -0.42127  -0.41710  -0.40588
 Alpha  occ. eigenvalues --   -0.40336  -0.39977  -0.38634  -0.38336  -0.37735
 Alpha  occ. eigenvalues --   -0.37238  -0.37086  -0.36547  -0.36353  -0.35551
 Alpha  occ. eigenvalues --   -0.35378  -0.35011  -0.34730  -0.34188  -0.32950
 Alpha  occ. eigenvalues --   -0.32275  -0.32004  -0.31990  -0.31298  -0.30786
 Alpha  occ. eigenvalues --   -0.26415  -0.25522  -0.24849  -0.23892  -0.23574
 Alpha  occ. eigenvalues --   -0.23148  -0.21299  -0.19903
 Alpha virt. eigenvalues --   -0.01994  -0.00670   0.00134   0.00956   0.01213
 Alpha virt. eigenvalues --    0.01479   0.04394   0.07953   0.08937   0.09078
 Alpha virt. eigenvalues --    0.10063   0.10356   0.10794   0.11183   0.12822

 Mulliken charges:
               1
     1  C   -0.214128
     2  O   -0.506118
     3  C    0.375035
     4  C   -0.194752
     5  C   -0.201548
     6  C    0.177253
     7  C   -0.261268
     8  N   -0.402931
     9  C   -0.156544
    10  C   -0.354758
    11  C    0.171144
    12  C   -0.201799
    13  C   -0.201949
    14  C    0.335818
    15  O   -0.498453
    16  C   -0.213383
    17  C    0.342605
    18  O   -0.500244
    19  C   -0.214652
    20  C   -0.269642
    21  C    0.507796
    22  O   -0.521020
    23  C    0.067233
    24  C   -0.151279
    25  C   -0.136580
    26  C   -0.126360
    27  C   -0.136889
    28  C   -0.166037
    29  C   -0.188137
    30  C   -0.172020
    31  H    0.150590
    32  H    0.151450
    33  H    0.169591
    34  H    0.129123
    35  H    0.120745
    36  H    0.145213
    37  H    0.199681
    38  H    0.159517
    39  H    0.167788
    40  H    0.145798
    41  H    0.151190
    42  H    0.115447
    43  H    0.130458
    44  H    0.148981
    45  H    0.149783
    46  H    0.169895
    47  H    0.151716
    48  H    0.168940
    49  H    0.151861
    50  H    0.138070
    51  H    0.149028
    52  H    0.135417
    53  H    0.132664
    54  H    0.134845
    55  H    0.146845
    56  H    0.159310
    57  H    0.139662
 Sum of Mulliken charges =  -0.00000

 Dipole moment (field-independent basis, Debye):
    X=              2.4423    Y=              2.9609    Z=              1.8970  Tot=              4.2814
 Quadrupole moment (field-independent basis, Debye-Ang):
   XX=           -181.4366   YY=           -148.4506   ZZ=           -175.6436
   XY=            -14.9389   XZ=             -8.7538   YZ=             -6.1699

 Normal termination of Gaussian 16 at Sat Nov  5 09:40:07 2022.
