 Gaussian 16, Revision B.01,
 Gaussian 16:  ES64L-G16RevB.01 20-Dec-2017

 -----------------------------
 #p b3lyp/6-31g(d) opt SCF=XQC
 -----------------------------

 ------------------------------
 Gaussian input prepared by ASE
 ------------------------------
 Symbolic Z-matrix:
 Charge =  0 Multiplicity = 1

 SCF Done:  E(RB3LYP) =  -1324.53482117     A.U. after   15 cycles
 SCF Done:  E(RB3LYP) =  -1324.53870507     A.U. after   14 cycles
 SCF Done:  E(RB3LYP) =  -1324.53981601     A.U. after   15 cycles
 SCF Done:  E(RB3LYP) =  -1324.54170627     A.U. after   12 cycles
 SCF Done:  E(RB3LYP) =  -1324.54231803     A.U. after   12 cycles
 SCF Done:  E(RB3LYP) =  -1324.54255955     A.U. after   11 cycles
 SCF Done:  E(RB3LYP) =  -1324.54274391     A.U. after   12 cycles
 SCF Done:  E(RB3LYP) =  -1324.54283961     A.U. after   11 cycles
 SCF Done:  E(RB3LYP) =  -1324.54289135     A.U. after   12 cycles
 SCF Done:  E(RB3LYP) =  -1324.54291152     A.U. after    9 cycles
 SCF Done:  E(RB3LYP) =  -1324.54292480     A.U. after   11 cycles
 SCF Done:  E(RB3LYP) =  -1324.54293042     A.U. after   10 cycles
 SCF Done:  E(RB3LYP) =  -1324.54293554     A.U. after   10 cycles
 SCF Done:  E(RB3LYP) =  -1324.54293638     A.U. after    9 cycles
 SCF Done:  E(RB3LYP) =  -1324.54293653     A.U. after    7 cycles
 SCF Done:  E(RB3LYP) =  -1324.54293656     A.U. after    7 cycles
 SCF Done:  E(RB3LYP) =  -1324.54293657     A.U. after    6 cycles
 Optimization completed.
    -- Stationary point found.

                         Standard orientation:
 ---------------------------------------------------------------------
 Center     Atomic      Atomic             Coordinates (Angstroms)
 Number     Number       Type             X           Y           Z
 ---------------------------------------------------------------------
      1          6           0       -6.386990    3.499673    1.665835
      2          8           0       -6.253510    2.092755    1.553073
      3          6           0       -5.282116    1.600961    0.728056
      4          6           0       -4.397694    2.384602   -0.018107
      5          6           0       -3.442406    1.759715   -0.828786
      6          6           0       -3.349952    0.370903   -0.914394
      7          6           0       -2.311795   -0.304461   -1.786520
      8          7           0       -1.271269   -0.998253   -1.005643
      9          6           0       -0.144877   -0.182821   -0.546027
     10          6           0        0.970325   -0.025673   -1.605006
     11          6           0        2.125298    0.803712   -1.088856
     12          6           0        2.245667    2.156922   -1.386949
     13          6           0        3.299648    2.918721   -0.862778
     14          6           0        4.248872    2.335350   -0.028498
     15          8           0        5.310992    2.982540    0.530961
     16          6           0        5.470926    4.360468    0.244573
     17          6           0        4.138531    0.955473    0.284294
     18          8           0        5.109587    0.460772    1.103107
     19          6           0        5.054050   -0.913962    1.443299
     20          6           0        3.087172    0.213925   -0.246003
     21          6           0       -1.327297   -2.369222   -0.937767
     22          8           0       -2.190854   -3.024839   -1.521989
     23          6           0       -0.300684   -3.093444   -0.099796
     24          6           0        0.458504   -4.102385   -0.706421
     25          6           0        1.361218   -4.854000    0.044985
     26          6           0        1.492200   -4.625912    1.416955
     27          6           0        0.714730   -3.643933    2.034072
     28          6           0       -0.174847   -2.877740    1.279159
     29          6           0       -4.251572   -0.401053   -0.159654
     30          6           0       -5.202817    0.200407    0.650446
     31          1           0       -5.474446    3.962115    2.065582
     32          1           0       -6.629746    3.961804    0.699501
     33          1           0       -7.210510    3.668125    2.362331
     34          1           0       -4.438548    3.467233    0.019823
     35          1           0       -2.762932    2.380308   -1.409895
     36          1           0       -1.824213    0.436186   -2.430517
     37          1           0       -2.773928   -1.058376   -2.426443
     38          1           0       -0.539981    0.800280   -0.267728
     39          1           0        0.282710   -0.614411    0.358349
     40          1           0        0.554380    0.430897   -2.511319
     41          1           0        1.316583   -1.028416   -1.885473
     42          1           0        1.519840    2.636462   -2.039307
     43          1           0        3.371686    3.970068   -1.117258
     44          1           0        4.612228    4.949845    0.594311
     45          1           0        5.612706    4.537501   -0.830379
     46          1           0        6.366999    4.675183    0.782812
     47          1           0        5.138209   -1.554676    0.555123
     48          1           0        5.907927   -1.092697    2.099529
     49          1           0        4.126821   -1.163411    1.976635
     50          1           0        3.002127   -0.842785   -0.014473
     51          1           0        0.325968   -4.298298   -1.766333
     52          1           0        1.953379   -5.626709   -0.438028
     53          1           0        2.187752   -5.219325    2.004479
     54          1           0        0.795027   -3.477079    3.104988
     55          1           0       -0.788510   -2.123940    1.765598
     56          1           0       -4.202367   -1.485139   -0.221737
     57          1           0       -5.904564   -0.390161    1.231457
 ---------------------------------------------------------------------

 The electronic state is 1-A.
 Alpha  occ. eigenvalues --  -19.17642 -19.17394 -19.17388 -19.10562 -14.35983
 Alpha  occ. eigenvalues --  -10.28160 -10.24469 -10.24326 -10.24221 -10.24083
 Alpha  occ. eigenvalues --  -10.23891 -10.23793 -10.22077 -10.21522 -10.20242
 Alpha  occ. eigenvalues --  -10.19795 -10.19695 -10.19643 -10.19553 -10.19492
 Alpha  occ. eigenvalues --  -10.19003 -10.18974 -10.18964 -10.18634 -10.18594
 Alpha  occ. eigenvalues --  -10.18567 -10.18370 -10.18335 -10.18183 -10.18118
 Alpha  occ. eigenvalues --   -1.07030  -1.06217  -1.05091  -1.02499  -0.92830
 Alpha  occ. eigenvalues --   -0.85844  -0.85038  -0.84752  -0.78678  -0.77170
 Alpha  occ. eigenvalues --   -0.75678  -0.75030  -0.74973  -0.74391  -0.73261
 Alpha  occ. eigenvalues --   -0.71281  -0.70340  -0.68737  -0.67092  -0.64064
 Alpha  occ. eigenvalues --   -0.61619  -0.61001  -0.60789  -0.59950  -0.57916
 Alpha  occ. eigenvalues --   -0.57629  -0.54722  -0.53519  -0.53072  -0.52229
 Alpha  occ. eigenvalues --   -0.50346  -0.49919  -0.49354  -0.47991  -0.47443
 Alpha  occ. eigenvalues --   -0.47302  -0.47100  -0.46732  -0.45945  -0.45648
 Alpha  occ. eigenvalues --   -0.44964  -0.44556  -0.44255  -0.43982  -0.43284
 Alpha  occ. eigenvalues --   -0.42838  -0.42503  -0.42127  -0.41710  -0.40588
 Alpha  occ. eigenvalues --   -0.40336  -0.39977  -0.38634  -0.38336  -0.37735
 Alpha  occ. eigenvalues --   -0.37238  -0.37086  -0.36547  -0.36353  -0.35551
 Alpha  occ. eigenvalues --   -0.35378  -0.35011  -0.34730  -0.34188  -0.32950
 Alpha  occ. eigenvalues --   -0.32275  -0.32004  -0.31990  -0.31298  -0.30786
 Alpha  occ. eigenvalues --   -0.26415  -0.25522  -0.24849  -0.23892  -0.23574
 Alpha  occ. eigenvalues --   -0.23148  -0.21299  -0.19903
 Alpha virt. eigenvalues --   -0.01994  -0.00670   0.00134   0.00956   0.01213
 Alpha virt. eigenvalues --    0.01479   0.04394   0.07953   0.08937   0.09078
 Alpha virt. eigenvalues --    0.10063   0.10356   0.10794   0.11183   0.12822

 Mulliken charges:
               1
     1  C   -0.214124
     2  O   -0.506115
     3  C    0.375031
     4  C   -0.194753
     5  C   -0.201550
     6  C    0.177277
     7  C   -0.261272
     8  N   -0.402939
     9  C   -0.156527
    10  C   -0.354764
    11  C    0.171156
    12  C   -0.201796
    13  C   -0.201959
    14  C    0.335829
    15  O   -0.498453
    16  C   -0.213384
    17  C    0.342583
    18  O   -0.500240
    19  C   -0.214656
    20  C   -0.269638
    21  C    0.507781
    22  O   -0.521019
    23  C    0.067240
    24  C   -0.151264
    25  C   -0.136586
    26  C   -0.126358
    27  C   -0.136888
    28  C   -0.166047
    29  C   -0.188149
    30  C   -0.172023
    31  H    0.150588
    32  H    0.151450
    33  H    0.169590
    34  H    0.129124
    35  H    0.120747
    36  H    0.145214
    37  H    0.199680
    38  H    0.159513
    39  H    0.167785
    40  H    0.145798
    41  H    0.151190
    42  H    0.115444
    43  H    0.130459
    44  H    0.148979
    45  H    0.149784
    46  H    0.169895
    47  H    0.151715
    48  H    0.168941
    49  H    0.151863
    50  H    0.138077
    51  H    0.149027
    52  H    0.135417
    53  H    0.132665
    54  H    0.134845
    55  H    0.146846
    56  H    0.159310
    57  H    0.139663
 Sum of Mulliken charges =  -0.00000

 Dipole moment (field-independent basis, Debye):
    X=              2.1037    Y=              3.5242    Z=              1.2185  Tot=              4.2814
 Quadrupole moment (field-independent basis, Debye-Ang):
   XX=           -176.9654   YY=           -155.1597   ZZ=           -172.1666
   XY=            -20.5360   XZ=             -4.5014   YZ=             -7.6911

 Normal termination of Gaussian 16 at Fri Nov  4 22:16:52 2022.
