 Gaussian 16, Revision B.01,
 Gaussian 16:  ES64L-G16RevB.01 20-Dec-2017

 -------------------------------------------------------------------
 #p b3lyp/6-31g(d) 6D 10F nosymm GFInput td=(50-50,nstate=2) SCF=XQC
 -------------------------------------------------------------------

 ------------------------------
 Gaussian input prepared by ASE
 ------------------------------
 Symbolic Z-matrix:
 Charge =  0 Multiplicity = 1

                          Input orientation:
 ---------------------------------------------------------------------
 Center     Atomic      Atomic             Coordinates (Angstroms)
 Number     Number       Type             X           Y           Z
 ---------------------------------------------------------------------
      1          6           0        7.600721   -3.544245    1.526211
      2          8           0        7.639093   -2.157876    1.246662
      3          6           0        6.570814   -1.612056    0.592231
      4          6           0        5.440631   -2.310119    0.177151
      5          6           0        4.399737   -1.649930   -0.491869
      6          6           0        4.473020   -0.286676   -0.758172
      7          6           0        3.348961    0.457180   -1.443627
      8          6           0        2.471639    1.240370   -0.442522
      9          7           0        1.465207    2.068000   -1.094408
     10          6           0        1.792899    3.290571   -1.590491
     11          8           0        2.927534    3.759921   -1.503478
     12          6           0        0.699942    4.097981   -2.307858
     13          6           0       -0.756356    3.611859   -2.249963
     14          6           0       -1.364163    3.729196   -0.847175
     15         16           0       -3.028421    2.954019   -0.676185
     16          6           0       -2.541614    1.260183   -0.647451
     17          7           0       -1.323431    0.780755   -0.781153
     18          7           0       -1.397546   -0.588918   -0.661064
     19          6           0       -2.654574   -0.916963   -0.457168
     20          6           0       -3.117798   -2.301306   -0.283197
     21          6           0       -2.209572   -3.235577    0.245267
     22          6           0       -2.578819   -4.568772    0.398021
     23          6           0       -3.858469   -4.991577    0.029276
     24          6           0       -4.762709   -4.071690   -0.502927
     25          6           0       -4.398214   -2.735112   -0.662483
     26          7           0       -3.438317    0.234475   -0.444859
     27          6           0       -4.830860    0.389272   -0.132579
     28          6           0       -5.717209    0.816536   -1.122840
     29          6           0       -7.065243    0.970316   -0.796926
     30          6           0       -7.514101    0.693340    0.493694
     31          6           0       -6.627848    0.266131    1.493294
     32          6           0       -7.112785   -0.000073    2.899043
     33          6           0       -5.276554    0.120001    1.163428
     34          6           0        5.617699    0.418084   -0.337651
     35          6           0        6.658724   -0.220996    0.328736
     36          8           0        7.799955    0.387721    0.763976
     37          6           0        7.938437    1.778159    0.527576
     38          1           0        7.540766   -4.143312    0.606832
     39          1           0        6.754271   -3.805070    2.176862
     40          1           0        8.535173   -3.771636    2.043391
     41          1           0        5.358611   -3.374676    0.366124
     42          1           0        3.528170   -2.217838   -0.808141
     43          1           0        3.755575    1.178968   -2.160908
     44          1           0        2.715738   -0.241598   -2.003315
     45          1           0        1.953963    0.546351    0.227018
     46          1           0        3.109095    1.891113    0.162984
     47          1           0        0.521898    1.688798   -1.161751
     48          1           0        0.784439    5.122033   -1.923828
     49          1           0        1.015067    4.155008   -3.357682
     50          1           0       -1.358735    4.206823   -2.946631
     51          1           0       -0.820322    2.575729   -2.595764
     52          1           0       -0.718733    3.290318   -0.083486
     53          1           0       -1.535251    4.777172   -0.579215
     54          1           0       -1.217509   -2.898299    0.525959
     55          1           0       -1.866961   -5.279009    0.809590
     56          1           0       -4.146950   -6.031899    0.152440
     57          1           0       -5.755618   -4.394340   -0.804075
     58          1           0       -5.105893   -2.038041   -1.097037
     59          1           0       -5.354474    1.016685   -2.125917
     60          1           0       -7.767695    1.299990   -1.556935
     61          1           0       -8.568622    0.809952    0.731734
     62          1           0       -6.439011   -0.675881    3.434720
     63          1           0       -7.172965    0.930925    3.477661
     64          1           0       -8.112707   -0.446733    2.898316
     65          1           0       -4.561442   -0.207102    1.912657
     66          1           0        5.678002    1.481029   -0.547350
     67          1           0        8.904345    2.057754    0.953030
     68          1           0        7.933717    2.009776   -0.546053
     69          1           0        7.143644    2.354828    1.019498
 ---------------------------------------------------------------------

 SCF Done:  E(RB3LYP) =  -1967.22177832     A.U. after   15 cycles

 Excitation energies and oscillator strengths:

 Excited state symmetry could not be determined.
 Excited State   1:      Triplet-?Sym    3.2571 eV  380.66 nm  f=0.0000  <S**2>=2.000
     130 ->138        -0.17975
     130 ->139        -0.10927
     131 ->141        -0.19983
     132 ->138         0.10868
     134 ->138         0.32734
     134 ->139         0.14086
     135 ->138         0.41058
     135 ->139         0.17225
 This state for optimization and/or second-order correction.
 Total Energy, E(TD-HF/TD-DFT) =  -1967.10208310
 Copying the excited state density for this state as the 1-particle RhoCI density.

 Excited state symmetry could not be determined.
 Excited State   2:      Triplet-?Sym    3.5924 eV  345.13 nm  f=0.0000  <S**2>=2.000
     137 ->138         0.68779
     137 ->145         0.12090

 Excited state symmetry could not be determined.
 Excited State   3:      Singlet-?Sym    3.5929 eV  345.09 nm  f=0.0001  <S**2>=0.000
     137 ->138         0.70347

 Excited state symmetry could not be determined.
 Excited State   4:      Singlet-?Sym    3.8918 eV  318.58 nm  f=0.0000  <S**2>=0.000
     137 ->139         0.70276

 Alpha  occ. eigenvalues --  -88.90544 -19.16073 -19.15905 -19.08228 -14.41885
 Alpha  occ. eigenvalues --  -14.35613 -14.35084 -14.32921 -10.28621 -10.26465
 Alpha  occ. eigenvalues --  -10.26169 -10.25814 -10.22870 -10.22804 -10.22749
 Alpha  occ. eigenvalues --  -10.22687 -10.22369 -10.22367 -10.21743 -10.21688
 Alpha  occ. eigenvalues --  -10.21576 -10.21508 -10.21205 -10.20360 -10.20206
 Alpha  occ. eigenvalues --  -10.20129 -10.20069 -10.19945 -10.19888 -10.19625
 Alpha  occ. eigenvalues --  -10.19414 -10.18547 -10.17148 -10.17066 -10.16577
 Alpha  occ. eigenvalues --  -10.16484 -10.16479  -7.96628  -5.93164  -5.92732
 Alpha  occ. eigenvalues --   -5.92118  -1.07331  -1.05588  -1.03665  -1.00209
 Alpha  occ. eigenvalues --   -0.94693  -0.89180  -0.87479  -0.87346  -0.84682
 Alpha  occ. eigenvalues --   -0.83285  -0.80996  -0.79482  -0.77442  -0.76812
 Alpha  occ. eigenvalues --   -0.76204  -0.75564  -0.74570  -0.73343  -0.71438
 Alpha  occ. eigenvalues --   -0.70966  -0.69067  -0.68550  -0.66722  -0.66037
 Alpha  occ. eigenvalues --   -0.64255  -0.62721  -0.62009  -0.61620  -0.60471
 Alpha  occ. eigenvalues --   -0.58844  -0.58405  -0.57333  -0.56020  -0.55227
 Alpha  occ. eigenvalues --   -0.54786  -0.52482  -0.52034  -0.51085  -0.50101
 Alpha  occ. eigenvalues --   -0.49763  -0.48803  -0.48121  -0.48067  -0.46897
 Alpha  occ. eigenvalues --   -0.46579  -0.45801  -0.45443  -0.45258  -0.44957
 Alpha  occ. eigenvalues --   -0.44619  -0.43937  -0.43864  -0.43791  -0.43556
 Alpha  occ. eigenvalues --   -0.43351  -0.42981  -0.42467  -0.41997  -0.41495
 Alpha  occ. eigenvalues --   -0.40821  -0.40643  -0.39555  -0.39491  -0.38759
 Alpha  occ. eigenvalues --   -0.38674  -0.38106  -0.37881  -0.37637  -0.36930
 Alpha  occ. eigenvalues --   -0.36618  -0.36297  -0.36245  -0.35547  -0.35338
 Alpha  occ. eigenvalues --   -0.35086  -0.34584  -0.33765  -0.33089  -0.32162
 Alpha  occ. eigenvalues --   -0.31802  -0.31494  -0.31179  -0.30889  -0.30566
 Alpha  occ. eigenvalues --   -0.30485  -0.29127  -0.28221  -0.26950  -0.26423
 Alpha  occ. eigenvalues --   -0.25964  -0.25832  -0.22844  -0.22376  -0.21992
 Alpha  occ. eigenvalues --   -0.21652  -0.18381
 Alpha virt. eigenvalues --   -0.04074  -0.03125  -0.02758  -0.00820   0.01880
 Alpha virt. eigenvalues --    0.02107   0.02540   0.03174   0.05144   0.05275
 Alpha virt. eigenvalues --    0.06425   0.07581   0.08977   0.09994   0.10306

 Mulliken charges:
               1
     1  C   -0.210129
     2  O   -0.500214
     3  C    0.332351
     4  C   -0.202766
     5  C   -0.204231
     6  C    0.163945
     7  C   -0.347298
     8  C   -0.128136
     9  N   -0.641118
    10  C    0.593023
    11  O   -0.543858
    12  C   -0.358670
    13  C   -0.279304
    14  C   -0.430702
    15  S    0.160413
    16  C    0.306369
    17  N   -0.368387
    18  N   -0.348983
    19  C    0.414226
    20  C    0.119766
    21  C   -0.156889
    22  C   -0.138414
    23  C   -0.121144
    24  C   -0.140840
    25  C   -0.171472
    26  N   -0.590199
    27  C    0.217890
    28  C   -0.134976
    29  C   -0.140098
    30  C   -0.162986
    31  C    0.162523
    32  C   -0.531442
    33  C   -0.168808
    34  C   -0.270879
    35  C    0.340844
    36  O   -0.503292
    37  C   -0.213650
    38  H    0.146899
    39  H    0.145942
    40  H    0.165546
    41  H    0.124566
    42  H    0.117327
    43  H    0.164293
    44  H    0.139802
    45  H    0.149409
    46  H    0.166411
    47  H    0.398367
    48  H    0.163273
    49  H    0.172843
    50  H    0.148412
    51  H    0.173161
    52  H    0.205740
    53  H    0.180618
    54  H    0.164037
    55  H    0.138509
    56  H    0.135431
    57  H    0.135244
    58  H    0.146049
    59  H    0.159180
    60  H    0.146253
    61  H    0.135518
    62  H    0.166376
    63  H    0.176156
    64  H    0.164678
    65  H    0.150018
    66  H    0.147334
    67  H    0.164247
    68  H    0.152286
    69  H    0.153608
 Sum of Mulliken charges =  -0.00000

 Dipole moment (field-independent basis, Debye):
    X=             -9.4738    Y=             -2.2060    Z=              1.5035  Tot=              9.8427
 Quadrupole moment (field-independent basis, Debye-Ang):
   XX=           -196.7432   YY=           -207.1288   ZZ=           -218.5406
   XY=             -9.2764   XZ=              2.1303   YZ=             -4.5558

 Normal termination of Gaussian 16 at Sat Nov  5 09:50:01 2022.
