 Gaussian 16, Revision B.01,
 Gaussian 16:  ES64L-G16RevB.01 20-Dec-2017

 -----------------------------
 #p b3lyp/6-31g(d) opt SCF=XQC
 -----------------------------

 ------------------------------
 Gaussian input prepared by ASE
 ------------------------------
 Symbolic Z-matrix:
 Charge =  0 Multiplicity = 1

 SCF Done:  E(RB3LYP) =  -1967.20884414     A.U. after   15 cycles
 SCF Done:  E(RB3LYP) =  -1967.21240188     A.U. after   14 cycles
 SCF Done:  E(RB3LYP) =  -1967.21489702     A.U. after   15 cycles
 SCF Done:  E(RB3LYP) =  -1967.21715913     A.U. after   13 cycles
 SCF Done:  E(RB3LYP) =  -1967.21587015     A.U. after   15 cycles
 SCF Done:  E(RB3LYP) =  -1967.21906562     A.U. after   13 cycles
 SCF Done:  E(RB3LYP) =  -1967.22025565     A.U. after   12 cycles
 SCF Done:  E(RB3LYP) =  -1967.22071453     A.U. after   12 cycles
 SCF Done:  E(RB3LYP) =  -1967.22094668     A.U. after   12 cycles
 SCF Done:  E(RB3LYP) =  -1967.22113115     A.U. after   11 cycles
 SCF Done:  E(RB3LYP) =  -1967.22177431     A.U. after    7 cycles
 SCF Done:  E(RB3LYP) =  -1967.22177439     A.U. after    7 cycles
 SCF Done:  E(RB3LYP) =  -1967.22177453     A.U. after    9 cycles
 SCF Done:  E(RB3LYP) =  -1967.22177474     A.U. after    9 cycles
 SCF Done:  E(RB3LYP) =  -1967.22177505     A.U. after    8 cycles
 SCF Done:  E(RB3LYP) =  -1967.22177547     A.U. after    9 cycles
 SCF Done:  E(RB3LYP) =  -1967.22177579     A.U. after    9 cycles
 SCF Done:  E(RB3LYP) =  -1967.22177588     A.U. after    7 cycles
 SCF Done:  E(RB3LYP) =  -1967.22177592     A.U. after    7 cycles
 SCF Done:  E(RB3LYP) =  -1967.22177592     A.U. after    6 cycles
 Optimization completed.
    -- Stationary point found.

                         Standard orientation:
 ---------------------------------------------------------------------
 Center     Atomic      Atomic             Coordinates (Angstroms)
 Number     Number       Type             X           Y           Z
 ---------------------------------------------------------------------
      1          6           0        7.726202   -3.884061    0.734618
      2          8           0        7.749375   -2.471987    0.819183
      3          6           0        6.671881   -1.788590    0.329902
      4          6           0        5.546052   -2.369506   -0.246245
      5          6           0        4.494741   -1.571522   -0.720441
      6          6           0        4.553127   -0.184800   -0.629107
      7          6           0        3.417741    0.697353   -1.097490
      8          6           0        2.538922    1.188538    0.073708
      9          7           0        1.520542    2.144367   -0.341175
     10          6           0        1.833298    3.456706   -0.508835
     11          8           0        2.963816    3.900561   -0.308388
     12          6           0        0.728200    4.408800   -0.991901
     13          6           0       -0.722917    3.908114   -1.055481
     14          6           0       -1.323318    3.655810    0.332637
     15         16           0       -2.978880    2.844487    0.305084
     16          6           0       -2.475437    1.205166   -0.102421
     17          7           0       -1.253476    0.789321   -0.358511
     18          7           0       -1.313519   -0.566189   -0.592827
     19          6           0       -2.566034   -0.949261   -0.475474
     20          6           0       -3.014691   -2.337011   -0.660147
     21          6           0       -2.094221   -3.365407   -0.391542
     22          6           0       -2.449535   -4.697254   -0.583947
     23          6           0       -3.727220   -5.025597   -1.044331
     24          6           0       -4.643586   -4.010105   -1.320246
     25          6           0       -4.293099   -2.673298   -1.133534
     26          7           0       -3.360863    0.152002   -0.166152
     27          6           0       -4.752928    0.206430    0.180042
     28          6           0       -5.649386    0.863183   -0.664839
     29          6           0       -6.996852    0.913626   -0.305876
     30          6           0       -7.435155    0.310622    0.872329
     31          6           0       -6.538737   -0.348468    1.726253
     32          6           0       -7.012523   -0.970923    3.018629
     33          6           0       -5.188110   -0.390469    1.365416
     34          6           0        5.693419    0.401354   -0.046034
     35          6           0        6.744641   -0.375549    0.431020
     36          8           0        7.882509    0.113962    1.003745
     37          6           0        8.006007    1.520022    1.130725
     38          1           0        7.666508   -4.228467   -0.307282
     39          1           0        6.886294   -4.312005    1.299660
     40          1           0        8.665944   -4.225993    1.173196
     41          1           0        5.475551   -3.447803   -0.335832
     42          1           0        3.626842   -2.049081   -1.168625
     43          1           0        3.812949    1.583106   -1.607448
     44          1           0        2.787969    0.158210   -1.815283
     45          1           0        2.032100    0.340629    0.544999
     46          1           0        3.173672    1.669567    0.823480
     47          1           0        0.580580    1.784713   -0.500174
     48          1           0        0.805048    5.301305   -0.358788
     49          1           0        1.036381    4.736094   -1.993196
     50          1           0       -1.335276    4.654935   -1.574579
     51          1           0       -0.778887    2.994375   -1.654800
     52          1           0       -0.669025    3.043182    0.956339
     53          1           0       -1.502975    4.598346    0.860536
     54          1           0       -1.103805   -3.100353   -0.037203
     55          1           0       -1.728310   -5.481327   -0.370325
     56          1           0       -4.004804   -6.065887   -1.190634
     57          1           0       -5.635114   -4.255792   -1.690612
     58          1           0       -5.010155   -1.896023   -1.372760
     59          1           0       -5.294708    1.317378   -1.584464
     60          1           0       -7.707078    1.419126   -0.953785
     61          1           0       -8.489298    0.350849    1.135843
     62          1           0       -6.328963   -1.753899    3.361166
     63          1           0       -7.078255   -0.219761    3.816509
     64          1           0       -8.008034   -1.413455    2.906946
     65          1           0       -4.465315   -0.890587    2.003520
     66          1           0        5.742095    1.483159    0.023179
     67          1           0        8.971709    1.691979    1.610321
     68          1           0        7.992520    2.018665    0.152194
     69          1           0        7.208635    1.942816    1.756563
 ---------------------------------------------------------------------

 The electronic state is 1-A.
 Alpha  occ. eigenvalues --  -88.90544 -19.16073 -19.15905 -19.08228 -14.41885
 Alpha  occ. eigenvalues --  -14.35613 -14.35084 -14.32921 -10.28621 -10.26465
 Alpha  occ. eigenvalues --  -10.26169 -10.25814 -10.22870 -10.22804 -10.22749
 Alpha  occ. eigenvalues --  -10.22686 -10.22369 -10.22367 -10.21743 -10.21688
 Alpha  occ. eigenvalues --  -10.21576 -10.21508 -10.21205 -10.20360 -10.20206
 Alpha  occ. eigenvalues --  -10.20129 -10.20069 -10.19945 -10.19888 -10.19625
 Alpha  occ. eigenvalues --  -10.19414 -10.18547 -10.17148 -10.17066 -10.16577
 Alpha  occ. eigenvalues --  -10.16484 -10.16479  -7.96628  -5.93163  -5.92731
 Alpha  occ. eigenvalues --   -5.92117  -1.07331  -1.05588  -1.03665  -1.00208
 Alpha  occ. eigenvalues --   -0.94693  -0.89180  -0.87479  -0.87346  -0.84682
 Alpha  occ. eigenvalues --   -0.83285  -0.80996  -0.79482  -0.77442  -0.76812
 Alpha  occ. eigenvalues --   -0.76204  -0.75564  -0.74570  -0.73343  -0.71438
 Alpha  occ. eigenvalues --   -0.70966  -0.69067  -0.68550  -0.66722  -0.66037
 Alpha  occ. eigenvalues --   -0.64255  -0.62721  -0.62009  -0.61620  -0.60471
 Alpha  occ. eigenvalues --   -0.58844  -0.58405  -0.57333  -0.56020  -0.55227
 Alpha  occ. eigenvalues --   -0.54786  -0.52482  -0.52034  -0.51085  -0.50101
 Alpha  occ. eigenvalues --   -0.49763  -0.48803  -0.48121  -0.48067  -0.46897
 Alpha  occ. eigenvalues --   -0.46579  -0.45800  -0.45443  -0.45258  -0.44957
 Alpha  occ. eigenvalues --   -0.44619  -0.43937  -0.43864  -0.43791  -0.43556
 Alpha  occ. eigenvalues --   -0.43351  -0.42981  -0.42467  -0.41997  -0.41494
 Alpha  occ. eigenvalues --   -0.40821  -0.40643  -0.39555  -0.39491  -0.38759
 Alpha  occ. eigenvalues --   -0.38674  -0.38106  -0.37881  -0.37637  -0.36930
 Alpha  occ. eigenvalues --   -0.36618  -0.36297  -0.36245  -0.35547  -0.35338
 Alpha  occ. eigenvalues --   -0.35086  -0.34584  -0.33765  -0.33089  -0.32162
 Alpha  occ. eigenvalues --   -0.31802  -0.31494  -0.31179  -0.30889  -0.30566
 Alpha  occ. eigenvalues --   -0.30485  -0.29127  -0.28221  -0.26950  -0.26423
 Alpha  occ. eigenvalues --   -0.25964  -0.25832  -0.22843  -0.22376  -0.21992
 Alpha  occ. eigenvalues --   -0.21652  -0.18381
 Alpha virt. eigenvalues --   -0.04074  -0.03125  -0.02758  -0.00820   0.01881
 Alpha virt. eigenvalues --    0.02107   0.02540   0.03174   0.05144   0.05276
 Alpha virt. eigenvalues --    0.06425   0.07581   0.08977   0.09994   0.10306

 Mulliken charges:
               1
     1  C   -0.210130
     2  O   -0.500220
     3  C    0.332368
     4  C   -0.202769
     5  C   -0.204239
     6  C    0.163960
     7  C   -0.347312
     8  C   -0.128143
     9  N   -0.641119
    10  C    0.593032
    11  O   -0.543856
    12  C   -0.358684
    13  C   -0.279291
    14  C   -0.430704
    15  S    0.160424
    16  C    0.306371
    17  N   -0.368385
    18  N   -0.348979
    19  C    0.414224
    20  C    0.119769
    21  C   -0.156877
    22  C   -0.138420
    23  C   -0.121141
    24  C   -0.140841
    25  C   -0.171478
    26  N   -0.590213
    27  C    0.217873
    28  C   -0.134965
    29  C   -0.140100
    30  C   -0.162995
    31  C    0.162533
    32  C   -0.531442
    33  C   -0.168807
    34  C   -0.270900
    35  C    0.340856
    36  O   -0.503299
    37  C   -0.213648
    38  H    0.146898
    39  H    0.145943
    40  H    0.165545
    41  H    0.124565
    42  H    0.117325
    43  H    0.164292
    44  H    0.139811
    45  H    0.149410
    46  H    0.166411
    47  H    0.398368
    48  H    0.163274
    49  H    0.172844
    50  H    0.148410
    51  H    0.173159
    52  H    0.205739
    53  H    0.180616
    54  H    0.164034
    55  H    0.138509
    56  H    0.135432
    57  H    0.135245
    58  H    0.146050
    59  H    0.159180
    60  H    0.146253
    61  H    0.135519
    62  H    0.166375
    63  H    0.176157
    64  H    0.164678
    65  H    0.150018
    66  H    0.147345
    67  H    0.164246
    68  H    0.152286
    69  H    0.153608
 Sum of Mulliken charges =  -0.00000

 Dipole moment (field-independent basis, Debye):
    X=             -9.4427    Y=             -2.6211    Z=              0.9207  Tot=              9.8428
 Quadrupole moment (field-independent basis, Debye-Ang):
   XX=           -198.0902   YY=           -205.0392   ZZ=           -219.6911
   XY=             -8.2084   XZ=             -2.1218   YZ=             -1.7493

 Normal termination of Gaussian 16 at Fri Nov  4 23:37:09 2022.
