 Gaussian 16, Revision B.01,
 Gaussian 16:  ES64L-G16RevB.01 20-Dec-2017

 -------------------------------------------------------------------
 #p b3lyp/6-31g(d) 6D 10F nosymm GFInput td=(50-50,nstate=2) SCF=XQC
 -------------------------------------------------------------------

 ------------------------------
 Gaussian input prepared by ASE
 ------------------------------
 Symbolic Z-matrix:
 Charge =  0 Multiplicity = 1

                          Input orientation:
 ---------------------------------------------------------------------
 Center     Atomic      Atomic             Coordinates (Angstroms)
 Number     Number       Type             X           Y           Z
 ---------------------------------------------------------------------
      1          6           0       10.326577    2.128910    1.781894
      2          6           0        8.965015    1.770562    1.232406
      3          6           0        8.177117    2.726577    0.579521
      4          6           0        6.936418    2.374841    0.048076
      5          6           0        6.449632    1.075238    0.167291
      6          6           0        7.232253    0.108684    0.808404
      7          7           0        6.751904   -1.216808    0.999126
      8         16           0        6.183849   -2.191882   -0.286001
      9          8           0        6.688859   -1.711811   -1.573831
     10          8           0        6.456591   -3.552143    0.189992
     11          6           0        4.416743   -1.917642   -0.270982
     12          6           0        3.662607   -2.265940    0.852051
     13          6           0        2.282420   -2.099187    0.850951
     14          6           0        1.647160   -1.586457   -0.295630
     15          7           0        0.258253   -1.401167   -0.389687
     16          6           0       -0.708749   -1.570933    0.586741
     17          8           0       -0.455415   -1.888679    1.741206
     18          6           0       -2.117713   -1.315225    0.131521
     19          6           0       -2.546210   -1.457915   -1.196741
     20          6           0       -3.877369   -1.227588   -1.533745
     21          6           0       -4.799969   -0.833093   -0.554813
     22          7           0       -6.146562   -0.563933   -0.971505
     23          6           0       -6.437739    0.766679   -1.575699
     24          6           0       -6.328193    1.941178   -0.623486
     25          6           0       -5.182904    2.745984   -0.616867
     26          6           0       -5.075183    3.826542    0.260846
     27          6           0       -6.116398    4.112373    1.144327
     28          6           0       -7.264673    3.316188    1.143812
     29          6           0       -7.371657    2.238788    0.265175
     30         16           0       -7.422360   -1.430908   -0.261249
     31          6           0       -7.258499   -3.042881   -1.053208
     32          8           0       -7.200416   -1.630515    1.174037
     33          8           0       -8.657887   -0.800609   -0.739557
     34          6           0       -4.376537   -0.690515    0.774481
     35          6           0       -3.051015   -0.949162    1.110427
     36          6           0        2.416761   -1.248994   -1.422147
     37          6           0        3.796640   -1.413732   -1.414837
     38          6           0        8.481322    0.462178    1.331769
     39          1           0       10.358295    3.169417    2.121998
     40          1           0       11.105499    2.012973    1.016630
     41          1           0       10.602015    1.487998    2.626045
     42          1           0        8.536383    3.748676    0.489223
     43          1           0        6.330342    3.126128   -0.451213
     44          1           0        5.470528    0.816861   -0.220744
     45          1           0        7.359905   -1.805746    1.563176
     46          1           0        4.153225   -2.667011    1.732796
     47          1           0        1.691645   -2.353984    1.718691
     48          1           0       -0.059488   -1.007403   -1.264499
     49          1           0       -1.863650   -1.802014   -1.969733
     50          1           0       -4.216740   -1.362044   -2.556738
     51          1           0       -5.728827    0.884830   -2.401838
     52          1           0       -7.440235    0.702418   -2.000610
     53          1           0       -4.370366    2.528045   -1.306801
     54          1           0       -4.180424    4.443409    0.252953
     55          1           0       -6.036116    4.953240    1.828081
     56          1           0       -8.081093    3.537755    1.825922
     57          1           0       -8.266702    1.622616    0.263356
     58          1           0       -7.428562   -2.925839   -2.124223
     59          1           0       -8.014920   -3.693346   -0.608392
     60          1           0       -6.260003   -3.435614   -0.852248
     61          1           0       -5.090423   -0.393521    1.532398
     62          1           0       -2.715106   -0.860771    2.138082
     63          1           0        1.929294   -0.857809   -2.312620
     64          1           0        4.394009   -1.159323   -2.283390
     65          1           0        9.086842   -0.296945    1.824034
 ---------------------------------------------------------------------

 SCF Done:  E(RB3LYP) =  -2419.88337132     A.U. after   15 cycles

 Excitation energies and oscillator strengths:

 Excited state symmetry could not be determined.
 Excited State   1:      Triplet-?Sym    3.2674 eV  379.46 nm  f=0.0000  <S**2>=2.000
     137 ->148        -0.17392
     141 ->145         0.13017
     141 ->146         0.11797
     142 ->145        -0.14507
     143 ->145         0.48389
     143 ->146         0.20906
     144 ->145        -0.25957
     144 ->146        -0.11595
 This state for optimization and/or second-order correction.
 Total Energy, E(TD-HF/TD-DFT) =  -2419.76329616
 Copying the excited state density for this state as the 1-particle RhoCI density.

 Excited state symmetry could not be determined.
 Excited State   2:      Triplet-?Sym    3.4023 eV  364.42 nm  f=0.0000  <S**2>=2.000
     135 ->145         0.26173
     135 ->146        -0.10402
     136 ->147         0.21275
     138 ->145         0.11304
     138 ->147        -0.11220
     139 ->145        -0.37399
     141 ->145        -0.31181
     142 ->145        -0.11712
     143 ->146        -0.14887

 Excited state symmetry could not be determined.
 Excited State   3:      Singlet-?Sym    3.8408 eV  322.81 nm  f=0.0630  <S**2>=0.000
     144 ->145         0.69749

 Excited state symmetry could not be determined.
 Excited State   4:      Singlet-?Sym    4.2164 eV  294.05 nm  f=0.4645  <S**2>=0.000
     138 ->145         0.12441
     139 ->145        -0.18181
     141 ->145        -0.26215
     142 ->145        -0.23739
     143 ->145         0.54165

 Alpha  occ. eigenvalues --  -89.12219 -89.11422 -19.15232 -19.14945 -19.14560
 Alpha  occ. eigenvalues --  -19.14278 -19.13993 -14.39994 -14.38269 -14.37374
 Alpha  occ. eigenvalues --  -10.31658 -10.26397 -10.25583 -10.24177 -10.23693
 Alpha  occ. eigenvalues --  -10.23451 -10.22889 -10.22651 -10.22599 -10.22087
 Alpha  occ. eigenvalues --  -10.21961 -10.21778 -10.21700 -10.21400 -10.21177
 Alpha  occ. eigenvalues --  -10.20586 -10.20204 -10.20146 -10.19708 -10.19583
 Alpha  occ. eigenvalues --  -10.19514 -10.19383 -10.19241 -10.19156 -10.19112
 Alpha  occ. eigenvalues --  -10.18910 -10.18656 -10.18498  -8.14730  -8.13934
 Alpha  occ. eigenvalues --   -6.11245  -6.11143  -6.11021  -6.10452  -6.10343
 Alpha  occ. eigenvalues --   -6.10226  -1.11843  -1.11119  -1.05967  -1.00849
 Alpha  occ. eigenvalues --   -1.00249  -0.96532  -0.95583  -0.93652  -0.88048
 Alpha  occ. eigenvalues --   -0.87254  -0.85809  -0.84938  -0.79580  -0.79049
 Alpha  occ. eigenvalues --   -0.77738  -0.77384  -0.77205  -0.77133  -0.75659
 Alpha  occ. eigenvalues --   -0.74831  -0.74233  -0.70018  -0.69210  -0.68922
 Alpha  occ. eigenvalues --   -0.66248  -0.64857  -0.63845  -0.62626  -0.61427
 Alpha  occ. eigenvalues --   -0.61037  -0.60623  -0.59316  -0.58193  -0.57991
 Alpha  occ. eigenvalues --   -0.56804  -0.54665  -0.54144  -0.53030  -0.52722
 Alpha  occ. eigenvalues --   -0.52135  -0.50733  -0.49900  -0.49150  -0.49017
 Alpha  occ. eigenvalues --   -0.48275  -0.47620  -0.47170  -0.47128  -0.46684
 Alpha  occ. eigenvalues --   -0.46479  -0.45920  -0.45820  -0.45062  -0.44821
 Alpha  occ. eigenvalues --   -0.44753  -0.44397  -0.44220  -0.43632  -0.43527
 Alpha  occ. eigenvalues --   -0.42829  -0.42500  -0.42400  -0.42218  -0.41922
 Alpha  occ. eigenvalues --   -0.41285  -0.40514  -0.40281  -0.39678  -0.39029
 Alpha  occ. eigenvalues --   -0.38325  -0.37598  -0.37360  -0.37119  -0.36561
 Alpha  occ. eigenvalues --   -0.36394  -0.35915  -0.34929  -0.34736  -0.34557
 Alpha  occ. eigenvalues --   -0.33932  -0.33403  -0.32288  -0.32009  -0.31760
 Alpha  occ. eigenvalues --   -0.31320  -0.30985  -0.30651  -0.29864  -0.28600
 Alpha  occ. eigenvalues --   -0.27971  -0.27531  -0.27322  -0.26120  -0.25468
 Alpha  occ. eigenvalues --   -0.24839  -0.24634  -0.24281  -0.22302
 Alpha virt. eigenvalues --   -0.06791  -0.03167  -0.02999  -0.02346  -0.01302
 Alpha virt. eigenvalues --   -0.00547  -0.00247  -0.00222   0.03380   0.04947
 Alpha virt. eigenvalues --    0.05552   0.06426   0.06911   0.07626   0.08334

 Mulliken charges:
               1
     1  C   -0.530439
     2  C    0.173188
     3  C   -0.175990
     4  C   -0.140907
     5  C   -0.148220
     6  C    0.333334
     7  N   -0.812645
     8  S    1.223908
     9  O   -0.520917
    10  O   -0.542920
    11  C   -0.148049
    12  C   -0.139332
    13  C   -0.154832
    14  C    0.372248
    15  N   -0.739892
    16  C    0.576288
    17  O   -0.496586
    18  C    0.072496
    19  C   -0.199945
    20  C   -0.151235
    21  C    0.251682
    22  N   -0.655613
    23  C   -0.243582
    24  C    0.164788
    25  C   -0.178834
    26  C   -0.128175
    27  C   -0.126826
    28  C   -0.131042
    29  C   -0.183474
    30  S    1.214961
    31  C   -0.623165
    32  O   -0.518878
    33  O   -0.542965
    34  C   -0.120738
    35  C   -0.172740
    36  C   -0.197739
    37  C   -0.151146
    38  C   -0.230251
    39  H    0.159043
    40  H    0.170776
    41  H    0.156889
    42  H    0.121796
    43  H    0.130874
    44  H    0.140501
    45  H    0.359285
    46  H    0.173213
    47  H    0.200643
    48  H    0.337361
    49  H    0.137957
    50  H    0.143668
    51  H    0.158175
    52  H    0.204992
    53  H    0.122405
    54  H    0.131172
    55  H    0.133303
    56  H    0.137266
    57  H    0.168794
    58  H    0.204259
    59  H    0.218265
    60  H    0.208645
    61  H    0.187615
    62  H    0.175105
    63  H    0.134670
    64  H    0.186742
    65  H    0.120771
 Sum of Mulliken charges =  -0.00000

 Dipole moment (field-independent basis, Debye):
    X=             -1.4298    Y=              3.0195    Z=             -2.8850  Tot=              4.4142
 Quadrupole moment (field-independent basis, Debye-Ang):
   XX=           -265.0317   YY=           -232.1236   ZZ=           -227.3233
   XY=             28.7103   XZ=             33.3070   YZ=              7.4841

 Normal termination of Gaussian 16 at Sat Nov  5 09:46:38 2022.
