 Gaussian 16, Revision B.01,
 Gaussian 16:  ES64L-G16RevB.01 20-Dec-2017

 -----------------------------
 #p b3lyp/6-31g(d) opt SCF=XQC
 -----------------------------

 ------------------------------
 Gaussian input prepared by ASE
 ------------------------------
 Symbolic Z-matrix:
 Charge =  0 Multiplicity = 1

 SCF Done:  E(RB3LYP) =  -2419.86169933     A.U. after   15 cycles
 SCF Done:  E(RB3LYP) =  -2419.87874919     A.U. after   14 cycles
 SCF Done:  E(RB3LYP) =  -2419.88094543     A.U. after   13 cycles
 SCF Done:  E(RB3LYP) =  -2419.88195002     A.U. after   12 cycles
 SCF Done:  E(RB3LYP) =  -2419.88232728     A.U. after   12 cycles
 SCF Done:  E(RB3LYP) =  -2419.88263311     A.U. after   12 cycles
 SCF Done:  E(RB3LYP) =  -2419.88277351     A.U. after   12 cycles
 SCF Done:  E(RB3LYP) =  -2419.88285307     A.U. after   11 cycles
 SCF Done:  E(RB3LYP) =  -2419.88303736     A.U. after   12 cycles
 SCF Done:  E(RB3LYP) =  -2419.88328520     A.U. after   12 cycles
 SCF Done:  E(RB3LYP) =  -2419.88338020     A.U. after   10 cycles
 SCF Done:  E(RB3LYP) =  -2419.88338052     A.U. after    9 cycles
 SCF Done:  E(RB3LYP) =  -2419.88338085     A.U. after    8 cycles
 SCF Done:  E(RB3LYP) =  -2419.88338090     A.U. after    7 cycles
 SCF Done:  E(RB3LYP) =  -2419.88338092     A.U. after    6 cycles
 SCF Done:  E(RB3LYP) =  -2419.88338094     A.U. after    6 cycles
 SCF Done:  E(RB3LYP) =  -2419.88338096     A.U. after    7 cycles
 SCF Done:  E(RB3LYP) =  -2419.88338098     A.U. after    7 cycles
 SCF Done:  E(RB3LYP) =  -2419.88338100     A.U. after    7 cycles
 SCF Done:  E(RB3LYP) =  -2419.88338102     A.U. after    6 cycles
 Optimization completed.
    -- Stationary point found.

                         Standard orientation:
 ---------------------------------------------------------------------
 Center     Atomic      Atomic             Coordinates (Angstroms)
 Number     Number       Type             X           Y           Z
 ---------------------------------------------------------------------
      1          6           0       10.411590    2.927044    0.772830
      2          6           0        9.036574    2.452868    0.362112
      3          6           0        8.196766    3.262614   -0.412510
      4          6           0        6.943086    2.800225   -0.812471
      5          6           0        6.494970    1.535129   -0.439824
      6          6           0        7.329255    0.712813    0.325365
      7          7           0        6.891376   -0.564795    0.772601
      8         16           0        6.291928   -1.764294   -0.288939
      9          8           0        6.727335   -1.514872   -1.664519
     10          8           0        6.619635   -3.012133    0.408752
     11          6           0        4.520853   -1.521725   -0.238447
     12          6           0        3.826043   -1.675347    0.963584
     13          6           0        2.443387   -1.534857    0.998885
     14          6           0        1.745409   -1.247214   -0.189047
     15          7           0        0.349474   -1.105335   -0.247992
     16          6           0       -0.568900   -1.113284    0.788277
     17          8           0       -0.256925   -1.214180    1.967438
     18          6           0       -2.002584   -0.967349    0.362783
     19          6           0       -2.485553   -1.353511   -0.896530
     20          6           0       -3.835675   -1.209993   -1.205043
     21          6           0       -4.723825   -0.661738   -0.269238
     22          7           0       -6.093857   -0.494598   -0.662262
     23          6           0       -6.444887    0.700741   -1.479762
     24          6           0       -6.323077    2.028849   -0.759033
     25          6           0       -5.199276    2.840997   -0.951202
     26          6           0       -5.080209    4.063293   -0.286819
     27          6           0       -6.088293    4.485517    0.580280
     28          6           0       -7.215024    3.682895    0.777050
     29          6           0       -7.333476    2.463551    0.111160
     30         16           0       -7.314790   -1.241344    0.251776
     31          6           0       -7.145438   -2.966342   -0.246425
     32          8           0       -7.024749   -1.176131    1.687314
     33          8           0       -8.585728   -0.728179   -0.271637
     34          6           0       -4.245865   -0.275587    0.991352
     35          6           0       -2.900706   -0.447246    1.304155
     36          6           0        2.455782   -1.104615   -1.393307
     37          6           0        3.838355   -1.242013   -1.422852
     38          6           0        8.590892    1.175621    0.716671
     39          1           0       10.432034    4.012102    0.919677
     40          1           0       11.158652    2.688726    0.004135
     41          1           0       10.740096    2.452922    1.703699
     42          1           0        8.525802    4.257798   -0.701054
     43          1           0        6.296807    3.439263   -1.408293
     44          1           0        5.506522    1.194747   -0.728068
     45          1           0        7.538341   -1.032483    1.402974
     46          1           0        4.365017   -1.903353    1.877256
     47          1           0        1.898102   -1.639603    1.925494
     48          1           0       -0.016400   -0.880528   -1.162817
     49          1           0       -1.829315   -1.819264   -1.627443
     50          1           0       -4.216368   -1.531719   -2.170098
     51          1           0       -5.776334    0.680553   -2.346741
     52          1           0       -7.463220    0.544270   -1.837800
     53          1           0       -4.412744    2.516449   -1.629257
     54          1           0       -4.202514    4.683746   -0.447666
     55          1           0       -5.999144    5.436755    1.098182
     56          1           0       -8.005871    4.009541    1.446955
     57          1           0       -8.211903    1.842033    0.262352
     58          1           0       -7.365505   -3.046461   -1.311716
     59          1           0       -7.864842   -3.539027    0.343176
     60          1           0       -6.129457   -3.299660   -0.026648
     61          1           0       -4.932867    0.140597    1.717365
     62          1           0       -2.522102   -0.170049    2.282186
     63          1           0        1.919777   -0.888026   -2.314925
     64          1           0        4.390200   -1.137683   -2.350505
     65          1           0        9.236504    0.527605    1.307016
 ---------------------------------------------------------------------

 The electronic state is 1-A.
 Alpha  occ. eigenvalues --  -89.12219 -89.11422 -19.15232 -19.14944 -19.14560
 Alpha  occ. eigenvalues --  -19.14278 -19.13993 -14.39994 -14.38269 -14.37374
 Alpha  occ. eigenvalues --  -10.31658 -10.26397 -10.25583 -10.24177 -10.23693
 Alpha  occ. eigenvalues --  -10.23451 -10.22889 -10.22651 -10.22599 -10.22088
 Alpha  occ. eigenvalues --  -10.21961 -10.21778 -10.21700 -10.21400 -10.21177
 Alpha  occ. eigenvalues --  -10.20586 -10.20204 -10.20146 -10.19708 -10.19583
 Alpha  occ. eigenvalues --  -10.19514 -10.19383 -10.19241 -10.19156 -10.19112
 Alpha  occ. eigenvalues --  -10.18910 -10.18656 -10.18498  -8.14730  -8.13934
 Alpha  occ. eigenvalues --   -6.11245  -6.11143  -6.11021  -6.10452  -6.10343
 Alpha  occ. eigenvalues --   -6.10226  -1.11843  -1.11119  -1.05967  -1.00849
 Alpha  occ. eigenvalues --   -1.00249  -0.96532  -0.95583  -0.93652  -0.88048
 Alpha  occ. eigenvalues --   -0.87254  -0.85809  -0.84938  -0.79580  -0.79049
 Alpha  occ. eigenvalues --   -0.77738  -0.77384  -0.77205  -0.77133  -0.75659
 Alpha  occ. eigenvalues --   -0.74831  -0.74233  -0.70018  -0.69210  -0.68922
 Alpha  occ. eigenvalues --   -0.66248  -0.64857  -0.63845  -0.62626  -0.61427
 Alpha  occ. eigenvalues --   -0.61037  -0.60623  -0.59316  -0.58193  -0.57991
 Alpha  occ. eigenvalues --   -0.56804  -0.54665  -0.54144  -0.53030  -0.52722
 Alpha  occ. eigenvalues --   -0.52135  -0.50733  -0.49900  -0.49150  -0.49017
 Alpha  occ. eigenvalues --   -0.48275  -0.47620  -0.47170  -0.47128  -0.46684
 Alpha  occ. eigenvalues --   -0.46479  -0.45920  -0.45820  -0.45062  -0.44822
 Alpha  occ. eigenvalues --   -0.44753  -0.44397  -0.44221  -0.43633  -0.43527
 Alpha  occ. eigenvalues --   -0.42829  -0.42500  -0.42400  -0.42218  -0.41922
 Alpha  occ. eigenvalues --   -0.41285  -0.40514  -0.40281  -0.39678  -0.39029
 Alpha  occ. eigenvalues --   -0.38325  -0.37598  -0.37360  -0.37119  -0.36561
 Alpha  occ. eigenvalues --   -0.36394  -0.35915  -0.34929  -0.34736  -0.34557
 Alpha  occ. eigenvalues --   -0.33932  -0.33404  -0.32288  -0.32009  -0.31760
 Alpha  occ. eigenvalues --   -0.31320  -0.30985  -0.30651  -0.29864  -0.28600
 Alpha  occ. eigenvalues --   -0.27971  -0.27531  -0.27322  -0.26120  -0.25468
 Alpha  occ. eigenvalues --   -0.24839  -0.24634  -0.24281  -0.22302
 Alpha virt. eigenvalues --   -0.06791  -0.03167  -0.02999  -0.02346  -0.01302
 Alpha virt. eigenvalues --   -0.00547  -0.00247  -0.00222   0.03380   0.04947
 Alpha virt. eigenvalues --    0.05552   0.06426   0.06911   0.07626   0.08334

 Mulliken charges:
               1
     1  C   -0.530439
     2  C    0.173191
     3  C   -0.175983
     4  C   -0.140927
     5  C   -0.148207
     6  C    0.333347
     7  N   -0.812633
     8  S    1.223853
     9  O   -0.520912
    10  O   -0.542909
    11  C   -0.148043
    12  C   -0.139336
    13  C   -0.154802
    14  C    0.372210
    15  N   -0.739864
    16  C    0.576273
    17  O   -0.496587
    18  C    0.072494
    19  C   -0.199941
    20  C   -0.151231
    21  C    0.251706
    22  N   -0.655604
    23  C   -0.243591
    24  C    0.164788
    25  C   -0.178826
    26  C   -0.128174
    27  C   -0.126819
    28  C   -0.131054
    29  C   -0.183477
    30  S    1.214922
    31  C   -0.623171
    32  O   -0.518875
    33  O   -0.542951
    34  C   -0.120752
    35  C   -0.172734
    36  C   -0.197744
    37  C   -0.151135
    38  C   -0.230264
    39  H    0.159043
    40  H    0.170777
    41  H    0.156888
    42  H    0.121796
    43  H    0.130876
    44  H    0.140501
    45  H    0.359285
    46  H    0.173216
    47  H    0.200637
    48  H    0.337361
    49  H    0.137957
    50  H    0.143667
    51  H    0.158175
    52  H    0.204995
    53  H    0.122403
    54  H    0.131172
    55  H    0.133302
    56  H    0.137267
    57  H    0.168798
    58  H    0.204263
    59  H    0.218265
    60  H    0.208646
    61  H    0.187615
    62  H    0.175105
    63  H    0.134671
    64  H    0.186742
    65  H    0.120772
 Sum of Mulliken charges =  -0.00000

 Dipole moment (field-independent basis, Debye):
    X=             -1.6315    Y=              2.4276    Z=             -3.3060  Tot=              4.4142
 Quadrupole moment (field-independent basis, Debye-Ang):
   XX=           -263.7040   YY=           -226.5335   ZZ=           -232.1570
   XY=             33.5894   XZ=             28.9969   YZ=              5.3251

 Normal termination of Gaussian 16 at Fri Nov  4 22:30:05 2022.
