 Gaussian 16, Revision B.01,
 Gaussian 16:  ES64L-G16RevB.01 20-Dec-2017

 -------------------------------------------------------------------
 #p b3lyp/6-31g(d) 6D 10F nosymm GFInput td=(50-50,nstate=2) SCF=XQC
 -------------------------------------------------------------------

 ------------------------------
 Gaussian input prepared by ASE
 ------------------------------
 Symbolic Z-matrix:
 Charge =  0 Multiplicity = 1

                          Input orientation:
 ---------------------------------------------------------------------
 Center     Atomic      Atomic             Coordinates (Angstroms)
 Number     Number       Type             X           Y           Z
 ---------------------------------------------------------------------
      1          6           0        7.426697    0.441044   -0.259851
      2          6           0        6.111119   -0.172167   -0.681055
      3          6           0        4.914053    0.425393   -0.295542
      4          6           0        3.687550   -0.133168   -0.680700
      5          7           0        2.441330    0.372669   -0.353038
      6          6           0        1.494741   -0.362670   -0.854789
      7          7           0        0.147078   -0.031879   -0.648728
      8          6           0       -0.101262    1.220733    0.090815
      9          6           0       -0.228251    1.069581    1.596190
     10          6           0        0.092829   -0.102672    2.286244
     11          6           0       -0.038764   -0.120141    3.673537
     12          6           0       -0.482105    1.029185    4.325469
     13          6           0       -0.773219    2.149834    3.547098
     14          7           0       -0.655002    2.180568    2.215866
     15          6           0       -0.857567   -0.852888   -1.159255
     16          8           0       -0.569968   -1.841191   -1.834320
     17          6           0       -2.294130   -0.577009   -0.907398
     18          6           0       -3.326693   -1.328884   -1.512736
     19          6           0       -4.503715   -0.813361   -1.008925
     20          6           0       -5.910339   -1.240622   -1.296853
     21          7           0       -4.135331    0.191147   -0.142046
     22          6           0       -4.944306    1.129776    0.662531
     23          6           0       -5.882951    0.406076    1.634024
     24          6           0       -5.663823    2.155541   -0.222215
     25          7           0       -2.800663    0.342585   -0.077545
     26         16           0        2.016115   -1.782757   -1.796469
     27          6           0        3.676873   -1.305068   -1.460073
     28          6           0        4.869787   -1.914103   -1.852451
     29          6           0        6.090542   -1.356194   -1.469089
     30          6           0        7.381745   -2.015410   -1.895236
     31          1           0        8.027659   -0.254413    0.340809
     32          1           0        8.042038    0.721069   -1.125011
     33          1           0        7.265238    1.342668    0.338536
     34          1           0        4.914696    1.329637    0.306783
     35          1           0       -1.011589    1.678260   -0.288436
     36          1           0        0.740095    1.881593   -0.123308
     37          1           0        0.440794   -0.979362    1.751227
     38          1           0        0.205016   -1.018204    4.235267
     39          1           0       -0.597938    1.061354    5.404760
     40          1           0       -1.119757    3.070682    4.015140
     41          1           0       -3.210045   -2.139151   -2.216021
     42          1           0       -6.377380   -1.736945   -0.438278
     43          1           0       -6.554636   -0.404275   -1.587906
     44          1           0       -5.901477   -1.954828   -2.124467
     45          1           0       -4.182266    1.653238    1.245161
     46          1           0       -6.314871    1.135572    2.327535
     47          1           0       -6.712217   -0.089790    1.120389
     48          1           0       -5.337969   -0.340223    2.220493
     49          1           0       -6.450793    1.696622   -0.829911
     50          1           0       -6.133417    2.918535    0.408156
     51          1           0       -4.954261    2.652703   -0.890527
     52          1           0        4.857862   -2.819016   -2.454878
     53          1           0        7.990658   -2.316682   -1.032587
     54          1           0        8.004469   -1.341698   -2.498566
     55          1           0        7.187720   -2.911296   -2.492942
 ---------------------------------------------------------------------

 SCF Done:  E(RB3LYP) =  -1638.70717262     A.U. after   16 cycles

 Excitation energies and oscillator strengths:

 Excited state symmetry could not be determined.
 Excited State   1:      Triplet-?Sym    3.1086 eV  398.84 nm  f=0.0000  <S**2>=2.000
     110 ->112        -0.13090
     110 ->116        -0.16488
     111 ->112         0.58115
     111 ->114         0.16032
     111 ->115         0.22676
 This state for optimization and/or second-order correction.
 Total Energy, E(TD-HF/TD-DFT) =  -1638.59293212
 Copying the excited state density for this state as the 1-particle RhoCI density.

 Excited state symmetry could not be determined.
 Excited State   2:      Triplet-?Sym    3.7055 eV  334.59 nm  f=0.0000  <S**2>=2.000
     110 ->112         0.48167
     110 ->114         0.12147
     110 ->115         0.18033
     110 ->116         0.24884
     111 ->112         0.29286
     111 ->115        -0.10285

 Excited state symmetry could not be determined.
 Excited State   3:      Singlet-?Sym    4.0069 eV  309.43 nm  f=0.4636  <S**2>=0.000
     110 ->112         0.10321
     111 ->112         0.69155

 Excited state symmetry could not be determined.
 Excited State   4:      Singlet-?Sym    4.2478 eV  291.88 nm  f=0.0142  <S**2>=0.000
     110 ->112         0.68066
     111 ->112        -0.10747
     111 ->116         0.13960

 Alpha  occ. eigenvalues --  -88.89857 -19.12749 -14.41942 -14.39104 -14.35849
 Alpha  occ. eigenvalues --  -14.32049 -14.31836 -10.30295 -10.28011 -10.24687
 Alpha  occ. eigenvalues --  -10.23579 -10.22381 -10.21861 -10.21671 -10.21595
 Alpha  occ. eigenvalues --  -10.20761 -10.20603 -10.20194 -10.19990 -10.19684
 Alpha  occ. eigenvalues --  -10.19567 -10.19128 -10.18928 -10.18688 -10.18556
 Alpha  occ. eigenvalues --  -10.18420 -10.18292 -10.17743 -10.17612 -10.17511
 Alpha  occ. eigenvalues --   -7.95766  -5.92215  -5.91848  -5.91391  -1.05925
 Alpha  occ. eigenvalues --   -1.04778  -0.97722  -0.93603  -0.92037  -0.86200
 Alpha  occ. eigenvalues --   -0.84144  -0.81467  -0.79532  -0.78871  -0.77402
 Alpha  occ. eigenvalues --   -0.77181  -0.75411  -0.74063  -0.71801  -0.70824
 Alpha  occ. eigenvalues --   -0.70228  -0.68949  -0.67917  -0.64839  -0.63208
 Alpha  occ. eigenvalues --   -0.62397  -0.60663  -0.60003  -0.58231  -0.56098
 Alpha  occ. eigenvalues --   -0.55181  -0.52856  -0.51170  -0.50606  -0.50000
 Alpha  occ. eigenvalues --   -0.49082  -0.47667  -0.47078  -0.46773  -0.46081
 Alpha  occ. eigenvalues --   -0.45679  -0.45212  -0.44762  -0.44045  -0.43849
 Alpha  occ. eigenvalues --   -0.43646  -0.42610  -0.42479  -0.42344  -0.41800
 Alpha  occ. eigenvalues --   -0.41096  -0.40762  -0.40430  -0.40281  -0.39774
 Alpha  occ. eigenvalues --   -0.39173  -0.39081  -0.38679  -0.38397  -0.37979
 Alpha  occ. eigenvalues --   -0.37840  -0.37304  -0.36447  -0.36098  -0.35806
 Alpha  occ. eigenvalues --   -0.35417  -0.34053  -0.32725  -0.32285  -0.29527
 Alpha  occ. eigenvalues --   -0.28262  -0.27775  -0.27444  -0.26701  -0.26068
 Alpha  occ. eigenvalues --   -0.25651  -0.25099  -0.24738  -0.24347  -0.21463
 Alpha  occ. eigenvalues --   -0.20246
 Alpha virt. eigenvalues --   -0.03885  -0.01710  -0.00089   0.00349   0.01349
 Alpha virt. eigenvalues --    0.02557   0.04091   0.05604   0.06586   0.09539
 Alpha virt. eigenvalues --    0.10034   0.10349   0.10571   0.11382   0.11527

 Mulliken charges:
               1
     1  C   -0.532615
     2  C    0.116666
     3  C   -0.214840
     4  C    0.300476
     5  N   -0.552214
     6  C    0.306871
     7  N   -0.551746
     8  C   -0.206826
     9  C    0.322481
    10  C   -0.153748
    11  C   -0.106663
    12  C   -0.142974
    13  C    0.035730
    14  N   -0.475607
    15  C    0.611182
    16  O   -0.517316
    17  C    0.263784
    18  C   -0.292018
    19  C    0.388275
    20  C   -0.538332
    21  N   -0.294105
    22  C    0.026019
    23  C   -0.460359
    24  C   -0.452651
    25  N   -0.384736
    26  S    0.281253
    27  C   -0.138712
    28  C   -0.254958
    29  C    0.148039
    30  C   -0.533209
    31  H    0.156624
    32  H    0.157066
    33  H    0.156290
    34  H    0.129406
    35  H    0.202812
    36  H    0.211095
    37  H    0.147309
    38  H    0.141415
    39  H    0.132395
    40  H    0.134350
    41  H    0.158151
    42  H    0.176033
    43  H    0.170278
    44  H    0.178429
    45  H    0.189231
    46  H    0.159004
    47  H    0.153193
    48  H    0.168945
    49  H    0.151328
    50  H    0.157534
    51  H    0.171229
    52  H    0.131208
    53  H    0.157611
    54  H    0.158060
    55  H    0.153859
 Sum of Mulliken charges =  -0.00000

 Dipole moment (field-independent basis, Debye):
    X=             -4.6334    Y=              0.1807    Z=              2.0257  Tot=              5.0601
 Quadrupole moment (field-independent basis, Debye-Ang):
   XX=           -135.7128   YY=           -183.3074   ZZ=           -174.1005
   XY=             -4.2420   XZ=             -1.7925   YZ=             -1.1594

 Normal termination of Gaussian 16 at Sat Nov  5 09:41:08 2022.
