 Gaussian 16, Revision B.01,
 Gaussian 16:  ES64L-G16RevB.01 20-Dec-2017

 -----------------------------
 #p b3lyp/6-31g(d) opt SCF=XQC
 -----------------------------

 ------------------------------
 Gaussian input prepared by ASE
 ------------------------------
 Symbolic Z-matrix:
 Charge =  0 Multiplicity = 1

 SCF Done:  E(RB3LYP) =  -1638.67969007     A.U. after   16 cycles
 SCF Done:  E(RB3LYP) =  -1638.68747738     A.U. after   13 cycles
 SCF Done:  E(RB3LYP) =  -1638.68974714     A.U. after   13 cycles
 SCF Done:  E(RB3LYP) =  -1638.69099784     A.U. after   12 cycles
 SCF Done:  E(RB3LYP) =  -1638.69151029     A.U. after   12 cycles
 SCF Done:  E(RB3LYP) =  -1638.69272387     A.U. after   13 cycles
 SCF Done:  E(RB3LYP) =  -1638.69380464     A.U. after   15 cycles
 SCF Done:  E(RB3LYP) =  -1638.69417272     A.U. after   12 cycles
 SCF Done:  E(RB3LYP) =  -1638.69453477     A.U. after   13 cycles
 SCF Done:  E(RB3LYP) =  -1638.69462495     A.U. after   12 cycles
 SCF Done:  E(RB3LYP) =  -1638.70708927     A.U. after   13 cycles
 SCF Done:  E(RB3LYP) =  -1638.70710892     A.U. after   12 cycles
 SCF Done:  E(RB3LYP) =  -1638.70715364     A.U. after   12 cycles
 SCF Done:  E(RB3LYP) =  -1638.70715383     A.U. after   11 cycles
 SCF Done:  E(RB3LYP) =  -1638.70716443     A.U. after   10 cycles
 SCF Done:  E(RB3LYP) =  -1638.70717084     A.U. after   11 cycles
 SCF Done:  E(RB3LYP) =  -1638.70717109     A.U. after   10 cycles
 SCF Done:  E(RB3LYP) =  -1638.70717163     A.U. after    9 cycles
 SCF Done:  E(RB3LYP) =  -1638.70717177     A.U. after    9 cycles
 SCF Done:  E(RB3LYP) =  -1638.70717181     A.U. after    7 cycles
 Optimization completed.
    -- Stationary point found.

                         Standard orientation:
 ---------------------------------------------------------------------
 Center     Atomic      Atomic             Coordinates (Angstroms)
 Number     Number       Type             X           Y           Z
 ---------------------------------------------------------------------
      1          6           0        7.029415    1.474063   -0.811848
      2          6           0        5.871195    0.564927   -0.470992
      3          6           0        4.567887    0.973178   -0.741889
      4          6           0        3.485424    0.138620   -0.431348
      5          7           0        2.153176    0.442410   -0.652988
      6          6           0        1.383722   -0.528733   -0.261415
      7          7           0       -0.009674   -0.435112   -0.394687
      8          6           0       -0.510750    0.779616   -1.066248
      9          6           0       -0.830189    1.943603   -0.145259
     10          6           0       -0.469780    1.984156    1.204519
     11          6           0       -0.793296    3.116330    1.949989
     12          6           0       -1.460976    4.168826    1.326314
     13          6           0       -1.773166    4.033272   -0.026692
     14          7           0       -1.472340    2.952495   -0.753689
     15          6           0       -0.824497   -1.468043    0.066963
     16          8           0       -0.326141   -2.486488    0.546108
     17          6           0       -2.305030   -1.380355    0.007091
     18          6           0       -3.142273   -2.462790    0.361061
     19          6           0       -4.432651   -1.993342    0.221365
     20          6           0       -5.721808   -2.712402    0.476457
     21          7           0       -4.315674   -0.684648   -0.190771
     22          6           0       -5.338530    0.321181   -0.544160
     23          6           0       -6.310123    0.594974    0.608940
     24          6           0       -6.044992   -0.031079   -1.859264
     25          7           0       -3.032021   -0.307289   -0.325921
     26         16           0        2.202023   -1.948424    0.438657
     27          6           0        3.727851   -1.116095    0.158404
     28          6           0        5.029448   -1.536733    0.435600
     29          6           0        6.106597   -0.705077    0.124844
     30          6           0        7.515641   -1.161582    0.424124
     31          1           0        7.619422    1.734417    0.076812
     32          1           0        7.722323    1.003601   -1.521850
     33          1           0        6.676383    2.407102   -1.261146
     34          1           0        4.373232    1.940726   -1.196215
     35          1           0       -1.407071    0.526825   -1.627105
     36          1           0        0.265712    1.092025   -1.766230
     37          1           0        0.054477    1.151434    1.660193
     38          1           0       -0.524029    3.174778    3.001448
     39          1           0       -1.731454    5.070513    1.867724
     40          1           0       -2.291914    4.832532   -0.555081
     41          1           0       -2.829533   -3.445576    0.678984
     42          1           0       -6.241772   -2.330535    1.362702
     43          1           0       -6.415355   -2.648767   -0.368677
     44          1           0       -5.509051   -3.770459    0.650711
     45          1           0       -4.736047    1.218133   -0.707462
     46          1           0       -6.921383    1.470243    0.364110
     47          1           0       -6.991775   -0.242324    0.786904
     48          1           0       -5.766918    0.807147    1.535126
     49          1           0       -6.676272   -0.920740   -1.763291
     50          1           0       -6.688401    0.801308   -2.164554
     51          1           0       -5.313803   -0.208015   -2.653837
     52          1           0        5.213116   -2.506787    0.890779
     53          1           0        8.028411   -0.478521    1.114196
     54          1           0        8.130838   -1.209831   -0.484107
     55          1           0        7.518643   -2.156613    0.879553
 ---------------------------------------------------------------------

 The electronic state is 1-A.
 Alpha  occ. eigenvalues --  -88.89857 -19.12749 -14.41942 -14.39104 -14.35850
 Alpha  occ. eigenvalues --  -14.32049 -14.31835 -10.30295 -10.28011 -10.24687
 Alpha  occ. eigenvalues --  -10.23579 -10.22381 -10.21861 -10.21671 -10.21595
 Alpha  occ. eigenvalues --  -10.20761 -10.20603 -10.20194 -10.19989 -10.19684
 Alpha  occ. eigenvalues --  -10.19567 -10.19128 -10.18928 -10.18688 -10.18556
 Alpha  occ. eigenvalues --  -10.18421 -10.18292 -10.17743 -10.17612 -10.17511
 Alpha  occ. eigenvalues --   -7.95766  -5.92215  -5.91848  -5.91391  -1.05925
 Alpha  occ. eigenvalues --   -1.04778  -0.97722  -0.93603  -0.92037  -0.86200
 Alpha  occ. eigenvalues --   -0.84144  -0.81468  -0.79532  -0.78871  -0.77402
 Alpha  occ. eigenvalues --   -0.77181  -0.75411  -0.74063  -0.71801  -0.70824
 Alpha  occ. eigenvalues --   -0.70227  -0.68949  -0.67917  -0.64839  -0.63208
 Alpha  occ. eigenvalues --   -0.62397  -0.60663  -0.60003  -0.58231  -0.56098
 Alpha  occ. eigenvalues --   -0.55181  -0.52856  -0.51170  -0.50606  -0.50000
 Alpha  occ. eigenvalues --   -0.49082  -0.47668  -0.47078  -0.46773  -0.46081
 Alpha  occ. eigenvalues --   -0.45679  -0.45212  -0.44762  -0.44045  -0.43849
 Alpha  occ. eigenvalues --   -0.43646  -0.42610  -0.42479  -0.42344  -0.41800
 Alpha  occ. eigenvalues --   -0.41096  -0.40762  -0.40430  -0.40281  -0.39774
 Alpha  occ. eigenvalues --   -0.39173  -0.39081  -0.38679  -0.38397  -0.37979
 Alpha  occ. eigenvalues --   -0.37840  -0.37304  -0.36447  -0.36098  -0.35806
 Alpha  occ. eigenvalues --   -0.35417  -0.34053  -0.32725  -0.32285  -0.29528
 Alpha  occ. eigenvalues --   -0.28262  -0.27775  -0.27444  -0.26701  -0.26068
 Alpha  occ. eigenvalues --   -0.25650  -0.25099  -0.24738  -0.24347  -0.21463
 Alpha  occ. eigenvalues --   -0.20246
 Alpha virt. eigenvalues --   -0.03885  -0.01710  -0.00089   0.00349   0.01349
 Alpha virt. eigenvalues --    0.02557   0.04091   0.05604   0.06586   0.09539
 Alpha virt. eigenvalues --    0.10034   0.10349   0.10571   0.11382   0.11527

 Mulliken charges:
               1
     1  C   -0.532616
     2  C    0.116664
     3  C   -0.214844
     4  C    0.300492
     5  N   -0.552210
     6  C    0.306868
     7  N   -0.551733
     8  C   -0.206869
     9  C    0.322543
    10  C   -0.153734
    11  C   -0.106684
    12  C   -0.142952
    13  C    0.035710
    14  N   -0.475629
    15  C    0.611169
    16  O   -0.517315
    17  C    0.263802
    18  C   -0.292010
    19  C    0.388261
    20  C   -0.538331
    21  N   -0.294115
    22  C    0.026029
    23  C   -0.460354
    24  C   -0.452655
    25  N   -0.384756
    26  S    0.281261
    27  C   -0.138726
    28  C   -0.254963
    29  C    0.148047
    30  C   -0.533216
    31  H    0.156623
    32  H    0.157066
    33  H    0.156290
    34  H    0.129406
    35  H    0.202820
    36  H    0.211094
    37  H    0.147308
    38  H    0.141416
    39  H    0.132394
    40  H    0.134351
    41  H    0.158152
    42  H    0.176034
    43  H    0.170278
    44  H    0.178430
    45  H    0.189230
    46  H    0.159003
    47  H    0.153193
    48  H    0.168943
    49  H    0.151329
    50  H    0.157534
    51  H    0.171230
    52  H    0.131208
    53  H    0.157613
    54  H    0.158062
    55  H    0.153860
 Sum of Mulliken charges =  -0.00000

 Dipole moment (field-independent basis, Debye):
    X=             -4.8608    Y=              0.9401    Z=              1.0462  Tot=              5.0602
 Quadrupole moment (field-independent basis, Debye-Ang):
   XX=           -133.2843   YY=           -177.3559   ZZ=           -180.0273
   XY=              3.5421   XZ=              0.5681   YZ=              4.9400

 Normal termination of Gaussian 16 at Fri Nov  4 23:21:28 2022.
