 Gaussian 16, Revision B.01,
 Gaussian 16:  ES64L-G16RevB.01 20-Dec-2017

 -----------------------------
 #p b3lyp/6-31g(d) opt SCF=XQC
 -----------------------------

 ------------------------------
 Gaussian input prepared by ASE
 ------------------------------
 Symbolic Z-matrix:
 Charge =  0 Multiplicity = 1

 SCF Done:  E(RB3LYP) =  -1890.97736189     A.U. after   15 cycles
 SCF Done:  E(RB3LYP) =  -1890.98770423     A.U. after   13 cycles
 SCF Done:  E(RB3LYP) =  -1890.98939013     A.U. after   13 cycles
 SCF Done:  E(RB3LYP) =  -1890.98976143     A.U. after   12 cycles
 SCF Done:  E(RB3LYP) =  -1890.98991538     A.U. after   12 cycles
 SCF Done:  E(RB3LYP) =  -1890.99001658     A.U. after   12 cycles
 SCF Done:  E(RB3LYP) =  -1890.99005010     A.U. after   10 cycles
 SCF Done:  E(RB3LYP) =  -1890.99007290     A.U. after   10 cycles
 SCF Done:  E(RB3LYP) =  -1890.99009168     A.U. after   10 cycles
 SCF Done:  E(RB3LYP) =  -1890.99011418     A.U. after   11 cycles
 SCF Done:  E(RB3LYP) =  -1890.99013003     A.U. after   10 cycles
 SCF Done:  E(RB3LYP) =  -1890.99014180     A.U. after   10 cycles
 SCF Done:  E(RB3LYP) =  -1890.99015149     A.U. after   10 cycles
 SCF Done:  E(RB3LYP) =  -1890.99016059     A.U. after   10 cycles
 SCF Done:  E(RB3LYP) =  -1890.99016495     A.U. after   10 cycles
 SCF Done:  E(RB3LYP) =  -1890.99016584     A.U. after    8 cycles
 SCF Done:  E(RB3LYP) =  -1890.99016633     A.U. after    8 cycles
 SCF Done:  E(RB3LYP) =  -1890.99016646     A.U. after    7 cycles
 SCF Done:  E(RB3LYP) =  -1890.99016650     A.U. after    6 cycles
 SCF Done:  E(RB3LYP) =  -1890.99016651     A.U. after    6 cycles
 Optimization completed.
    -- Stationary point found.

                         Standard orientation:
 ---------------------------------------------------------------------
 Center     Atomic      Atomic             Coordinates (Angstroms)
 Number     Number       Type             X           Y           Z
 ---------------------------------------------------------------------
      1          6           0       -7.167200   -1.857566    2.875888
      2          8           0       -6.863810   -2.073769    1.508100
      3          6           0       -5.675091   -1.609114    1.036490
      4          6           0       -4.722862   -0.927826    1.790635
      5          6           0       -3.527891   -0.488931    1.207467
      6          6           0       -3.277206   -0.714708   -0.146692
      7          6           0       -2.026519   -0.323479   -0.816725
      8          7           0       -1.395432   -1.104793   -1.674257
      9          7           0       -0.292383   -0.426766   -2.128144
     10          6           0       -0.271930    0.741388   -1.525084
     11         16           0        0.999341    1.950432   -1.781421
     12          6           0        2.428054    0.814138   -1.827272
     13          6           0        2.848473    0.298961   -0.438281
     14          8           0        2.251011    0.618641    0.583614
     15          7           0        3.934991   -0.536538   -0.408811
     16          6           0        4.677310   -1.039931   -1.561337
     17          6           0        6.148114   -0.625113   -1.454958
     18          6           0        6.725655   -0.984983   -0.100904
     19          6           0        8.110115   -1.119195    0.071756
     20          6           0        8.653052   -1.444783    1.311526
     21          6           0        7.806116   -1.646620    2.404601
     22          6           0        6.429636   -1.517775    2.242640
     23          6           0        5.876836   -1.184571    0.998840
     24          6           0        4.367213   -1.073299    0.880568
     25          7           0       -1.349763    0.877088   -0.679398
     26          6           0       -1.758804    2.057367    0.108672
     27          6           0       -1.935114    3.317070   -0.755645
     28          6           0       -2.619177    4.432501    0.068952
     29          6           0       -2.167330    4.440986    1.553214
     30          6           0       -0.786053    3.792977    1.721412
     31          6           0       -0.811105    2.305018    1.312727
     32          6           0       -4.234035   -1.417053   -0.908401
     33          6           0       -5.417674   -1.865941   -0.336645
     34          8           0       -6.392947   -2.548579   -0.996614
     35          6           0       -6.174124   -2.860784   -2.363732
     36          1           0       -8.151292   -2.301582    3.036160
     37          1           0       -6.436654   -2.346528    3.534232
     38          1           0       -7.208290   -0.786675    3.116685
     39          1           0       -4.892923   -0.744875    2.845298
     40          1           0       -2.783751   -0.008172    1.834157
     41          1           0        3.238357    1.379867   -2.299143
     42          1           0        2.157066   -0.014710   -2.485560
     43          1           0        4.237095   -0.670445   -2.486624
     44          1           0        4.598005   -2.136775   -1.580903
     45          1           0        6.223902    0.459300   -1.620795
     46          1           0        6.725462   -1.105968   -2.254712
     47          1           0        8.765992   -0.967786   -0.783251
     48          1           0        9.729017   -1.545636    1.425124
     49          1           0        8.217272   -1.901660    3.377565
     50          1           0        5.768224   -1.674081    3.092609
     51          1           0        3.960448   -0.418360    1.653681
     52          1           0        3.910272   -2.064379    1.035976
     53          1           0       -2.751804    1.796718    0.481728
     54          1           0       -2.529786    3.078941   -1.644743
     55          1           0       -0.959141    3.666294   -1.109106
     56          1           0       -3.708575    4.313826    0.016688
     57          1           0       -2.393068    5.397872   -0.399036
     58          1           0       -2.892483    3.887958    2.166547
     59          1           0       -2.163982    5.467069    1.939135
     60          1           0       -0.439758    3.882869    2.757672
     61          1           0       -0.053674    4.332594    1.106472
     62          1           0        0.198266    1.960589    1.071713
     63          1           0       -1.156128    1.693899    2.157488
     64          1           0       -4.013857   -1.608703   -1.950734
     65          1           0       -6.073494   -1.953424   -2.973997
     66          1           0       -5.280288   -3.483804   -2.496990
     67          1           0       -7.056547   -3.416840   -2.685415
 ---------------------------------------------------------------------

 The electronic state is 1-A.
 Alpha  occ. eigenvalues --  -88.88825 -19.17743 -19.17292 -19.11431 -14.39118
 Alpha  occ. eigenvalues --  -14.36789 -14.32674 -14.32369 -10.29132 -10.25582
 Alpha  occ. eigenvalues --  -10.24671 -10.24407 -10.24066 -10.23846 -10.23469
 Alpha  occ. eigenvalues --  -10.23449 -10.23181 -10.22676 -10.22328 -10.20175
 Alpha  occ. eigenvalues --  -10.20131 -10.20066 -10.19855 -10.19185 -10.19152
 Alpha  occ. eigenvalues --  -10.19121 -10.19089 -10.18906 -10.18853 -10.18574
 Alpha  occ. eigenvalues --  -10.18423 -10.18414 -10.18044 -10.17776 -10.17519
 Alpha  occ. eigenvalues --   -7.94858  -5.91414  -5.91013  -5.90289  -1.07216
 Alpha  occ. eigenvalues --   -1.05197  -1.04528  -1.03525  -0.94352  -0.91392
 Alpha  occ. eigenvalues --   -0.85940  -0.85590  -0.82547  -0.82329  -0.79299
 Alpha  occ. eigenvalues --   -0.78709  -0.77046  -0.75671  -0.74325  -0.74042
 Alpha  occ. eigenvalues --   -0.73781  -0.73670  -0.70739  -0.69996  -0.69146
 Alpha  occ. eigenvalues --   -0.66237  -0.65232  -0.63534  -0.61991  -0.61439
 Alpha  occ. eigenvalues --   -0.60613  -0.60053  -0.58912  -0.57672  -0.56149
 Alpha  occ. eigenvalues --   -0.54251  -0.53779  -0.52709  -0.51652  -0.51469
 Alpha  occ. eigenvalues --   -0.49612  -0.49538  -0.49366  -0.48833  -0.48542
 Alpha  occ. eigenvalues --   -0.47752  -0.47204  -0.46100  -0.45862  -0.45847
 Alpha  occ. eigenvalues --   -0.45070  -0.44994  -0.44777  -0.44172  -0.43792
 Alpha  occ. eigenvalues --   -0.43244  -0.43019  -0.42720  -0.41571  -0.41365
 Alpha  occ. eigenvalues --   -0.40916  -0.40553  -0.40050  -0.39451  -0.39130
 Alpha  occ. eigenvalues --   -0.38653  -0.38429  -0.38016  -0.37632  -0.37077
 Alpha  occ. eigenvalues --   -0.36768  -0.36625  -0.36011  -0.35419  -0.34888
 Alpha  occ. eigenvalues --   -0.34253  -0.33820  -0.33611  -0.33280  -0.32610
 Alpha  occ. eigenvalues --   -0.32259  -0.32024  -0.31523  -0.31198  -0.30199
 Alpha  occ. eigenvalues --   -0.29324  -0.27212  -0.26778  -0.25524  -0.25153
 Alpha  occ. eigenvalues --   -0.24297  -0.24198  -0.23778  -0.23641  -0.21683
 Alpha  occ. eigenvalues --   -0.19565
 Alpha virt. eigenvalues --   -0.01027  -0.00772  -0.00160   0.00960   0.01531
 Alpha virt. eigenvalues --    0.02506   0.05189   0.06345   0.07534   0.08057
 Alpha virt. eigenvalues --    0.08760   0.09504   0.09667   0.10528   0.10635

 Mulliken charges:
               1
     1  C   -0.215445
     2  O   -0.495277
     3  C    0.345236
     4  C   -0.215225
     5  C   -0.190498
     6  C    0.113918
     7  C    0.391188
     8  N   -0.360993
     9  N   -0.329893
    10  C    0.261284
    11  S    0.171952
    12  C   -0.564606
    13  C    0.621416
    14  O   -0.499691
    15  N   -0.435929
    16  C   -0.167674
    17  C   -0.335585
    18  C    0.125012
    19  C   -0.190010
    20  C   -0.127389
    21  C   -0.130907
    22  C   -0.178808
    23  C    0.090959
    24  C   -0.198841
    25  N   -0.477945
    26  C    0.011575
    27  C   -0.292172
    28  C   -0.270606
    29  C   -0.267840
    30  C   -0.271030
    31  C   -0.304056
    32  C   -0.240829
    33  C    0.338751
    34  O   -0.501913
    35  C   -0.218318
    36  H    0.172230
    37  H    0.152841
    38  H    0.150418
    39  H    0.134257
    40  H    0.142888
    41  H    0.190337
    42  H    0.242693
    43  H    0.162813
    44  H    0.163614
    45  H    0.159545
    46  H    0.151507
    47  H    0.123658
    48  H    0.130067
    49  H    0.131158
    50  H    0.128500
    51  H    0.202675
    52  H    0.166573
    53  H    0.158484
    54  H    0.148984
    55  H    0.167616
    56  H    0.139291
    57  H    0.140644
    58  H    0.131810
    59  H    0.136069
    60  H    0.137211
    61  H    0.144110
    62  H    0.219932
    63  H    0.135303
    64  H    0.161241
    65  H    0.152788
    66  H    0.161873
    67  H    0.169058
 Sum of Mulliken charges =  -0.00000

 Dipole moment (field-independent basis, Debye):
    X=              1.3885    Y=              1.2850    Z=              1.5406  Tot=              2.4398
 Quadrupole moment (field-independent basis, Debye-Ang):
   XX=           -175.4354   YY=           -210.8880   ZZ=           -198.4654
   XY=             -7.5856   XZ=            -13.7702   YZ=             -2.1856

 Normal termination of Gaussian 16 at Fri Nov  4 22:20:12 2022.
