 Gaussian 16, Revision B.01,
 Gaussian 16:  ES64L-G16RevB.01 20-Dec-2017

 -------------------------------------------------------------------
 #p b3lyp/6-31g(d) 6D 10F nosymm GFInput td=(50-50,nstate=2) SCF=XQC
 -------------------------------------------------------------------

 ------------------------------
 Gaussian input prepared by ASE
 ------------------------------
 Symbolic Z-matrix:
 Charge =  0 Multiplicity = 1

                          Input orientation:
 ---------------------------------------------------------------------
 Center     Atomic      Atomic             Coordinates (Angstroms)
 Number     Number       Type             X           Y           Z
 ---------------------------------------------------------------------
      1          6           0       -6.926826    2.797033   -2.622142
      2          8           0       -6.669760    2.771954   -1.228255
      3          6           0       -5.526732    2.170428   -0.800438
      4          6           0       -4.579919    1.566823   -1.624350
      5          6           0       -3.433965    0.972309   -1.082121
      6          6           0       -3.228440    0.961860    0.298175
      7          6           0       -2.028067    0.397116    0.935663
      8          7           0       -1.394170    0.992562    1.929496
      9          7           0       -0.346732    0.188545    2.302165
     10          6           0       -0.360678   -0.866160    1.517254
     11         16           0        0.835831   -2.171022    1.613818
     12          6           0        2.317289   -1.140130    1.891362
     13          6           0        2.820503   -0.432192    0.619727
     14          8           0        2.250415   -0.548191   -0.459611
     15          7           0        3.948343    0.333961    0.762675
     16          6           0        4.666897    0.601635    2.005571
     17          6           0        6.117875    0.126495    1.880831
     18          6           0        6.768538    0.666844    0.623380
     19          6           0        8.163990    0.748242    0.520219
     20          6           0        8.773649    1.238330   -0.631279
     21          6           0        7.984061    1.661827   -1.703685
     22          6           0        6.597288    1.586990   -1.609935
     23          6           0        5.977234    1.089309   -0.456030
     24          6           0        4.460306    1.046410   -0.406828
     25          7           0       -1.408058   -0.802034    0.626070
     26          6           0       -1.843528   -1.814395   -0.357249
     27          6           0       -2.119242   -3.185034    0.283305
     28          6           0       -2.824336   -4.111971   -0.734398
     29          6           0       -2.312413   -3.906371   -2.184548
     30          6           0       -0.894225   -3.319299   -2.199424
     31          6           0       -0.860572   -1.917864   -1.554040
     32          6           0       -4.179088    1.585251    1.132838
     33          6           0       -5.313699    2.187124    0.603864
     34          8           0       -6.279538    2.808575    1.334387
     35          6           0       -6.101955    2.882996    2.740550
     36          1           0       -7.879611    3.316322   -2.739678
     37          1           0       -6.145745    3.343541   -3.167525
     38          1           0       -7.012247    1.783164   -3.035966
     39          1           0       -4.715222    1.566526   -2.699710
     40          1           0       -2.689885    0.557525   -1.754367
     41          1           0        3.077570   -1.819765    2.290575
     42          1           0        2.061716   -0.414396    2.667094
     43          1           0        4.170536    0.113233    2.843160
     44          1           0        4.642664    1.683639    2.201576
     45          1           0        6.131551   -0.972997    1.869552
     46          1           0        6.685280    0.438301    2.766827
     47          1           0        8.775352    0.423730    1.359900
     48          1           0        9.857129    1.294864   -0.691717
     49          1           0        8.447588    2.046822   -2.607939
     50          1           0        5.980443    1.915829   -2.444029
     51          1           0        4.053172    0.549090   -1.289450
     52          1           0        4.061124    2.073932   -0.412951
     53          1           0       -2.805701   -1.440904   -0.714858
     54          1           0       -2.737367   -3.060165    1.179500
     55          1           0       -1.177746   -3.641660    0.606559
     56          1           0       -3.907528   -3.941550   -0.698988
     57          1           0       -2.667131   -5.151509   -0.423392
     58          1           0       -2.982512   -3.221250   -2.722543
     59          1           0       -2.345205   -4.855189   -2.732692
     60          1           0       -0.510318   -3.260238   -3.224589
     61          1           0       -0.216299   -3.991878   -1.657416
     62          1           0        0.154140   -1.674818   -1.227181
     63          1           0       -1.138823   -1.159754   -2.298335
     64          1           0       -3.992823    1.593260    2.199097
     65          1           0       -6.072905    1.884773    3.197234
     66          1           0       -5.183914    3.424487    3.002933
     67          1           0       -6.967560    3.429074    3.119856
 ---------------------------------------------------------------------

 SCF Done:  E(RB3LYP) =  -1890.99016556     A.U. after   15 cycles

 Excitation energies and oscillator strengths:

 Excited state symmetry could not be determined.
 Excited State   1:      Triplet-?Sym    3.2840 eV  377.53 nm  f=0.0000  <S**2>=2.000
     129 ->135        -0.13217
     130 ->135        -0.12715
     131 ->132         0.61878
     131 ->135         0.11404
     131 ->136         0.10288
 This state for optimization and/or second-order correction.
 Total Energy, E(TD-HF/TD-DFT) =  -1890.86947906
 Copying the excited state density for this state as the 1-particle RhoCI density.

 Excited state symmetry could not be determined.
 Excited State   2:      Triplet-?Sym    3.9862 eV  311.03 nm  f=0.0000  <S**2>=2.000
     129 ->135        -0.12596
     130 ->135        -0.32448
     131 ->132        -0.20871
     131 ->135         0.56322

 Excited state symmetry could not be determined.
 Excited State   3:      Singlet-?Sym    4.5920 eV  270.00 nm  f=0.4675  <S**2>=0.000
     131 ->132         0.65895
     131 ->135        -0.14249
     131 ->136        -0.10531

 Excited state symmetry could not be determined.
 Excited State   4:      Singlet-?Sym    4.7880 eV  258.95 nm  f=0.0218  <S**2>=0.000
     127 ->132         0.13244
     129 ->132         0.14815
     130 ->132         0.43984
     131 ->135         0.47028
     131 ->136        -0.10039

 Alpha  occ. eigenvalues --  -88.88825 -19.17743 -19.17292 -19.11431 -14.39118
 Alpha  occ. eigenvalues --  -14.36789 -14.32674 -14.32369 -10.29132 -10.25582
 Alpha  occ. eigenvalues --  -10.24671 -10.24407 -10.24066 -10.23846 -10.23469
 Alpha  occ. eigenvalues --  -10.23449 -10.23181 -10.22676 -10.22328 -10.20175
 Alpha  occ. eigenvalues --  -10.20131 -10.20066 -10.19855 -10.19185 -10.19152
 Alpha  occ. eigenvalues --  -10.19121 -10.19089 -10.18906 -10.18853 -10.18574
 Alpha  occ. eigenvalues --  -10.18423 -10.18414 -10.18044 -10.17776 -10.17520
 Alpha  occ. eigenvalues --   -7.94858  -5.91413  -5.91012  -5.90288  -1.07216
 Alpha  occ. eigenvalues --   -1.05197  -1.04528  -1.03525  -0.94352  -0.91392
 Alpha  occ. eigenvalues --   -0.85940  -0.85590  -0.82546  -0.82330  -0.79299
 Alpha  occ. eigenvalues --   -0.78709  -0.77046  -0.75671  -0.74325  -0.74042
 Alpha  occ. eigenvalues --   -0.73781  -0.73670  -0.70739  -0.69996  -0.69146
 Alpha  occ. eigenvalues --   -0.66237  -0.65232  -0.63535  -0.61991  -0.61440
 Alpha  occ. eigenvalues --   -0.60613  -0.60053  -0.58912  -0.57672  -0.56149
 Alpha  occ. eigenvalues --   -0.54251  -0.53779  -0.52709  -0.51652  -0.51469
 Alpha  occ. eigenvalues --   -0.49612  -0.49538  -0.49366  -0.48833  -0.48543
 Alpha  occ. eigenvalues --   -0.47752  -0.47204  -0.46100  -0.45862  -0.45847
 Alpha  occ. eigenvalues --   -0.45070  -0.44994  -0.44777  -0.44172  -0.43792
 Alpha  occ. eigenvalues --   -0.43244  -0.43019  -0.42720  -0.41571  -0.41365
 Alpha  occ. eigenvalues --   -0.40916  -0.40553  -0.40050  -0.39451  -0.39130
 Alpha  occ. eigenvalues --   -0.38653  -0.38429  -0.38016  -0.37632  -0.37077
 Alpha  occ. eigenvalues --   -0.36768  -0.36625  -0.36011  -0.35419  -0.34888
 Alpha  occ. eigenvalues --   -0.34253  -0.33820  -0.33611  -0.33280  -0.32610
 Alpha  occ. eigenvalues --   -0.32259  -0.32024  -0.31523  -0.31198  -0.30199
 Alpha  occ. eigenvalues --   -0.29323  -0.27212  -0.26778  -0.25524  -0.25153
 Alpha  occ. eigenvalues --   -0.24297  -0.24198  -0.23778  -0.23641  -0.21683
 Alpha  occ. eigenvalues --   -0.19565
 Alpha virt. eigenvalues --   -0.01027  -0.00772  -0.00160   0.00960   0.01531
 Alpha virt. eigenvalues --    0.02506   0.05189   0.06345   0.07534   0.08057
 Alpha virt. eigenvalues --    0.08760   0.09504   0.09667   0.10528   0.10634

 Mulliken charges:
               1
     1  C   -0.215449
     2  O   -0.495275
     3  C    0.345245
     4  C   -0.215232
     5  C   -0.190502
     6  C    0.113951
     7  C    0.391169
     8  N   -0.360989
     9  N   -0.329901
    10  C    0.261315
    11  S    0.171964
    12  C   -0.564607
    13  C    0.621396
    14  O   -0.499690
    15  N   -0.435932
    16  C   -0.167643
    17  C   -0.335591
    18  C    0.124994
    19  C   -0.190014
    20  C   -0.127388
    21  C   -0.130905
    22  C   -0.178807
    23  C    0.090972
    24  C   -0.198830
    25  N   -0.477958
    26  C    0.011488
    27  C   -0.292140
    28  C   -0.270605
    29  C   -0.267815
    30  C   -0.271044
    31  C   -0.304032
    32  C   -0.240840
    33  C    0.338751
    34  O   -0.501912
    35  C   -0.218319
    36  H    0.172230
    37  H    0.152840
    38  H    0.150420
    39  H    0.134256
    40  H    0.142885
    41  H    0.190336
    42  H    0.242694
    43  H    0.162810
    44  H    0.163610
    45  H    0.159543
    46  H    0.151507
    47  H    0.123658
    48  H    0.130067
    49  H    0.131158
    50  H    0.128499
    51  H    0.202672
    52  H    0.166572
    53  H    0.158496
    54  H    0.148983
    55  H    0.167613
    56  H    0.139290
    57  H    0.140644
    58  H    0.131807
    59  H    0.136066
    60  H    0.137211
    61  H    0.144110
    62  H    0.219932
    63  H    0.135305
    64  H    0.161241
    65  H    0.152789
    66  H    0.161873
    67  H    0.169058
 Sum of Mulliken charges =  -0.00000

 Dipole moment (field-independent basis, Debye):
    X=              1.3841    Y=             -1.0963    Z=             -1.6839  Tot=              2.4399
 Quadrupole moment (field-independent basis, Debye-Ang):
   XX=           -175.8950   YY=           -210.5598   ZZ=           -198.9948
   XY=              3.5475   XZ=             15.5103   YZ=             -5.0976

 Normal termination of Gaussian 16 at Sat Nov  5 09:59:50 2022.
