 Gaussian 16, Revision B.01,
 Gaussian 16:  ES64L-G16RevB.01 20-Dec-2017

 -------------------------------------------------------------------
 #p b3lyp/6-31g(d) 6D 10F nosymm GFInput td=(50-50,nstate=2) SCF=XQC
 -------------------------------------------------------------------

 ------------------------------
 Gaussian input prepared by ASE
 ------------------------------
 Symbolic Z-matrix:
 Charge =  0 Multiplicity = 1

                          Input orientation:
 ---------------------------------------------------------------------
 Center     Atomic      Atomic             Coordinates (Angstroms)
 Number     Number       Type             X           Y           Z
 ---------------------------------------------------------------------
      1          6           0        8.098757   -2.557425   -0.502104
      2         16           0        6.567745   -2.967766    0.373731
      3          8           0        6.851016   -2.900265    1.815354
      4          8           0        6.018316   -4.186089   -0.241334
      5          6           0        5.464108   -1.600729   -0.035943
      6          6           0        4.617870   -1.717223   -1.138666
      7          6           0        3.765440   -0.659394   -1.452265
      8          6           0        3.758931    0.503630   -0.669513
      9          6           0        2.874342    1.690081   -0.957847
     10          8           0        3.181994    2.816598   -0.575467
     11          7           0        1.736588    1.429385   -1.671529
     12          6           0        0.751422    2.474430   -1.960730
     13          6           0       -0.395570    2.519603   -0.968011
     14          6           0       -0.183619    2.994365    0.336306
     15          6           0       -1.234314    3.015559    1.249628
     16          6           0       -2.503887    2.565851    0.873998
     17          6           0       -2.735907    2.102221   -0.422994
     18          6           0       -4.122094    1.666086   -0.862129
     19          8           0       -4.119175    0.497286   -1.677714
     20          6           0       -3.845854   -0.707404   -0.966308
     21          6           0       -4.987188   -1.160993   -0.074357
     22          6           0       -6.311037   -1.088664   -0.528640
     23          6           0       -7.359698   -1.542013    0.270371
     24          6           0       -7.098786   -2.079677    1.533783
     25          6           0       -5.784144   -2.154072    1.994808
     26          6           0       -4.736351   -1.690864    1.195660
     27          6           0       -1.669881    2.081233   -1.333425
     28          6           0        4.625082    0.603291    0.427806
     29          6           0        5.472338   -0.450680    0.756939
     30          1           0        8.482512   -1.605019   -0.131396
     31          1           0        8.802895   -3.363220   -0.279521
     32          1           0        7.899813   -2.512431   -1.574568
     33          1           0        4.622387   -2.627301   -1.729521
     34          1           0        3.127495   -0.736913   -2.327975
     35          1           0        1.417391    0.471436   -1.721747
     36          1           0        1.304733    3.416102   -1.956727
     37          1           0        0.367278    2.308297   -2.973079
     38          1           0        0.805536    3.341669    0.621958
     39          1           0       -1.066646    3.380239    2.259660
     40          1           0       -3.319087    2.579377    1.594293
     41          1           0       -4.771115    1.529594    0.014501
     42          1           0       -4.578199    2.439849   -1.490919
     43          1           0       -3.660611   -1.452003   -1.749680
     44          1           0       -2.921847   -0.611875   -0.377398
     45          1           0       -6.510042   -0.664881   -1.509145
     46          1           0       -8.382300   -1.478509   -0.092815
     47          1           0       -7.916445   -2.434831    2.155399
     48          1           0       -5.573071   -2.563980    2.979080
     49          1           0       -3.713346   -1.742183    1.563040
     50          1           0       -1.849954    1.710058   -2.340110
     51          1           0        4.615205    1.516886    1.012467
     52          1           0        6.120975   -0.396724    1.625355
 ---------------------------------------------------------------------

 SCF Done:  E(RB3LYP) =  -1644.08344428     A.U. after   15 cycles

 Excitation energies and oscillator strengths:

 Excited state symmetry could not be determined.
 Excited State   1:      Triplet-?Sym    3.5201 eV  352.22 nm  f=0.0000  <S**2>=2.000
      99 ->109         0.19692
     100 ->109        -0.36872
     101 ->110        -0.32522
     102 ->109        -0.32042
     104 ->109         0.26878
 This state for optimization and/or second-order correction.
 Total Energy, E(TD-HF/TD-DFT) =  -1643.95408314
 Copying the excited state density for this state as the 1-particle RhoCI density.

 Excited state symmetry could not be determined.
 Excited State   2:      Triplet-?Sym    3.6817 eV  336.75 nm  f=0.0000  <S**2>=2.000
     105 ->112        -0.33833
     105 ->113         0.19920
     106 ->112         0.13374
     107 ->111        -0.33346
     108 ->111         0.37163

 Excited state symmetry could not be determined.
 Excited State   3:      Singlet-?Sym    4.2593 eV  291.09 nm  f=0.0096  <S**2>=0.000
     100 ->109         0.14146
     102 ->109        -0.18046
     103 ->109         0.11887
     104 ->109         0.53266
     105 ->109        -0.23879
     107 ->109        -0.15636
     108 ->109         0.18005

 Excited state symmetry could not be determined.
 Excited State   4:      Singlet-?Sym    4.4296 eV  279.90 nm  f=0.0191  <S**2>=0.000
     104 ->109        -0.22419
     107 ->109        -0.40815
     108 ->109         0.51914

 Alpha  occ. eigenvalues --  -89.09798 -19.15516 -19.14096 -19.14064 -19.12564
 Alpha  occ. eigenvalues --  -14.37418 -10.30222 -10.23815 -10.23709 -10.23707
 Alpha  occ. eigenvalues --  -10.23307 -10.23000 -10.22711 -10.22527 -10.22441
 Alpha  occ. eigenvalues --  -10.22308 -10.21645 -10.20216 -10.19898 -10.19588
 Alpha  occ. eigenvalues --  -10.19470 -10.19415 -10.19297 -10.19224 -10.19174
 Alpha  occ. eigenvalues --  -10.19157 -10.19106 -10.19084 -10.18860  -8.12685
 Alpha  occ. eigenvalues --   -6.09101  -6.09056  -6.09019  -1.09906  -1.04412
 Alpha  occ. eigenvalues --   -1.03467  -0.99641  -0.93460  -0.88797  -0.86070
 Alpha  occ. eigenvalues --   -0.85421  -0.80478  -0.78390  -0.77642  -0.77242
 Alpha  occ. eigenvalues --   -0.76480  -0.75556  -0.74451  -0.70887  -0.70028
 Alpha  occ. eigenvalues --   -0.66869  -0.65181  -0.63692  -0.61384  -0.60634
 Alpha  occ. eigenvalues --   -0.60117  -0.59107  -0.58836  -0.57484  -0.55685
 Alpha  occ. eigenvalues --   -0.52363  -0.51778  -0.50867  -0.49592  -0.49290
 Alpha  occ. eigenvalues --   -0.48638  -0.48229  -0.47468  -0.46927  -0.46841
 Alpha  occ. eigenvalues --   -0.46369  -0.46162  -0.45251  -0.44982  -0.44632
 Alpha  occ. eigenvalues --   -0.43858  -0.43607  -0.43045  -0.42779  -0.42581
 Alpha  occ. eigenvalues --   -0.41991  -0.41110  -0.40632  -0.39928  -0.39783
 Alpha  occ. eigenvalues --   -0.39197  -0.38125  -0.37210  -0.36421  -0.35840
 Alpha  occ. eigenvalues --   -0.35568  -0.35181  -0.34679  -0.34212  -0.32857
 Alpha  occ. eigenvalues --   -0.31573  -0.31078  -0.29963  -0.29378  -0.28313
 Alpha  occ. eigenvalues --   -0.28089  -0.27486  -0.26716  -0.26007  -0.25202
 Alpha  occ. eigenvalues --   -0.25131  -0.24629  -0.24517
 Alpha virt. eigenvalues --   -0.06536  -0.03124  -0.01326  -0.00965  -0.00504
 Alpha virt. eigenvalues --   -0.00179   0.02977   0.05818   0.07550   0.08497
 Alpha virt. eigenvalues --    0.09290   0.09428   0.09905   0.10178   0.10442

 Mulliken charges:
               1
     1  C   -0.622202
     2  S    1.100012
     3  O   -0.536201
     4  O   -0.538159
     5  C   -0.153584
     6  C   -0.148284
     7  C   -0.177419
     8  C    0.075023
     9  C    0.571698
    10  O   -0.524763
    11  N   -0.596180
    12  C   -0.232820
    13  C    0.160206
    14  C   -0.181629
    15  C   -0.129366
    16  C   -0.183190
    17  C    0.127897
    18  C   -0.108314
    19  O   -0.466460
    20  C   -0.106847
    21  C    0.122966
    22  C   -0.167872
    23  C   -0.129684
    24  C   -0.128790
    25  C   -0.128295
    26  C   -0.183221
    27  C   -0.233135
    28  C   -0.148791
    29  C   -0.150247
    30  H    0.202832
    31  H    0.220665
    32  H    0.201462
    33  H    0.183343
    34  H    0.145739
    35  H    0.328366
    36  H    0.198624
    37  H    0.156688
    38  H    0.160693
    39  H    0.134851
    40  H    0.129896
    41  H    0.144286
    42  H    0.160255
    43  H    0.157997
    44  H    0.137214
    45  H    0.141282
    46  H    0.131018
    47  H    0.130516
    48  H    0.131272
    49  H    0.126782
    50  H    0.134736
    51  H    0.175683
    52  H    0.183447
 Sum of Mulliken charges =  -0.00000

 Dipole moment (field-independent basis, Debye):
    X=             -1.2628    Y=              1.3853    Z=             -2.2959  Tot=              2.9639
 Quadrupole moment (field-independent basis, Debye-Ang):
   XX=           -157.2675   YY=           -200.6578   ZZ=           -169.7966
   XY=              9.1482   XZ=            -20.9870   YZ=              9.2808

 Normal termination of Gaussian 16 at Sat Nov  5 09:33:30 2022.
