 Gaussian 16, Revision B.01,
 Gaussian 16:  ES64L-G16RevB.01 20-Dec-2017

 -----------------------------
 #p b3lyp/6-31g(d) opt SCF=XQC
 -----------------------------

 ------------------------------
 Gaussian input prepared by ASE
 ------------------------------
 Symbolic Z-matrix:
 Charge =  0 Multiplicity = 1

 SCF Done:  E(RB3LYP) =  -1644.07332889     A.U. after   15 cycles
 SCF Done:  E(RB3LYP) =  -1644.08146707     A.U. after   13 cycles
 SCF Done:  E(RB3LYP) =  -1644.08257228     A.U. after   12 cycles
 SCF Done:  E(RB3LYP) =  -1644.08277812     A.U. after   12 cycles
 SCF Done:  E(RB3LYP) =  -1644.08305047     A.U. after   12 cycles
 SCF Done:  E(RB3LYP) =  -1644.08320847     A.U. after   11 cycles
 SCF Done:  E(RB3LYP) =  -1644.08341167     A.U. after   12 cycles
 SCF Done:  E(RB3LYP) =  -1644.08343162     A.U. after   10 cycles
 SCF Done:  E(RB3LYP) =  -1644.08344118     A.U. after   10 cycles
 SCF Done:  E(RB3LYP) =  -1644.08344261     A.U. after    9 cycles
 SCF Done:  E(RB3LYP) =  -1644.08344311     A.U. after    8 cycles
 SCF Done:  E(RB3LYP) =  -1644.08344330     A.U. after    8 cycles
 SCF Done:  E(RB3LYP) =  -1644.08344345     A.U. after    8 cycles
 SCF Done:  E(RB3LYP) =  -1644.08344349     A.U. after    8 cycles
 SCF Done:  E(RB3LYP) =  -1644.08344350     A.U. after    7 cycles
 Optimization completed.
    -- Stationary point found.

                         Standard orientation:
 ---------------------------------------------------------------------
 Center     Atomic      Atomic             Coordinates (Angstroms)
 Number     Number       Type             X           Y           Z
 ---------------------------------------------------------------------
      1          6           0        7.787891   -1.174891   -0.557137
      2         16           0        6.321735   -1.996796    0.116896
      3          8           0        6.576145   -2.256820    1.541936
      4          8           0        5.959573   -3.083852   -0.805947
      5          6           0        5.038236   -0.733751    0.007431
      6          6           0        4.229912   -0.682566   -1.128210
      7          6           0        3.238248    0.294149   -1.209541
      8          6           0        3.056285    1.210414   -0.164211
      9          6           0        2.014075    2.299631   -0.190730
     10          8           0        2.152753    3.324484    0.472860
     11          7           0        0.933550    2.075015   -0.999310
     12          6           0       -0.187914    3.015294   -1.066426
     13          6           0       -1.340648    2.652584   -0.148402
     14          6           0       -1.213645    2.807680    1.241339
     15          6           0       -2.266751    2.455086    2.081108
     16          6           0       -3.454442    1.946284    1.546635
     17          6           0       -3.602984    1.797283    0.165799
     18          6           0       -4.907307    1.301635   -0.432233
     19          8           0       -4.727699    0.387620   -1.510935
     20          6           0       -4.292559   -0.908739   -1.108210
     21          6           0       -5.367068   -1.723181   -0.411019
     22          6           0       -6.682411   -1.719353   -0.894794
     23          6           0       -7.664199   -2.497556   -0.283134
     24          6           0       -7.343166   -3.295560    0.818454
     25          6           0       -6.036714   -3.304317    1.307810
     26          6           0       -5.057197   -2.516751    0.698418
     27          6           0       -2.534768    2.151429   -0.670402
     28          6           0        3.886789    1.147168    0.962964
     29          6           0        4.872604    0.169534    1.060039
     30          1           0        8.026969   -0.303580    0.055584
     31          1           0        8.597705   -1.907343   -0.508386
     32          1           0        7.596649   -0.888625   -1.593120
     33          1           0        4.371486   -1.405087   -1.925263
     34          1           0        2.627909    0.353794   -2.106078
     35          1           0        0.755544    1.126424   -1.300246
     36          1           0        0.224629    3.991751   -0.803263
     37          1           0       -0.532847    3.058951   -2.105238
     38          1           0       -0.287767    3.202920    1.650215
     39          1           0       -2.164478    2.572829    3.156722
     40          1           0       -4.271226    1.666980    2.208762
     41          1           0       -5.539898    0.861791    0.351798
     42          1           0       -5.462496    2.139444   -0.870365
     43          1           0       -3.993687   -1.399641   -2.042075
     44          1           0       -3.398480   -0.839994   -0.471322
     45          1           0       -6.929044   -1.093327   -1.747935
     46          1           0       -8.681186   -2.484191   -0.666813
     47          1           0       -8.108427   -3.903588    1.293622
     48          1           0       -5.780169   -3.916359    2.168598
     49          1           0       -4.041605   -2.519442    1.089194
     50          1           0       -2.648425    2.024934   -1.744968
     51          1           0        3.739476    1.873891    1.754642
     52          1           0        5.496984    0.090602    1.944182
 ---------------------------------------------------------------------

 The electronic state is 1-A.
 Alpha  occ. eigenvalues --  -89.09798 -19.15516 -19.14096 -19.14064 -19.12563
 Alpha  occ. eigenvalues --  -14.37418 -10.30222 -10.23815 -10.23709 -10.23707
 Alpha  occ. eigenvalues --  -10.23307 -10.23000 -10.22711 -10.22527 -10.22441
 Alpha  occ. eigenvalues --  -10.22308 -10.21645 -10.20216 -10.19898 -10.19588
 Alpha  occ. eigenvalues --  -10.19470 -10.19415 -10.19297 -10.19224 -10.19174
 Alpha  occ. eigenvalues --  -10.19157 -10.19106 -10.19084 -10.18860  -8.12685
 Alpha  occ. eigenvalues --   -6.09101  -6.09056  -6.09019  -1.09906  -1.04412
 Alpha  occ. eigenvalues --   -1.03467  -0.99641  -0.93460  -0.88797  -0.86070
 Alpha  occ. eigenvalues --   -0.85421  -0.80478  -0.78390  -0.77642  -0.77242
 Alpha  occ. eigenvalues --   -0.76480  -0.75556  -0.74451  -0.70887  -0.70029
 Alpha  occ. eigenvalues --   -0.66869  -0.65181  -0.63692  -0.61384  -0.60634
 Alpha  occ. eigenvalues --   -0.60117  -0.59107  -0.58836  -0.57484  -0.55685
 Alpha  occ. eigenvalues --   -0.52363  -0.51778  -0.50867  -0.49592  -0.49290
 Alpha  occ. eigenvalues --   -0.48638  -0.48229  -0.47468  -0.46927  -0.46841
 Alpha  occ. eigenvalues --   -0.46369  -0.46162  -0.45251  -0.44982  -0.44632
 Alpha  occ. eigenvalues --   -0.43858  -0.43607  -0.43045  -0.42779  -0.42581
 Alpha  occ. eigenvalues --   -0.41991  -0.41110  -0.40632  -0.39928  -0.39783
 Alpha  occ. eigenvalues --   -0.39197  -0.38125  -0.37210  -0.36421  -0.35840
 Alpha  occ. eigenvalues --   -0.35568  -0.35181  -0.34679  -0.34212  -0.32857
 Alpha  occ. eigenvalues --   -0.31573  -0.31078  -0.29963  -0.29378  -0.28313
 Alpha  occ. eigenvalues --   -0.28089  -0.27486  -0.26716  -0.26007  -0.25202
 Alpha  occ. eigenvalues --   -0.25131  -0.24629  -0.24517
 Alpha virt. eigenvalues --   -0.06536  -0.03124  -0.01326  -0.00965  -0.00504
 Alpha virt. eigenvalues --   -0.00179   0.02977   0.05818   0.07550   0.08497
 Alpha virt. eigenvalues --    0.09290   0.09428   0.09905   0.10178   0.10442

 Mulliken charges:
               1
     1  C   -0.622201
     2  S    1.100011
     3  O   -0.536202
     4  O   -0.538159
     5  C   -0.153578
     6  C   -0.148284
     7  C   -0.177418
     8  C    0.075014
     9  C    0.571707
    10  O   -0.524769
    11  N   -0.596178
    12  C   -0.232810
    13  C    0.160191
    14  C   -0.181631
    15  C   -0.129364
    16  C   -0.183187
    17  C    0.127878
    18  C   -0.108309
    19  O   -0.466457
    20  C   -0.106858
    21  C    0.122972
    22  C   -0.167872
    23  C   -0.129674
    24  C   -0.128800
    25  C   -0.128296
    26  C   -0.183219
    27  C   -0.233123
    28  C   -0.148778
    29  C   -0.150260
    30  H    0.202832
    31  H    0.220665
    32  H    0.201463
    33  H    0.183342
    34  H    0.145740
    35  H    0.328365
    36  H    0.198623
    37  H    0.156687
    38  H    0.160694
    39  H    0.134852
    40  H    0.129897
    41  H    0.144286
    42  H    0.160255
    43  H    0.157998
    44  H    0.137217
    45  H    0.141281
    46  H    0.131017
    47  H    0.130516
    48  H    0.131272
    49  H    0.126784
    50  H    0.134738
    51  H    0.175681
    52  H    0.183449
 Sum of Mulliken charges =  -0.00000

 Dipole moment (field-independent basis, Debye):
    X=             -1.4224    Y=              1.7341    Z=             -1.9377  Tot=              2.9640
 Quadrupole moment (field-independent basis, Debye-Ang):
   XX=           -158.5540   YY=           -198.3908   ZZ=           -169.6131
   XY=             18.8116   XZ=            -16.6395   YZ=             -0.7914

 Normal termination of Gaussian 16 at Fri Nov  4 21:28:29 2022.
