 Gaussian 16, Revision B.01,
 Gaussian 16:  ES64L-G16RevB.01 20-Dec-2017

 -------------------------------------------------------------------
 #p b3lyp/6-31g(d) 6D 10F nosymm GFInput td=(50-50,nstate=2) SCF=XQC
 -------------------------------------------------------------------

 ------------------------------
 Gaussian input prepared by ASE
 ------------------------------
 Symbolic Z-matrix:
 Charge =  0 Multiplicity = 1

                          Input orientation:
 ---------------------------------------------------------------------
 Center     Atomic      Atomic             Coordinates (Angstroms)
 Number     Number       Type             X           Y           Z
 ---------------------------------------------------------------------
      1          6           0       -5.901058   -3.271841   -1.321070
      2          6           0       -4.626641   -2.517010   -1.022674
      3          6           0       -3.969245   -1.788996   -2.020260
      4          6           0       -2.814073   -1.070507   -1.723866
      5          6           0       -2.298836   -1.075505   -0.429569
      6          7           0       -1.083611   -0.337846   -0.169481
      7          6           0       -1.153621    0.870715    0.534453
      8          8           0       -2.209685    1.279388    0.992279
      9          7           0        0.051772    1.591004    0.691648
     10          6           0       -0.035720    2.860751    1.448679
     11          6           0       -0.268821    4.134921    0.606013
     12          6           0        0.877907    4.435134   -0.370475
     13          6           0       -1.624257    4.154341   -0.115563
     14          6           0        1.347663    1.151314    0.321493
     15          8           0        2.357359    1.801367    0.591041
     16          6           0        1.305792   -0.099001   -0.377875
     17          6           0        0.139602   -0.798998   -0.620652
     18          7           0        0.370575   -1.944550   -1.313438
     19          6           0        1.688209   -1.938722   -1.493010
     20          7           0        2.313643   -0.860204   -0.957288
     21          6           0        3.753688   -0.574592   -0.964647
     22          6           0        4.558310   -1.395521    0.062059
     23          6           0        6.048087   -1.054170   -0.088595
     24          6           0        4.071577   -1.163566    1.498602
     25          6           0       -2.921876   -1.804378    0.594763
     26          6           0       -2.375742   -1.823134    2.000072
     27          6           0       -4.083870   -2.510908    0.267712
     28          1           0       -6.004957   -4.153587   -0.679811
     29          1           0       -5.934871   -3.604887   -2.363793
     30          1           0       -6.784033   -2.641057   -1.151848
     31          1           0       -4.361337   -1.781928   -3.034231
     32          1           0       -2.301835   -0.506029   -2.496958
     33          1           0        0.908679    2.952275    1.987904
     34          1           0       -0.851039    2.739412    2.162885
     35          1           0       -0.282845    4.941059    1.356456
     36          1           0        0.928580    3.682079   -1.165848
     37          1           0        1.849025    4.447352    0.132601
     38          1           0        0.720432    5.408673   -0.850040
     39          1           0       -2.454251    3.962373    0.570056
     40          1           0       -1.782802    5.129206   -0.592344
     41          1           0       -1.667496    3.392772   -0.902799
     42          1           0        2.235167   -2.707906   -2.022551
     43          1           0        3.858480    0.492744   -0.760158
     44          1           0        4.123539   -0.771814   -1.977010
     45          1           0        4.424495   -2.460019   -0.182712
     46          1           0        6.405946   -1.236238   -1.109328
     47          1           0        6.234693    0.000143    0.150679
     48          1           0        6.654630   -1.661610    0.591678
     49          1           0        3.033072   -1.486030    1.628692
     50          1           0        4.126790   -0.101936    1.764262
     51          1           0        4.686496   -1.729779    2.207244
     52          1           0       -2.907439   -2.555950    2.614149
     53          1           0       -2.484523   -0.838202    2.468052
     54          1           0       -1.309893   -2.079570    2.015092
     55          1           0       -4.579834   -3.081034    1.050856
 ---------------------------------------------------------------------

 SCF Done:  E(RB3LYP) =  -1186.63092574     A.U. after   15 cycles

 Excitation energies and oscillator strengths:

 Excited state symmetry could not be determined.
 Excited State   1:      Triplet-?Sym    3.3060 eV  375.03 nm  f=0.0000  <S**2>=2.000
      98 ->100         0.11460
      99 ->100         0.67193
 This state for optimization and/or second-order correction.
 Total Energy, E(TD-HF/TD-DFT) =  -1186.50943302
 Copying the excited state density for this state as the 1-particle RhoCI density.

 Excited state symmetry could not be determined.
 Excited State   2:      Triplet-?Sym    3.6574 eV  338.99 nm  f=0.0000  <S**2>=2.000
      97 ->101         0.30167
      97 ->102         0.30402
      98 ->101         0.37594
      98 ->102        -0.31644
      99 ->101        -0.22870

 Excited state symmetry could not be determined.
 Excited State   3:      Singlet-?Sym    4.5811 eV  270.65 nm  f=0.1587  <S**2>=0.000
      99 ->100         0.68601

 Excited state symmetry could not be determined.
 Excited State   4:      Singlet-?Sym    4.8615 eV  255.03 nm  f=0.0027  <S**2>=0.000
      93 ->100         0.16007
      96 ->100         0.61118
      97 ->100         0.10742
      98 ->100         0.25562

 Alpha  occ. eigenvalues --  -19.12463 -19.11806 -14.41084 -14.39355 -14.38506
 Alpha  occ. eigenvalues --  -14.33242 -10.32588 -10.30425 -10.26291 -10.26251
 Alpha  occ. eigenvalues --  -10.23814 -10.22491 -10.22393 -10.21045 -10.20680
 Alpha  occ. eigenvalues --  -10.19811 -10.19585 -10.18956 -10.18640 -10.18539
 Alpha  occ. eigenvalues --  -10.18362 -10.18262 -10.18227 -10.17766 -10.17762
 Alpha  occ. eigenvalues --  -10.16149 -10.15976  -1.06730  -1.04181  -1.03281
 Alpha  occ. eigenvalues --   -0.96858  -0.93049  -0.90174  -0.85373  -0.81506
 Alpha  occ. eigenvalues --   -0.79738  -0.78039  -0.77035  -0.75672  -0.71572
 Alpha  occ. eigenvalues --   -0.70344  -0.69144  -0.68939  -0.68452  -0.66966
 Alpha  occ. eigenvalues --   -0.65192  -0.63909  -0.61857  -0.59995  -0.59058
 Alpha  occ. eigenvalues --   -0.57667  -0.56006  -0.55555  -0.52770  -0.51491
 Alpha  occ. eigenvalues --   -0.49836  -0.48484  -0.47794  -0.47485  -0.46668
 Alpha  occ. eigenvalues --   -0.46075  -0.45082  -0.44509  -0.43664  -0.43184
 Alpha  occ. eigenvalues --   -0.42886  -0.42506  -0.41921  -0.41674  -0.41327
 Alpha  occ. eigenvalues --   -0.41057  -0.40836  -0.40735  -0.40474  -0.39765
 Alpha  occ. eigenvalues --   -0.39392  -0.38974  -0.38546  -0.37768  -0.36876
 Alpha  occ. eigenvalues --   -0.36135  -0.35663  -0.34682  -0.34512  -0.34210
 Alpha  occ. eigenvalues --   -0.34132  -0.34008  -0.33515  -0.32249  -0.31895
 Alpha  occ. eigenvalues --   -0.31571  -0.29518  -0.28152  -0.27661  -0.26103
 Alpha  occ. eigenvalues --   -0.25676  -0.24268  -0.23604  -0.21651
 Alpha virt. eigenvalues --   -0.03116  -0.00293   0.00442   0.02459   0.03612
 Alpha virt. eigenvalues --    0.07641   0.09699   0.10016   0.10745   0.11836
 Alpha virt. eigenvalues --    0.11999   0.12405   0.12892   0.13286   0.13643

 Mulliken charges:
               1
     1  C   -0.532860
     2  C    0.207599
     3  C   -0.205905
     4  C   -0.106060
     5  C    0.199394
     6  N   -0.704735
     7  C    0.799264
     8  O   -0.525166
     9  N   -0.581297
    10  C   -0.148793
    11  C   -0.072728
    12  C   -0.440136
    13  C   -0.438545
    14  C    0.655669
    15  O   -0.551844
    16  C    0.215676
    17  C    0.464705
    18  N   -0.495543
    19  C    0.213152
    20  N   -0.492147
    21  C   -0.164573
    22  C   -0.079501
    23  C   -0.449150
    24  C   -0.454528
    25  C    0.223552
    26  C   -0.546829
    27  C   -0.270765
    28  H    0.157898
    29  H    0.157352
    30  H    0.168530
    31  H    0.124580
    32  H    0.136995
    33  H    0.173003
    34  H    0.175204
    35  H    0.127217
    36  H    0.138440
    37  H    0.159044
    38  H    0.134286
    39  H    0.162289
    40  H    0.132859
    41  H    0.140736
    42  H    0.168067
    43  H    0.203837
    44  H    0.156035
    45  H    0.128263
    46  H    0.141819
    47  H    0.155063
    48  H    0.152437
    49  H    0.151157
    50  H    0.171043
    51  H    0.144172
    52  H    0.152914
    53  H    0.191103
    54  H    0.159242
    55  H    0.118513
 Sum of Mulliken charges =  -0.00000

 Dipole moment (field-independent basis, Debye):
    X=              2.2596    Y=             -2.2871    Z=             -1.1367  Tot=              3.4101
 Quadrupole moment (field-independent basis, Debye-Ang):
   XX=           -147.7234   YY=           -159.6998   ZZ=           -154.4373
   XY=             -1.2417   XZ=             -1.7813   YZ=             -0.9320

 Normal termination of Gaussian 16 at Sat Nov  5 09:32:46 2022.
