 Gaussian 16, Revision B.01,
 Gaussian 16:  ES64L-G16RevB.01 20-Dec-2017

 -----------------------------
 #p b3lyp/6-31g(d) opt SCF=XQC
 -----------------------------

 ------------------------------
 Gaussian input prepared by ASE
 ------------------------------
 Symbolic Z-matrix:
 Charge =  0 Multiplicity = 1

 SCF Done:  E(RB3LYP) =  -1186.62238032     A.U. after   15 cycles
 SCF Done:  E(RB3LYP) =  -1186.63003831     A.U. after   12 cycles
 SCF Done:  E(RB3LYP) =  -1186.63071345     A.U. after   11 cycles
 SCF Done:  E(RB3LYP) =  -1186.63083192     A.U. after   12 cycles
 SCF Done:  E(RB3LYP) =  -1186.63088187     A.U. after   10 cycles
 SCF Done:  E(RB3LYP) =  -1186.63089598     A.U. after   10 cycles
 SCF Done:  E(RB3LYP) =  -1186.63090694     A.U. after   10 cycles
 SCF Done:  E(RB3LYP) =  -1186.63091292     A.U. after    9 cycles
 SCF Done:  E(RB3LYP) =  -1186.63091695     A.U. after    9 cycles
 SCF Done:  E(RB3LYP) =  -1186.63091987     A.U. after    9 cycles
 SCF Done:  E(RB3LYP) =  -1186.63092137     A.U. after    9 cycles
 SCF Done:  E(RB3LYP) =  -1186.63092169     A.U. after    7 cycles
 SCF Done:  E(RB3LYP) =  -1186.63092180     A.U. after    7 cycles
 SCF Done:  E(RB3LYP) =  -1186.63092183     A.U. after    6 cycles
 Optimization completed.
    -- Stationary point found.

                         Standard orientation:
 ---------------------------------------------------------------------
 Center     Atomic      Atomic             Coordinates (Angstroms)
 Number     Number       Type             X           Y           Z
 ---------------------------------------------------------------------
      1          6           0       -6.483035   -1.606595   -0.426684
      2          6           0       -5.031076   -1.203535   -0.315749
      3          6           0       -4.287460   -0.866178   -1.451785
      4          6           0       -2.959860   -0.464142   -1.332021
      5          6           0       -2.357880   -0.400061   -0.077345
      6          7           0       -0.970568   -0.002866    0.001151
      7          6           0       -0.650092    1.275450    0.474700
      8          8           0       -1.512930    2.035410    0.886845
      9          7           0        0.714382    1.641979    0.455607
     10          6           0        1.039195    2.991834    0.970772
     11          6           0        1.090438    4.122220   -0.081622
     12          6           0        2.188826    3.920723   -1.135940
     13          6           0       -0.264752    4.403639   -0.746843
     14          6           0        1.806134    0.799542    0.126891
     15          8           0        2.973415    1.173516    0.237847
     16          6           0        1.367446   -0.485903   -0.330644
     17          6           0        0.038833   -0.858481   -0.400716
     18          7           0       -0.109275   -2.120832   -0.880431
     19          6           0        1.140381   -2.516858   -1.103952
     20          7           0        2.078076   -1.585512   -0.796237
     21          6           0        3.535602   -1.723192   -0.905880
     22          6           0        4.170894   -2.556092    0.224672
     23          6           0        5.679123   -2.678848   -0.037681
     24          6           0        3.888612   -1.961814    1.610860
     25          6           0       -3.066530   -0.743499    1.083929
     26          6           0       -2.429283   -0.682765    2.449116
     27          6           0       -4.400014   -1.137382    0.932097
     28          1           0       -6.767845   -2.304383    0.367960
     29          1           0       -6.693981   -2.084338   -1.389283
     30          1           0       -7.144013   -0.733351   -0.344696
     31          1           0       -4.747129   -0.916661   -2.435695
     32          1           0       -2.380840   -0.203210   -2.212557
     33          1           0        2.015027    2.901065    1.450924
     34          1           0        0.284938    3.225437    1.723157
     35          1           0        1.359264    5.012153    0.509116
     36          1           0        1.965751    3.063175   -1.781792
     37          1           0        3.165688    3.741490   -0.677766
     38          1           0        2.261636    4.805769   -1.779330
     39          1           0       -1.054671    4.569911   -0.009146
     40          1           0       -0.192373    5.290701   -1.387704
     41          1           0       -0.579487    3.565893   -1.379868
     42          1           0        1.411190   -3.485699   -1.502989
     43          1           0        3.943121   -0.710312   -0.903407
     44          1           0        3.751098   -2.181468   -1.877533
     45          1           0        3.732917   -3.564766    0.183114
     46          1           0        5.886529   -3.120803   -1.019905
     47          1           0        6.164482   -1.695604   -0.001509
     48          1           0        6.153198   -3.311442    0.720426
     49          1           0        2.816418   -1.951955    1.833802
     50          1           0        4.252218   -0.930212    1.676212
     51          1           0        4.384308   -2.553118    2.389025
     52          1           0       -3.086098   -1.123598    3.204808
     53          1           0       -2.226629    0.356118    2.732988
     54          1           0       -1.475778   -1.223372    2.473455
     55          1           0       -4.964116   -1.406580    1.822973
 ---------------------------------------------------------------------

 The electronic state is 1-A.
 Alpha  occ. eigenvalues --  -19.12463 -19.11806 -14.41084 -14.39355 -14.38506
 Alpha  occ. eigenvalues --  -14.33242 -10.32588 -10.30425 -10.26291 -10.26251
 Alpha  occ. eigenvalues --  -10.23814 -10.22490 -10.22393 -10.21045 -10.20680
 Alpha  occ. eigenvalues --  -10.19811 -10.19585 -10.18956 -10.18641 -10.18539
 Alpha  occ. eigenvalues --  -10.18362 -10.18262 -10.18227 -10.17766 -10.17762
 Alpha  occ. eigenvalues --  -10.16149 -10.15976  -1.06730  -1.04181  -1.03281
 Alpha  occ. eigenvalues --   -0.96858  -0.93049  -0.90174  -0.85373  -0.81506
 Alpha  occ. eigenvalues --   -0.79738  -0.78039  -0.77035  -0.75672  -0.71572
 Alpha  occ. eigenvalues --   -0.70344  -0.69144  -0.68939  -0.68452  -0.66965
 Alpha  occ. eigenvalues --   -0.65192  -0.63909  -0.61857  -0.59995  -0.59058
 Alpha  occ. eigenvalues --   -0.57667  -0.56006  -0.55555  -0.52770  -0.51491
 Alpha  occ. eigenvalues --   -0.49836  -0.48484  -0.47794  -0.47485  -0.46668
 Alpha  occ. eigenvalues --   -0.46075  -0.45082  -0.44509  -0.43664  -0.43184
 Alpha  occ. eigenvalues --   -0.42886  -0.42506  -0.41921  -0.41674  -0.41327
 Alpha  occ. eigenvalues --   -0.41057  -0.40836  -0.40735  -0.40474  -0.39765
 Alpha  occ. eigenvalues --   -0.39392  -0.38974  -0.38546  -0.37768  -0.36876
 Alpha  occ. eigenvalues --   -0.36135  -0.35663  -0.34682  -0.34512  -0.34210
 Alpha  occ. eigenvalues --   -0.34132  -0.34008  -0.33514  -0.32249  -0.31895
 Alpha  occ. eigenvalues --   -0.31571  -0.29518  -0.28152  -0.27661  -0.26103
 Alpha  occ. eigenvalues --   -0.25676  -0.24268  -0.23604  -0.21651
 Alpha virt. eigenvalues --   -0.03116  -0.00293   0.00442   0.02459   0.03612
 Alpha virt. eigenvalues --    0.07641   0.09699   0.10016   0.10745   0.11836
 Alpha virt. eigenvalues --    0.11999   0.12405   0.12892   0.13286   0.13643

 Mulliken charges:
               1
     1  C   -0.532858
     2  C    0.207606
     3  C   -0.205912
     4  C   -0.106048
     5  C    0.199388
     6  N   -0.704773
     7  C    0.799309
     8  O   -0.525167
     9  N   -0.581320
    10  C   -0.148800
    11  C   -0.072745
    12  C   -0.440118
    13  C   -0.438532
    14  C    0.655657
    15  O   -0.551825
    16  C    0.215664
    17  C    0.464757
    18  N   -0.495561
    19  C    0.213160
    20  N   -0.492171
    21  C   -0.164553
    22  C   -0.079518
    23  C   -0.449158
    24  C   -0.454506
    25  C    0.223546
    26  C   -0.546829
    27  C   -0.270769
    28  H    0.157897
    29  H    0.157352
    30  H    0.168529
    31  H    0.124580
    32  H    0.136995
    33  H    0.173009
    34  H    0.175203
    35  H    0.127216
    36  H    0.138436
    37  H    0.159041
    38  H    0.134282
    39  H    0.162286
    40  H    0.132858
    41  H    0.140734
    42  H    0.168066
    43  H    0.203834
    44  H    0.156032
    45  H    0.128263
    46  H    0.141821
    47  H    0.155065
    48  H    0.152438
    49  H    0.151151
    50  H    0.171040
    51  H    0.144168
    52  H    0.152914
    53  H    0.191106
    54  H    0.159243
    55  H    0.118514
 Sum of Mulliken charges =  -0.00000

 Dipole moment (field-independent basis, Debye):
    X=              1.4493    Y=             -2.9871    Z=             -0.7784  Tot=              3.4101
 Quadrupole moment (field-independent basis, Debye-Ang):
   XX=           -149.1261   YY=           -158.2963   ZZ=           -154.2698
   XY=             -5.0178   XZ=             -1.6789   YZ=              0.3842

 Normal termination of Gaussian 16 at Fri Nov  4 21:29:40 2022.
