 Gaussian 16, Revision B.01,
 Gaussian 16:  ES64L-G16RevB.01 20-Dec-2017

 -------------------------------------------------------------------
 #p b3lyp/6-31g(d) 6D 10F nosymm GFInput td=(50-50,nstate=2) SCF=XQC
 -------------------------------------------------------------------

 ------------------------------
 Gaussian input prepared by ASE
 ------------------------------
 Symbolic Z-matrix:
 Charge =  0 Multiplicity = 1

                          Input orientation:
 ---------------------------------------------------------------------
 Center     Atomic      Atomic             Coordinates (Angstroms)
 Number     Number       Type             X           Y           Z
 ---------------------------------------------------------------------
      1          6           0       -2.843099    1.250087    1.874472
      2          6           0       -2.236938    1.677955    0.524333
      3          6           0       -2.847692    0.956866   -0.661201
      4          6           0       -3.827110    1.604498   -1.421711
      5          6           0       -4.467310    0.978883   -2.489913
      6          6           0       -4.120797   -0.331604   -2.812450
      7          6           0       -3.143603   -1.005607   -2.083248
      8          6           0       -2.501403   -0.369645   -1.009034
      9          7           0       -1.484050   -1.022027   -0.266380
     10          6           0       -1.139289   -2.348686   -0.289674
     11          8           0       -1.705747   -3.227752   -0.924145
     12          6           0        0.075659   -2.693264    0.586547
     13          8           0        1.301559   -2.186662    0.018329
     14          6           0        1.829351   -1.042781    0.485043
     15          7           0        1.166886   -0.291141    1.334156
     16          6           0        1.811928    0.823246    1.820501
     17          6           0        1.054664    1.621807    2.845575
     18          7           0        3.010228    1.231526    1.476151
     19          6           0        3.686824    0.479310    0.550213
     20          6           0        4.975193    0.886218    0.129509
     21          6           0        5.672858    0.129744   -0.790367
     22          6           0        5.120477   -1.058076   -1.323195
     23          6           0        3.866912   -1.480354   -0.929302
     24          6           0        3.137723   -0.713567    0.006848
     25          1           0       -3.921846    1.438490    1.886888
     26          1           0       -2.390448    1.807655    2.702492
     27          1           0       -2.691987    0.181820    2.063215
     28          1           0       -2.390837    2.754969    0.390592
     29          1           0       -1.146860    1.542736    0.550070
     30          1           0       -4.091551    2.626808   -1.159950
     31          1           0       -5.225240    1.509029   -3.059731
     32          1           0       -4.607286   -0.840590   -3.640205
     33          1           0       -2.878219   -2.024256   -2.326544
     34          1           0       -0.921304   -0.446423    0.352997
     35          1           0       -0.034688   -2.322868    1.608978
     36          1           0        0.177532   -3.777686    0.573787
     37          1           0        1.692879    2.410887    3.246122
     38          1           0        0.162106    2.077815    2.401719
     39          1           0        0.712673    0.973340    3.659753
     40          1           0        5.384369    1.798323    0.551682
     41          1           0        6.661470    0.447746   -1.110549
     42          1           0        5.687550   -1.638652   -2.044968
     43          1           0        3.428464   -2.388116   -1.329364
 ---------------------------------------------------------------------

 SCF Done:  E(RB3LYP) =  -1050.21277653     A.U. after   15 cycles

 Excitation energies and oscillator strengths:

 Excited state symmetry could not be determined.
 Excited State   1:      Triplet-?Sym    3.0529 eV  406.11 nm  f=0.0000  <S**2>=2.000
      80 -> 86        -0.15014
      80 -> 87        -0.11645
      82 -> 86         0.19850
      83 -> 86         0.11492
      84 -> 86         0.58785
      84 -> 87        -0.19826
 This state for optimization and/or second-order correction.
 Total Energy, E(TD-HF/TD-DFT) =  -1050.10058308
 Copying the excited state density for this state as the 1-particle RhoCI density.

 Excited state symmetry could not be determined.
 Excited State   2:      Triplet-?Sym    3.4253 eV  361.96 nm  f=0.0000  <S**2>=2.000
      83 -> 89         0.29895
      85 -> 86        -0.10024
      85 -> 88         0.59369
      85 -> 91        -0.16584

 Excited state symmetry could not be determined.
 Excited State   3:      Singlet-?Sym    3.7940 eV  326.79 nm  f=0.0028  <S**2>=0.000
      85 -> 86         0.70546

 Excited state symmetry could not be determined.
 Excited State   4:      Singlet-?Sym    4.3610 eV  284.30 nm  f=0.0653  <S**2>=0.000
      80 -> 87        -0.12634
      81 -> 86         0.32726
      84 -> 86         0.56357
      84 -> 87         0.10848
      85 -> 87         0.10391

 Alpha  occ. eigenvalues --  -19.21194 -19.12496 -14.37526 -14.34645 -14.33134
 Alpha  occ. eigenvalues --  -10.31124 -10.29786 -10.27050 -10.25898 -10.24016
 Alpha  occ. eigenvalues --  -10.23166 -10.21614 -10.21061 -10.21013 -10.20654
 Alpha  occ. eigenvalues --  -10.20157 -10.19649 -10.19531 -10.18867 -10.18521
 Alpha  occ. eigenvalues --  -10.18307 -10.18272 -10.18142 -10.17780  -1.10529
 Alpha  occ. eigenvalues --   -1.04137  -0.98640  -0.94121  -0.89623  -0.86346
 Alpha  occ. eigenvalues --   -0.84666  -0.79622  -0.78724  -0.76995  -0.75771
 Alpha  occ. eigenvalues --   -0.73046  -0.72439  -0.72014  -0.65831  -0.63951
 Alpha  occ. eigenvalues --   -0.63425  -0.63007  -0.61237  -0.58654  -0.57083
 Alpha  occ. eigenvalues --   -0.56107  -0.55007  -0.53423  -0.52579  -0.50580
 Alpha  occ. eigenvalues --   -0.48470  -0.47405  -0.47220  -0.46246  -0.45905
 Alpha  occ. eigenvalues --   -0.45268  -0.44073  -0.43659  -0.42925  -0.42410
 Alpha  occ. eigenvalues --   -0.42104  -0.41626  -0.41088  -0.40921  -0.40126
 Alpha  occ. eigenvalues --   -0.39285  -0.38642  -0.38201  -0.37631  -0.36768
 Alpha  occ. eigenvalues --   -0.36718  -0.35938  -0.35250  -0.34863  -0.34186
 Alpha  occ. eigenvalues --   -0.33219  -0.31243  -0.30281  -0.30122  -0.27337
 Alpha  occ. eigenvalues --   -0.26156  -0.25475  -0.24029  -0.23932  -0.21603
 Alpha virt. eigenvalues --   -0.05886  -0.03530  -0.01784   0.00420   0.01707
 Alpha virt. eigenvalues --    0.03460   0.06390   0.08058   0.09194   0.10086
 Alpha virt. eigenvalues --    0.11672   0.12388   0.13147   0.13423   0.14093

 Mulliken charges:
               1
     1  C   -0.436079
     2  C   -0.374181
     3  C    0.138868
     4  C   -0.201450
     5  C   -0.119128
     6  C   -0.147821
     7  C   -0.158810
     8  C    0.280614
     9  N   -0.735434
    10  C    0.585697
    11  O   -0.488952
    12  C   -0.140180
    13  O   -0.491600
    14  C    0.547585
    15  N   -0.570511
    16  C    0.430291
    17  C   -0.518995
    18  N   -0.524250
    19  C    0.251208
    20  C   -0.155487
    21  C   -0.126513
    22  C   -0.135975
    23  C   -0.174059
    24  C    0.079607
    25  H    0.156311
    26  H    0.145369
    27  H    0.151186
    28  H    0.151429
    29  H    0.146813
    30  H    0.121891
    31  H    0.125707
    32  H    0.130850
    33  H    0.182595
    34  H    0.375835
    35  H    0.185788
    36  H    0.189413
    37  H    0.179401
    38  H    0.175682
    39  H    0.169299
    40  H    0.150198
    41  H    0.142953
    42  H    0.142207
    43  H    0.162626
 Sum of Mulliken charges =  -0.00000

 Dipole moment (field-independent basis, Debye):
    X=              2.0295    Y=              1.4244    Z=              1.0346  Tot=              2.6866
 Quadrupole moment (field-independent basis, Debye-Ang):
   XX=           -128.8159   YY=           -142.0568   ZZ=           -135.9476
   XY=            -11.3463   XZ=             -6.7855   YZ=             -2.9035

 Normal termination of Gaussian 16 at Sat Nov  5 09:33:37 2022.
