 Gaussian 16, Revision B.01,
 Gaussian 16:  ES64L-G16RevB.01 20-Dec-2017

 -----------------------------
 #p b3lyp/6-31g(d) opt SCF=XQC
 -----------------------------

 ------------------------------
 Gaussian input prepared by ASE
 ------------------------------
 Symbolic Z-matrix:
 Charge =  0 Multiplicity = 1

 SCF Done:  E(RB3LYP) =  -1050.20601137     A.U. after   15 cycles
 SCF Done:  E(RB3LYP) =  -1050.20466564     A.U. after   15 cycles
 SCF Done:  E(RB3LYP) =  -1050.20727884     A.U. after   13 cycles
 SCF Done:  E(RB3LYP) =  -1050.20137356     A.U. after   13 cycles
 SCF Done:  E(RB3LYP) =  -1050.20744658     A.U. after   13 cycles
 SCF Done:  E(RB3LYP) =  -1050.20926372     A.U. after   11 cycles
 SCF Done:  E(RB3LYP) =  -1050.21126569     A.U. after   12 cycles
 SCF Done:  E(RB3LYP) =  -1050.21193656     A.U. after   12 cycles
 SCF Done:  E(RB3LYP) =  -1050.21216794     A.U. after   11 cycles
 SCF Done:  E(RB3LYP) =  -1050.21190862     A.U. after   12 cycles
 SCF Done:  E(RB3LYP) =  -1050.21268541     A.U. after   11 cycles
 SCF Done:  E(RB3LYP) =  -1050.21271926     A.U. after   10 cycles
 SCF Done:  E(RB3LYP) =  -1050.21274674     A.U. after   10 cycles
 SCF Done:  E(RB3LYP) =  -1050.21276580     A.U. after   10 cycles
 SCF Done:  E(RB3LYP) =  -1050.21277177     A.U. after   10 cycles
 SCF Done:  E(RB3LYP) =  -1050.21277632     A.U. after    9 cycles
 SCF Done:  E(RB3LYP) =  -1050.21277747     A.U. after    9 cycles
 SCF Done:  E(RB3LYP) =  -1050.21277773     A.U. after    8 cycles
 SCF Done:  E(RB3LYP) =  -1050.21277780     A.U. after    7 cycles
 SCF Done:  E(RB3LYP) =  -1050.21277781     A.U. after    6 cycles
 Optimization completed.
    -- Stationary point found.

                         Standard orientation:
 ---------------------------------------------------------------------
 Center     Atomic      Atomic             Coordinates (Angstroms)
 Number     Number       Type             X           Y           Z
 ---------------------------------------------------------------------
      1          6           0        2.714694    2.593535   -1.105944
      2          6           0        2.366603    2.075175    0.302428
      3          6           0        3.144372    0.833568    0.692258
      4          6           0        4.263947    0.963271    1.520986
      5          6           0        5.054143   -0.129589    1.872485
      6          6           0        4.718721   -1.391236    1.385436
      7          6           0        3.605719   -1.560590    0.564784
      8          6           0        2.812913   -0.456033    0.215185
      9          7           0        1.658888   -0.603096   -0.596445
     10          6           0        1.273085   -1.697228   -1.326829
     11          8           0        1.906425   -2.735782   -1.455168
     12          6           0       -0.086721   -1.533946   -2.024583
     13          8           0       -1.176402   -1.564993   -1.079079
     14          6           0       -1.732746   -0.414131   -0.665743
     15          7           0       -1.198172    0.744091   -0.978106
     16          6           0       -1.874431    1.874592   -0.579218
     17          6           0       -1.275034    3.183158   -1.015456
     18          7           0       -2.979202    1.902299    0.127820
     19          6           0       -3.514489    0.696293    0.501975
     20          6           0       -4.694836    0.670202    1.282080
     21          6           0       -5.252066   -0.537107    1.652294
     22          6           0       -4.661812   -1.760878    1.259953
     23          6           0       -3.511697   -1.765749    0.496994
     24          6           0       -2.925844   -0.538089    0.115309
     25          1           0        3.781587    2.831208   -1.173731
     26          1           0        2.147852    3.501638   -1.341384
     27          1           0        2.492851    1.846921   -1.876014
     28          1           0        2.582058    2.862077    1.034476
     29          1           0        1.284013    1.901905    0.374499
     30          1           0        4.518082    1.953157    1.893958
     31          1           0        5.918417    0.005076    2.516768
     32          1           0        5.320672   -2.258044    1.644694
     33          1           0        3.347618   -2.536514    0.179786
     34          1           0        1.020261    0.185462   -0.640746
     35          1           0       -0.139944   -0.615514   -2.614824
     36          1           0       -0.226038   -2.411094   -2.655228
     37          1           0       -1.942179    4.003947   -0.747824
     38          1           0       -0.302731    3.344811   -0.535761
     39          1           0       -1.103145    3.183673   -2.097495
     40          1           0       -5.135568    1.618877    1.570806
     41          1           0       -6.158023   -0.550954    2.252332
     42          1           0       -5.117894   -2.699330    1.561441
     43          1           0       -3.045790   -2.695469    0.188990
 ---------------------------------------------------------------------

 The electronic state is 1-A.
 Alpha  occ. eigenvalues --  -19.21194 -19.12496 -14.37526 -14.34646 -14.33134
 Alpha  occ. eigenvalues --  -10.31124 -10.29786 -10.27050 -10.25898 -10.24016
 Alpha  occ. eigenvalues --  -10.23166 -10.21614 -10.21061 -10.21013 -10.20654
 Alpha  occ. eigenvalues --  -10.20157 -10.19649 -10.19531 -10.18867 -10.18521
 Alpha  occ. eigenvalues --  -10.18307 -10.18272 -10.18142 -10.17780  -1.10529
 Alpha  occ. eigenvalues --   -1.04137  -0.98640  -0.94121  -0.89623  -0.86346
 Alpha  occ. eigenvalues --   -0.84666  -0.79622  -0.78724  -0.76995  -0.75771
 Alpha  occ. eigenvalues --   -0.73046  -0.72439  -0.72014  -0.65831  -0.63951
 Alpha  occ. eigenvalues --   -0.63425  -0.63007  -0.61237  -0.58654  -0.57083
 Alpha  occ. eigenvalues --   -0.56107  -0.55007  -0.53423  -0.52579  -0.50580
 Alpha  occ. eigenvalues --   -0.48470  -0.47405  -0.47220  -0.46246  -0.45905
 Alpha  occ. eigenvalues --   -0.45268  -0.44073  -0.43659  -0.42925  -0.42410
 Alpha  occ. eigenvalues --   -0.42104  -0.41626  -0.41088  -0.40921  -0.40126
 Alpha  occ. eigenvalues --   -0.39285  -0.38643  -0.38201  -0.37631  -0.36768
 Alpha  occ. eigenvalues --   -0.36718  -0.35938  -0.35250  -0.34863  -0.34186
 Alpha  occ. eigenvalues --   -0.33219  -0.31243  -0.30281  -0.30122  -0.27337
 Alpha  occ. eigenvalues --   -0.26156  -0.25475  -0.24029  -0.23932  -0.21603
 Alpha virt. eigenvalues --   -0.05886  -0.03530  -0.01784   0.00420   0.01707
 Alpha virt. eigenvalues --    0.03460   0.06390   0.08058   0.09195   0.10086
 Alpha virt. eigenvalues --    0.11672   0.12388   0.13147   0.13423   0.14093

 Mulliken charges:
               1
     1  C   -0.436090
     2  C   -0.374194
     3  C    0.138883
     4  C   -0.201470
     5  C   -0.119125
     6  C   -0.147820
     7  C   -0.158809
     8  C    0.280617
     9  N   -0.735435
    10  C    0.585698
    11  O   -0.488959
    12  C   -0.140168
    13  O   -0.491596
    14  C    0.547594
    15  N   -0.570522
    16  C    0.430303
    17  C   -0.518997
    18  N   -0.524258
    19  C    0.251216
    20  C   -0.155490
    21  C   -0.126517
    22  C   -0.135969
    23  C   -0.174056
    24  C    0.079590
    25  H    0.156314
    26  H    0.145370
    27  H    0.151190
    28  H    0.151428
    29  H    0.146826
    30  H    0.121893
    31  H    0.125707
    32  H    0.130850
    33  H    0.182595
    34  H    0.375834
    35  H    0.185784
    36  H    0.189412
    37  H    0.179402
    38  H    0.175682
    39  H    0.169301
    40  H    0.150199
    41  H    0.142954
    42  H    0.142207
    43  H    0.162626
 Sum of Mulliken charges =  -0.00000

 Dipole moment (field-independent basis, Debye):
    X=             -2.1217    Y=              1.6038    Z=              0.3804  Tot=              2.6867
 Quadrupole moment (field-independent basis, Debye-Ang):
   XX=           -131.2682   YY=           -139.7612   ZZ=           -135.7316
   XY=             13.2713   XZ=              0.7659   YZ=             -4.0789

 Normal termination of Gaussian 16 at Fri Nov  4 21:36:46 2022.
