 Gaussian 16, Revision B.01,
 Gaussian 16:  ES64L-G16RevB.01 20-Dec-2017

 -------------------------------------------------------------------
 #p b3lyp/6-31g(d) 6D 10F nosymm GFInput td=(50-50,nstate=2) SCF=XQC
 -------------------------------------------------------------------

 ------------------------------
 Gaussian input prepared by ASE
 ------------------------------
 Symbolic Z-matrix:
 Charge =  0 Multiplicity = 1

                          Input orientation:
 ---------------------------------------------------------------------
 Center     Atomic      Atomic             Coordinates (Angstroms)
 Number     Number       Type             X           Y           Z
 ---------------------------------------------------------------------
      1          6           0       -4.109504   -1.112271   -1.292741
      2          7           0       -4.001770   -0.925038    0.143076
      3          6           0       -4.892556   -0.186911    0.887404
      4          6           0       -4.465447   -0.167422    2.197792
      5          6           0       -3.266236   -0.923570    2.255078
      6          6           0       -2.989172   -1.380519    0.977196
      7          6           0       -1.825006   -2.205663    0.513809
      8          7           0       -0.571883   -1.459524    0.227481
      9          6           0       -0.418230   -0.834283   -1.090493
     10          6           0       -0.668248    0.657672   -1.114046
     11          6           0       -1.353518    1.446288   -0.227762
     12          6           0       -1.396657    2.822282   -0.616008
     13          6           0       -0.748180    3.066516   -1.792120
     14         16           0       -0.059042    1.613048   -2.449650
     15          6           0        0.243096   -1.224624    1.305696
     16          8           0       -0.052129   -1.583395    2.443304
     17          6           0        1.561480   -0.504624    1.124547
     18          6           0        2.046739    0.302759    2.093044
     19          6           0        3.335486    0.979759    1.956489
     20          8           0        3.794188    1.740416    2.805762
     21          6           0        4.048178    0.657528    0.697373
     22          6           0        5.310272    1.202931    0.411176
     23          6           0        5.966638    0.881682   -0.767289
     24          6           0        5.368060    0.001877   -1.684697
     25          6           0        4.120795   -0.551370   -1.425589
     26          6           0        3.470542   -0.214070   -0.234850
     27          8           0        2.236080   -0.784499   -0.024151
     28          1           0       -3.925540   -2.155967   -1.566096
     29          1           0       -3.409961   -0.467484   -1.837262
     30          1           0       -5.125860   -0.859367   -1.602678
     31          1           0       -5.760981    0.254188    0.418111
     32          1           0       -4.968090    0.321340    3.021396
     33          1           0       -2.651807   -1.123476    3.121710
     34          1           0       -2.067760   -2.768854   -0.392859
     35          1           0       -1.575254   -2.924032    1.295059
     36          1           0        0.574935   -1.051401   -1.487348
     37          1           0       -1.127411   -1.344311   -1.751952
     38          1           0       -1.812278    1.059842    0.675928
     39          1           0       -1.889129    3.593746   -0.033986
     40          1           0       -0.622210    4.006827   -2.311772
     41          1           0        1.466884    0.449439    2.995305
     42          1           0        5.742206    1.875885    1.145138
     43          1           0        6.942590    1.306333   -0.982976
     44          1           0        5.882215   -0.252028   -2.607380
     45          1           0        3.643478   -1.235653   -2.119672
 ---------------------------------------------------------------------

 SCF Done:  E(RB3LYP) =  -1544.40546773     A.U. after   16 cycles

 Excitation energies and oscillator strengths:

 Excited state symmetry could not be determined.
 Excited State   1:      Triplet-?Sym    2.8780 eV  430.80 nm  f=0.0000  <S**2>=2.000
      90 ->100        -0.17599
      91 ->100         0.15895
      95 ->100         0.15896
      96 ->100         0.57611
      98 ->100        -0.21101
 This state for optimization and/or second-order correction.
 Total Energy, E(TD-HF/TD-DFT) =  -1544.29970303
 Copying the excited state density for this state as the 1-particle RhoCI density.

 Excited state symmetry could not be determined.
 Excited State   2:      Triplet-?Sym    3.0246 eV  409.92 nm  f=0.0000  <S**2>=2.000
      95 ->100         0.63339
      96 ->100        -0.19355
      99 ->100        -0.14337

 Excited state symmetry could not be determined.
 Excited State   3:      Singlet-?Sym    3.2509 eV  381.39 nm  f=0.0051  <S**2>=0.000
      95 ->100        -0.10499
      99 ->100         0.68997

 Excited state symmetry could not be determined.
 Excited State   4:      Singlet-?Sym    3.4624 eV  358.08 nm  f=0.0000  <S**2>=0.000
      95 ->100         0.60413
      96 ->100        -0.31578
      99 ->100         0.12377

 Alpha  occ. eigenvalues --  -88.91125 -19.23581 -19.12720 -19.11784 -14.38498
 Alpha  occ. eigenvalues --  -14.38070 -10.30514 -10.28296 -10.27542 -10.26749
 Alpha  occ. eigenvalues --  -10.24981 -10.23724 -10.23635 -10.22640 -10.21790
 Alpha  occ. eigenvalues --  -10.21317 -10.21027 -10.20775 -10.20608 -10.20462
 Alpha  occ. eigenvalues --  -10.20364 -10.20254 -10.19848 -10.19579 -10.19320
 Alpha  occ. eigenvalues --  -10.16605 -10.16396  -7.97255  -5.93662  -5.93296
 Alpha  occ. eigenvalues --   -5.92953  -1.12597  -1.04703  -1.01734  -0.98254
 Alpha  occ. eigenvalues --   -0.94625  -0.88070  -0.87411  -0.81521  -0.80242
 Alpha  occ. eigenvalues --   -0.78326  -0.77584  -0.76064  -0.75193  -0.73507
 Alpha  occ. eigenvalues --   -0.69834  -0.69305  -0.69005  -0.66354  -0.65313
 Alpha  occ. eigenvalues --   -0.61043  -0.58350  -0.57524  -0.56711  -0.56268
 Alpha  occ. eigenvalues --   -0.55061  -0.54069  -0.53379  -0.52478  -0.51751
 Alpha  occ. eigenvalues --   -0.50380  -0.48941  -0.48533  -0.47711  -0.47388
 Alpha  occ. eigenvalues --   -0.46289  -0.45448  -0.45078  -0.44196  -0.43199
 Alpha  occ. eigenvalues --   -0.42734  -0.42427  -0.41737  -0.41434  -0.40894
 Alpha  occ. eigenvalues --   -0.40705  -0.39750  -0.39438  -0.39145  -0.38426
 Alpha  occ. eigenvalues --   -0.38167  -0.37521  -0.37281  -0.37128  -0.36786
 Alpha  occ. eigenvalues --   -0.36324  -0.36118  -0.35261  -0.34552  -0.28549
 Alpha  occ. eigenvalues --   -0.26856  -0.26555  -0.25746  -0.25433  -0.24206
 Alpha  occ. eigenvalues --   -0.24012  -0.23339  -0.23265  -0.20583
 Alpha virt. eigenvalues --   -0.06742  -0.03114  -0.01728  -0.00812   0.02002
 Alpha virt. eigenvalues --    0.02519   0.03824   0.05859   0.07483   0.07806
 Alpha virt. eigenvalues --    0.08206   0.09056   0.09335   0.10871   0.11047

 Mulliken charges:
               1
     1  C   -0.333042
     2  N   -0.417711
     3  C    0.021135
     4  C   -0.190964
     5  C   -0.211414
     6  C    0.306172
     7  C   -0.253878
     8  N   -0.419291
     9  C   -0.205379
    10  C   -0.155317
    11  C   -0.123896
    12  C   -0.099784
    13  C   -0.343019
    14  S    0.231048
    15  C    0.556425
    16  O   -0.503349
    17  C    0.310756
    18  C   -0.237006
    19  C    0.425071
    20  O   -0.509309
    21  C    0.059696
    22  C   -0.174356
    23  C   -0.129685
    24  C   -0.129646
    25  C   -0.179333
    26  C    0.305127
    27  O   -0.544613
    28  H    0.166245
    29  H    0.181921
    30  H    0.173266
    31  H    0.139194
    32  H    0.125869
    33  H    0.152300
    34  H    0.148955
    35  H    0.202409
    36  H    0.196336
    37  H    0.164362
    38  H    0.180400
    39  H    0.148182
    40  H    0.175228
    41  H    0.185180
    42  H    0.170877
    43  H    0.142268
    44  H    0.143879
    45  H    0.148691
 Sum of Mulliken charges =  -0.00000

 Dipole moment (field-independent basis, Debye):
    X=             -1.9006    Y=             -1.1212    Z=             -6.7941  Tot=              7.1435
 Quadrupole moment (field-independent basis, Debye-Ang):
   XX=           -146.9878   YY=           -158.3160   ZZ=           -170.6371
   XY=             -5.1300   XZ=             -9.4772   YZ=              2.0814

 Normal termination of Gaussian 16 at Sat Nov  5 09:35:05 2022.
