 Gaussian 16, Revision B.01,
 Gaussian 16:  ES64L-G16RevB.01 20-Dec-2017

 -----------------------------
 #p b3lyp/6-31g(d) opt SCF=XQC
 -----------------------------

 ------------------------------
 Gaussian input prepared by ASE
 ------------------------------
 Symbolic Z-matrix:
 Charge =  0 Multiplicity = 1

 SCF Done:  E(RB3LYP) =  -1544.39008313     A.U. after   16 cycles
 SCF Done:  E(RB3LYP) =  -1544.39471211     A.U. after   16 cycles
 SCF Done:  E(RB3LYP) =  -1544.39779968     A.U. after   16 cycles
 SCF Done:  E(RB3LYP) =  -1544.40293242     A.U. after   14 cycles
 SCF Done:  E(RB3LYP) =  -1544.40346782     A.U. after   13 cycles
 SCF Done:  E(RB3LYP) =  -1544.40407945     A.U. after   13 cycles
 SCF Done:  E(RB3LYP) =  -1544.40444262     A.U. after   12 cycles
 SCF Done:  E(RB3LYP) =  -1544.40459312     A.U. after   13 cycles
 SCF Done:  E(RB3LYP) =  -1544.40472024     A.U. after   11 cycles
 SCF Done:  E(RB3LYP) =  -1544.40481181     A.U. after   12 cycles
 SCF Done:  E(RB3LYP) =  -1544.40535095     A.U. after   12 cycles
 SCF Done:  E(RB3LYP) =  -1544.40546375     A.U. after   12 cycles
 SCF Done:  E(RB3LYP) =  -1544.40546714     A.U. after   11 cycles
 SCF Done:  E(RB3LYP) =  -1544.40547538     A.U. after   11 cycles
 SCF Done:  E(RB3LYP) =  -1544.40548033     A.U. after   11 cycles
 SCF Done:  E(RB3LYP) =  -1544.40548308     A.U. after   10 cycles
 SCF Done:  E(RB3LYP) =  -1544.40548424     A.U. after   10 cycles
 SCF Done:  E(RB3LYP) =  -1544.40548444     A.U. after    9 cycles
 SCF Done:  E(RB3LYP) =  -1544.40548444     A.U. after    8 cycles
 SCF Done:  E(RB3LYP) =  -1544.40548449     A.U. after    8 cycles
 Optimization completed.
    -- Stationary point found.

                         Standard orientation:
 ---------------------------------------------------------------------
 Center     Atomic      Atomic             Coordinates (Angstroms)
 Number     Number       Type             X           Y           Z
 ---------------------------------------------------------------------
      1          6           0       -4.461732    1.177986   -1.294972
      2          7           0       -4.402763    0.001133   -0.446577
      3          6           0       -5.215363   -0.196146    0.645722
      4          6           0       -4.858433   -1.379769    1.255278
      5          6           0       -3.785206   -1.926174    0.505093
      6          6           0       -3.510941   -1.059305   -0.539830
      7          6           0       -2.455282   -1.179929   -1.599032
      8          7           0       -1.094630   -0.720146   -1.216602
      9          6           0       -0.784406    0.709123   -1.328582
     10          6           0       -0.815415    1.465966   -0.018917
     11          6           0       -1.425010    1.145108    1.165334
     12          6           0       -1.249365    2.141511    2.176415
     13          6           0       -0.512368    3.209403    1.752323
     14         16           0       -0.006552    3.014843    0.101226
     15          6           0       -0.311342   -1.643526   -0.571818
     16          8           0       -0.713744   -2.772721   -0.301602
     17          6           0        1.104584   -1.295446   -0.167656
     18          6           0        1.650165   -1.813670    0.954447
     19          6           0        3.028297   -1.521501    1.345897
     20          8           0        3.547089   -1.954768    2.372253
     21          6           0        3.751486   -0.657181    0.383044
     22          6           0        5.092089   -0.293743    0.590284
     23          6           0        5.755574    0.507118   -0.326889
     24          6           0        5.084930    0.959425   -1.475647
     25          6           0        3.759257    0.614207   -1.704344
     26          6           0        3.103487   -0.190457   -0.767892
     27          8           0        1.790501   -0.503041   -1.036295
     28          1           0       -4.416052    0.900478   -2.352691
     29          1           0       -3.649344    1.878681   -1.069880
     30          1           0       -5.413623    1.685247   -1.122947
     31          1           0       -5.985701    0.522462    0.888925
     32          1           0       -5.327482   -1.809108    2.130220
     33          1           0       -3.251744   -2.848031    0.689845
     34          1           0       -2.729257   -0.627732   -2.503562
     35          1           0       -2.352431   -2.231235   -1.869142
     36          1           0        0.186372    0.838430   -1.810121
     37          1           0       -1.524374    1.126097   -2.020806
     38          1           0       -1.980877    0.225757    1.314548
     39          1           0       -1.655125    2.055941    3.178649
     40          1           0       -0.225530    4.094452    2.304143
     41          1           0        1.051475   -2.465025    1.578249
     42          1           0        5.577778   -0.664876    1.487224
     43          1           0        6.792362    0.784626   -0.161385
     44          1           0        5.604313    1.585304   -2.195845
     45          1           0        3.225019    0.950374   -2.587185
 ---------------------------------------------------------------------

 The electronic state is 1-A.
 Alpha  occ. eigenvalues --  -88.91124 -19.23581 -19.12720 -19.11784 -14.38499
 Alpha  occ. eigenvalues --  -14.38070 -10.30514 -10.28296 -10.27542 -10.26749
 Alpha  occ. eigenvalues --  -10.24981 -10.23724 -10.23635 -10.22640 -10.21790
 Alpha  occ. eigenvalues --  -10.21317 -10.21027 -10.20775 -10.20609 -10.20462
 Alpha  occ. eigenvalues --  -10.20364 -10.20254 -10.19848 -10.19579 -10.19320
 Alpha  occ. eigenvalues --  -10.16605 -10.16396  -7.97255  -5.93662  -5.93295
 Alpha  occ. eigenvalues --   -5.92953  -1.12597  -1.04703  -1.01734  -0.98254
 Alpha  occ. eigenvalues --   -0.94625  -0.88070  -0.87411  -0.81521  -0.80242
 Alpha  occ. eigenvalues --   -0.78326  -0.77584  -0.76064  -0.75193  -0.73507
 Alpha  occ. eigenvalues --   -0.69834  -0.69305  -0.69005  -0.66354  -0.65313
 Alpha  occ. eigenvalues --   -0.61043  -0.58350  -0.57524  -0.56711  -0.56268
 Alpha  occ. eigenvalues --   -0.55061  -0.54069  -0.53379  -0.52478  -0.51751
 Alpha  occ. eigenvalues --   -0.50380  -0.48941  -0.48533  -0.47711  -0.47388
 Alpha  occ. eigenvalues --   -0.46289  -0.45448  -0.45078  -0.44196  -0.43199
 Alpha  occ. eigenvalues --   -0.42735  -0.42427  -0.41737  -0.41434  -0.40894
 Alpha  occ. eigenvalues --   -0.40705  -0.39750  -0.39437  -0.39145  -0.38426
 Alpha  occ. eigenvalues --   -0.38167  -0.37521  -0.37281  -0.37128  -0.36787
 Alpha  occ. eigenvalues --   -0.36324  -0.36118  -0.35261  -0.34552  -0.28549
 Alpha  occ. eigenvalues --   -0.26856  -0.26555  -0.25746  -0.25433  -0.24206
 Alpha  occ. eigenvalues --   -0.24012  -0.23339  -0.23265  -0.20584
 Alpha virt. eigenvalues --   -0.06742  -0.03114  -0.01728  -0.00812   0.02002
 Alpha virt. eigenvalues --    0.02519   0.03824   0.05859   0.07483   0.07806
 Alpha virt. eigenvalues --    0.08206   0.09056   0.09335   0.10871   0.11047

 Mulliken charges:
               1
     1  C   -0.333040
     2  N   -0.417684
     3  C    0.021124
     4  C   -0.190959
     5  C   -0.211402
     6  C    0.306098
     7  C   -0.253846
     8  N   -0.419267
     9  C   -0.205380
    10  C   -0.155289
    11  C   -0.123907
    12  C   -0.099778
    13  C   -0.343022
    14  S    0.231042
    15  C    0.556365
    16  O   -0.503320
    17  C    0.310747
    18  C   -0.236993
    19  C    0.425054
    20  O   -0.509308
    21  C    0.059719
    22  C   -0.174341
    23  C   -0.129688
    24  C   -0.129644
    25  C   -0.179336
    26  C    0.305104
    27  O   -0.544603
    28  H    0.166245
    29  H    0.181921
    30  H    0.173266
    31  H    0.139198
    32  H    0.125870
    33  H    0.152301
    34  H    0.148956
    35  H    0.202412
    36  H    0.196330
    37  H    0.164363
    38  H    0.180396
    39  H    0.148182
    40  H    0.175227
    41  H    0.185180
    42  H    0.170875
    43  H    0.142267
    44  H    0.143879
    45  H    0.148688
 Sum of Mulliken charges =  -0.00000

 Dipole moment (field-independent basis, Debye):
    X=             -1.6873    Y=              5.6168    Z=             -4.0782  Tot=              7.1433
 Quadrupole moment (field-independent basis, Debye-Ang):
   XX=           -146.7672   YY=           -169.4409   ZZ=           -156.5604
   XY=              1.7382   XZ=             -8.2405   YZ=              3.6151

 Normal termination of Gaussian 16 at Fri Nov  4 21:57:25 2022.
