 Gaussian 16, Revision B.01,
 Gaussian 16:  ES64L-G16RevB.01 20-Dec-2017

 -----------------------------
 #p b3lyp/6-31g(d) opt SCF=XQC
 -----------------------------

 ------------------------------
 Gaussian input prepared by ASE
 ------------------------------
 Symbolic Z-matrix:
 Charge =  0 Multiplicity = 1

 SCF Done:  E(RB3LYP) =  -1485.79324145     A.U. after   15 cycles
 SCF Done:  E(RB3LYP) =  -1485.80059657     A.U. after   14 cycles
 SCF Done:  E(RB3LYP) =  -1485.80260405     A.U. after   12 cycles
 SCF Done:  E(RB3LYP) =  -1485.80293774     A.U. after   13 cycles
 SCF Done:  E(RB3LYP) =  -1485.80314487     A.U. after   12 cycles
 SCF Done:  E(RB3LYP) =  -1485.80322978     A.U. after   11 cycles
 SCF Done:  E(RB3LYP) =  -1485.80330445     A.U. after   11 cycles
 SCF Done:  E(RB3LYP) =  -1485.80335365     A.U. after   11 cycles
 SCF Done:  E(RB3LYP) =  -1485.80336815     A.U. after    9 cycles
 SCF Done:  E(RB3LYP) =  -1485.80338276     A.U. after   10 cycles
 SCF Done:  E(RB3LYP) =  -1485.80353282     A.U. after    9 cycles
 SCF Done:  E(RB3LYP) =  -1485.80353306     A.U. after    9 cycles
 SCF Done:  E(RB3LYP) =  -1485.80353311     A.U. after    7 cycles
 SCF Done:  E(RB3LYP) =  -1485.80353320     A.U. after    8 cycles
 SCF Done:  E(RB3LYP) =  -1485.80353322     A.U. after    7 cycles
 SCF Done:  E(RB3LYP) =  -1485.80353324     A.U. after    7 cycles
 SCF Done:  E(RB3LYP) =  -1485.80353325     A.U. after    7 cycles
 SCF Done:  E(RB3LYP) =  -1485.80353327     A.U. after    7 cycles
 SCF Done:  E(RB3LYP) =  -1485.80353328     A.U. after    7 cycles
 SCF Done:  E(RB3LYP) =  -1485.80353329     A.U. after    7 cycles
 Optimization completed.
    -- Stationary point found.

                         Standard orientation:
 ---------------------------------------------------------------------
 Center     Atomic      Atomic             Coordinates (Angstroms)
 Number     Number       Type             X           Y           Z
 ---------------------------------------------------------------------
      1          6           0       -8.043296    0.276362   -1.980783
      2          6           0       -8.528480   -0.884041   -1.132104
      3          8           0       -9.657121   -1.340286   -1.241159
      4          7           0       -7.662612   -1.431523   -0.197420
      5          6           0       -6.338066   -1.096417    0.165571
      6          6           0       -5.991638   -1.082133    1.524751
      7          6           0       -4.690989   -0.799377    1.921653
      8          6           0       -3.700859   -0.503169    0.973366
      9          7           0       -2.403111   -0.207198    1.450446
     10          6           0       -1.262442    0.067171    0.731579
     11          8           0       -1.197419    0.149620   -0.481320
     12          6           0       -0.023228    0.239017    1.636270
     13          8           0        1.097281    0.715600    0.935570
     14          6           0        1.172798    2.026956    0.582954
     15          6           0        0.151501    2.954666    0.818683
     16          6           0        0.305838    4.286913    0.440286
     17          6           0        1.477956    4.716130   -0.181515
     18          6           0        2.494465    3.799086   -0.420654
     19          6           0        2.370200    2.450304   -0.045408
     20          6           0        3.482543    1.539787   -0.314732
     21          7           0        3.681740    0.300373    0.044890
     22          6           0        4.915938    0.011424   -0.498530
     23          6           0        5.623755   -1.273899   -0.343807
     24          6           0        7.022850   -1.260126   -0.480215
     25          6           0        7.770206   -2.426157   -0.357945
     26          6           0        7.119149   -3.630558   -0.091927
     27          6           0        5.732053   -3.650735    0.041195
     28          6           0        4.953196   -2.491763   -0.080038
     29          6           0        3.451815   -2.606050    0.057505
     30          7           0        5.456155    1.012172   -1.166168
     31          8           0        4.511125    2.034729   -1.044462
     32          6           0       -4.036677   -0.517725   -0.387654
     33          6           0       -5.337318   -0.830277   -0.777869
     34          1           0       -7.554721   -0.095542   -2.888830
     35          1           0       -7.337467    0.926204   -1.457134
     36          1           0       -8.923024    0.846165   -2.285377
     37          1           0       -8.132191   -2.120657    0.379630
     38          1           0       -6.751114   -1.287114    2.274587
     39          1           0       -4.446193   -0.797487    2.982098
     40          1           0       -2.305358   -0.238987    2.457721
     41          1           0       -0.253971    0.871437    2.506677
     42          1           0        0.276136   -0.746583    2.009258
     43          1           0       -0.778307    2.641515    1.278162
     44          1           0       -0.502591    4.987675    0.629628
     45          1           0        1.598737    5.752800   -0.479362
     46          1           0        3.411703    4.118350   -0.902608
     47          1           0        7.514833   -0.313788   -0.679905
     48          1           0        8.850881   -2.392390   -0.463758
     49          1           0        7.686528   -4.551891    0.010955
     50          1           0        5.228994   -4.593994    0.240230
     51          1           0        2.928439   -2.170482   -0.799694
     52          1           0        3.161852   -3.658644    0.139233
     53          1           0        3.085213   -2.069335    0.937236
     54          1           0       -3.276928   -0.308487   -1.127415
     55          1           0       -5.565182   -0.885181   -1.836394
 ---------------------------------------------------------------------

 The electronic state is 1-A.
 Alpha  occ. eigenvalues --  -19.23723 -19.19912 -19.14281 -19.11511 -14.40115
 Alpha  occ. eigenvalues --  -14.37739 -14.37296 -14.33029 -10.31583 -10.29596
 Alpha  occ. eigenvalues --  -10.29112 -10.27556 -10.27319 -10.25455 -10.25062
 Alpha  occ. eigenvalues --  -10.24720 -10.21945 -10.21501 -10.21168 -10.20955
 Alpha  occ. eigenvalues --  -10.20740 -10.20708 -10.20490 -10.20289 -10.20053
 Alpha  occ. eigenvalues --  -10.20004 -10.19787 -10.19391 -10.18909 -10.18725
 Alpha  occ. eigenvalues --  -10.18534 -10.18451 -10.17201  -1.15437  -1.09449
 Alpha  occ. eigenvalues --   -1.05819  -1.03706  -0.96532  -0.93904  -0.93050
 Alpha  occ. eigenvalues --   -0.88488  -0.86129  -0.85868  -0.84542  -0.79087
 Alpha  occ. eigenvalues --   -0.77108  -0.76909  -0.76749  -0.76114  -0.74685
 Alpha  occ. eigenvalues --   -0.74309  -0.72557  -0.68256  -0.66278  -0.65620
 Alpha  occ. eigenvalues --   -0.64696  -0.64101  -0.61733  -0.60506  -0.59404
 Alpha  occ. eigenvalues --   -0.58359  -0.58004  -0.57231  -0.56487  -0.54948
 Alpha  occ. eigenvalues --   -0.53861  -0.52525  -0.52084  -0.50861  -0.49622
 Alpha  occ. eigenvalues --   -0.48502  -0.48016  -0.47435  -0.47051  -0.46468
 Alpha  occ. eigenvalues --   -0.46165  -0.46047  -0.44867  -0.44711  -0.44461
 Alpha  occ. eigenvalues --   -0.44432  -0.43540  -0.42749  -0.42603  -0.42026
 Alpha  occ. eigenvalues --   -0.41037  -0.40640  -0.40614  -0.40400  -0.40194
 Alpha  occ. eigenvalues --   -0.39523  -0.39110  -0.38684  -0.38085  -0.37631
 Alpha  occ. eigenvalues --   -0.37037  -0.36073  -0.35662  -0.35138  -0.34382
 Alpha  occ. eigenvalues --   -0.34214  -0.33786  -0.33302  -0.32491  -0.32026
 Alpha  occ. eigenvalues --   -0.30880  -0.28204  -0.28026  -0.27568  -0.27112
 Alpha  occ. eigenvalues --   -0.25807  -0.25443  -0.24194  -0.23780  -0.22702
 Alpha  occ. eigenvalues --   -0.22033
 Alpha virt. eigenvalues --   -0.05542  -0.03246  -0.02514  -0.02162  -0.00416
 Alpha virt. eigenvalues --    0.00530   0.01187   0.03643   0.04230   0.04464
 Alpha virt. eigenvalues --    0.07337   0.07944   0.08350   0.08691   0.09809

 Mulliken charges:
               1
     1  C   -0.543436
     2  C    0.569505
     3  O   -0.489407
     4  N   -0.694596
     5  C    0.335870
     6  C   -0.174054
     7  C   -0.202837
     8  C    0.361960
     9  N   -0.724026
    10  C    0.589920
    11  O   -0.473800
    12  C   -0.145056
    13  O   -0.483647
    14  C    0.362040
    15  C   -0.186989
    16  C   -0.126036
    17  C   -0.136638
    18  C   -0.177137
    19  C    0.016134
    20  C    0.576621
    21  N   -0.535837
    22  C    0.361893
    23  C    0.055218
    24  C   -0.164122
    25  C   -0.142714
    26  C   -0.113059
    27  C   -0.197119
    28  C    0.138432
    29  C   -0.510634
    30  N   -0.205408
    31  O   -0.391223
    32  C   -0.175124
    33  C   -0.169562
    34  H    0.181196
    35  H    0.172640
    36  H    0.188429
    37  H    0.334231
    38  H    0.139299
    39  H    0.128841
    40  H    0.332334
    41  H    0.156491
    42  H    0.197524
    43  H    0.136553
    44  H    0.140359
    45  H    0.138888
    46  H    0.169359
    47  H    0.159681
    48  H    0.131739
    49  H    0.129956
    50  H    0.123802
    51  H    0.172554
    52  H    0.139324
    53  H    0.179801
    54  H    0.195073
    55  H    0.146793
 Sum of Mulliken charges =  -0.00000

 Dipole moment (field-independent basis, Debye):
    X=             -0.9034    Y=              0.6973    Z=              5.4239  Tot=              5.5426
 Quadrupole moment (field-independent basis, Debye-Ang):
   XX=           -239.7046   YY=           -173.1363   ZZ=           -179.4914
   XY=            -16.3004   XZ=            -12.4092   YZ=             -4.2493

 Normal termination of Gaussian 16 at Fri Nov  4 21:54:42 2022.
