 Gaussian 16, Revision B.01,
 Gaussian 16:  ES64L-G16RevB.01 20-Dec-2017

 -------------------------------------------------------------------
 #p b3lyp/6-31g(d) 6D 10F nosymm GFInput td=(50-50,nstate=2) SCF=XQC
 -------------------------------------------------------------------

 ------------------------------
 Gaussian input prepared by ASE
 ------------------------------
 Symbolic Z-matrix:
 Charge =  0 Multiplicity = 1

                          Input orientation:
 ---------------------------------------------------------------------
 Center     Atomic      Atomic             Coordinates (Angstroms)
 Number     Number       Type             X           Y           Z
 ---------------------------------------------------------------------
      1          6           0        8.055846    0.706848   -1.200680
      2          6           0        8.498643   -0.053354    0.035531
      3          8           0        9.662948   -0.065840    0.407176
      4          7           0        7.549108   -0.763455    0.754723
      5          6           0        6.163472   -0.953566    0.548923
      6          6           0        5.619687   -2.232215    0.741128
      7          6           0        4.256656   -2.452651    0.590383
      8          6           0        3.397784   -1.406022    0.223980
      9          7           0        2.024723   -1.707118    0.071005
     10          6           0        0.985174   -0.858789   -0.233709
     11          8           0        1.094142    0.328905   -0.477960
     12          6           0       -0.383820   -1.572143   -0.208609
     13          8           0       -1.421865   -0.770419   -0.711949
     14          6           0       -1.545865   -0.579524   -2.052799
     15          6           0       -0.645764   -1.088378   -2.996275
     16          6           0       -0.845281   -0.862510   -4.356813
     17          6           0       -1.942212   -0.123954   -4.799535
     18          6           0       -2.837915    0.386136   -3.867347
     19          6           0       -2.666299    0.170172   -2.489170
     20          6           0       -3.652528    0.724040   -1.562098
     21          7           0       -3.805998    0.560281   -0.275714
     22          6           0       -4.920027    1.322900    0.006057
     23          6           0       -5.541089    1.445484    1.338820
     24          6           0       -6.901404    1.796955    1.386517
     25          6           0       -7.565901    1.942401    2.599121
     26          6           0       -6.869933    1.732415    3.789397
     27          6           0       -5.520465    1.386859    3.748267
     28          6           0       -4.824516    1.236347    2.540985
     29          6           0       -3.355724    0.880458    2.586988
     30          7           0       -5.431488    1.934674   -1.044282
     31          8           0       -4.597067    1.537438   -2.092834
     32          6           0        3.931401   -0.123872    0.032399
     33          6           0        5.295746    0.093795    0.213527
     34          1           0        7.737350    1.720072   -0.929566
     35          1           0        7.232045    0.222346   -1.731066
     36          1           0        8.924082    0.794816   -1.856274
     37          1           0        7.980156   -1.314940    1.488521
     38          1           0        6.273436   -3.059840    1.003281
     39          1           0        3.858241   -3.453092    0.748038
     40          1           0        1.781764   -2.674293    0.246255
     41          1           0       -0.334170   -2.541071   -0.727759
     42          1           0       -0.657715   -1.765461    0.834346
     43          1           0        0.227277   -1.644638   -2.676743
     44          1           0       -0.130589   -1.263734   -5.070052
     45          1           0       -2.097637    0.055243   -5.858646
     46          1           0       -3.695712    0.961660   -4.196727
     47          1           0       -7.430331    1.949737    0.451439
     48          1           0       -8.618349    2.211387    2.613030
     49          1           0       -7.373095    1.837564    4.747067
     50          1           0       -4.980760    1.232588    4.679579
     51          1           0       -2.746651    1.582623    2.008692
     52          1           0       -3.000281    0.888397    3.622512
     53          1           0       -3.166081   -0.106790    2.155987
     54          1           0        3.275561    0.693390   -0.232565
     55          1           0        5.681295    1.101738    0.109530
 ---------------------------------------------------------------------

 SCF Done:  E(RB3LYP) =  -1485.80353563     A.U. after   15 cycles

 Excitation energies and oscillator strengths:

 Excited state symmetry could not be determined.
 Excited State   1:      Triplet-?Sym    2.9527 eV  419.91 nm  f=0.0000  <S**2>=2.000
     111 ->117         0.22347
     114 ->119         0.14390
     115 ->117         0.58404
     115 ->119        -0.13769
 This state for optimization and/or second-order correction.
 Total Energy, E(TD-HF/TD-DFT) =  -1485.69502735
 Copying the excited state density for this state as the 1-particle RhoCI density.

 Excited state symmetry could not be determined.
 Excited State   2:      Triplet-?Sym    3.3249 eV  372.90 nm  f=0.0000  <S**2>=2.000
     110 ->120         0.26240
     116 ->118         0.61401
     116 ->124        -0.10429

 Excited state symmetry could not be determined.
 Excited State   3:      Singlet-?Sym    4.1361 eV  299.76 nm  f=0.0064  <S**2>=0.000
     116 ->117         0.70125

 Excited state symmetry could not be determined.
 Excited State   4:      Singlet-?Sym    4.2669 eV  290.57 nm  f=0.2804  <S**2>=0.000
     111 ->117        -0.12061
     111 ->121         0.10181
     113 ->117        -0.14659
     114 ->117         0.20502
     115 ->117         0.61829

 Alpha  occ. eigenvalues --  -19.23723 -19.19912 -19.14282 -19.11511 -14.40115
 Alpha  occ. eigenvalues --  -14.37739 -14.37296 -14.33029 -10.31583 -10.29596
 Alpha  occ. eigenvalues --  -10.29112 -10.27556 -10.27319 -10.25455 -10.25062
 Alpha  occ. eigenvalues --  -10.24720 -10.21945 -10.21501 -10.21168 -10.20955
 Alpha  occ. eigenvalues --  -10.20740 -10.20708 -10.20490 -10.20289 -10.20053
 Alpha  occ. eigenvalues --  -10.20004 -10.19787 -10.19391 -10.18909 -10.18725
 Alpha  occ. eigenvalues --  -10.18534 -10.18451 -10.17201  -1.15437  -1.09449
 Alpha  occ. eigenvalues --   -1.05819  -1.03706  -0.96532  -0.93904  -0.93050
 Alpha  occ. eigenvalues --   -0.88488  -0.86129  -0.85868  -0.84542  -0.79087
 Alpha  occ. eigenvalues --   -0.77108  -0.76909  -0.76749  -0.76114  -0.74685
 Alpha  occ. eigenvalues --   -0.74309  -0.72557  -0.68256  -0.66278  -0.65620
 Alpha  occ. eigenvalues --   -0.64696  -0.64101  -0.61733  -0.60506  -0.59404
 Alpha  occ. eigenvalues --   -0.58359  -0.58004  -0.57231  -0.56487  -0.54948
 Alpha  occ. eigenvalues --   -0.53861  -0.52525  -0.52084  -0.50861  -0.49622
 Alpha  occ. eigenvalues --   -0.48502  -0.48016  -0.47435  -0.47051  -0.46468
 Alpha  occ. eigenvalues --   -0.46165  -0.46047  -0.44867  -0.44711  -0.44461
 Alpha  occ. eigenvalues --   -0.44432  -0.43540  -0.42749  -0.42603  -0.42026
 Alpha  occ. eigenvalues --   -0.41037  -0.40640  -0.40614  -0.40400  -0.40194
 Alpha  occ. eigenvalues --   -0.39523  -0.39110  -0.38684  -0.38085  -0.37631
 Alpha  occ. eigenvalues --   -0.37037  -0.36073  -0.35662  -0.35138  -0.34382
 Alpha  occ. eigenvalues --   -0.34214  -0.33786  -0.33302  -0.32492  -0.32026
 Alpha  occ. eigenvalues --   -0.30880  -0.28204  -0.28026  -0.27568  -0.27112
 Alpha  occ. eigenvalues --   -0.25806  -0.25443  -0.24194  -0.23780  -0.22702
 Alpha  occ. eigenvalues --   -0.22033
 Alpha virt. eigenvalues --   -0.05542  -0.03246  -0.02514  -0.02162  -0.00416
 Alpha virt. eigenvalues --    0.00530   0.01187   0.03643   0.04230   0.04464
 Alpha virt. eigenvalues --    0.07337   0.07944   0.08350   0.08691   0.09809

 Mulliken charges:
               1
     1  C   -0.543440
     2  C    0.569511
     3  O   -0.489408
     4  N   -0.694598
     5  C    0.335875
     6  C   -0.174061
     7  C   -0.202835
     8  C    0.361970
     9  N   -0.724033
    10  C    0.589926
    11  O   -0.473802
    12  C   -0.145064
    13  O   -0.483648
    14  C    0.362032
    15  C   -0.186989
    16  C   -0.126032
    17  C   -0.136647
    18  C   -0.177129
    19  C    0.016142
    20  C    0.576626
    21  N   -0.535833
    22  C    0.361876
    23  C    0.055254
    24  C   -0.164138
    25  C   -0.142714
    26  C   -0.113048
    27  C   -0.197123
    28  C    0.138416
    29  C   -0.510632
    30  N   -0.205409
    31  O   -0.391224
    32  C   -0.175128
    33  C   -0.169563
    34  H    0.181197
    35  H    0.172640
    36  H    0.188430
    37  H    0.334231
    38  H    0.139300
    39  H    0.128841
    40  H    0.332334
    41  H    0.156492
    42  H    0.197525
    43  H    0.136553
    44  H    0.140359
    45  H    0.138889
    46  H    0.169358
    47  H    0.159681
    48  H    0.131740
    49  H    0.129955
    50  H    0.123802
    51  H    0.172554
    52  H    0.139325
    53  H    0.179799
    54  H    0.195074
    55  H    0.146792
 Sum of Mulliken charges =  -0.00000

 Dipole moment (field-independent basis, Debye):
    X=              0.0340    Y=             -5.5425    Z=              0.0031  Tot=              5.5426
 Quadrupole moment (field-independent basis, Debye-Ang):
   XX=           -244.2071   YY=           -178.1780   ZZ=           -170.6723
   XY=             -3.7443   XZ=            -10.7366   YZ=              0.3747

 Normal termination of Gaussian 16 at Sat Nov  5 09:35:15 2022.
