 Gaussian 16, Revision B.01,
 Gaussian 16:  ES64L-G16RevB.01 20-Dec-2017

 -----------------------------
 #p b3lyp/6-31g(d) opt SCF=XQC
 -----------------------------

 ------------------------------
 Gaussian input prepared by ASE
 ------------------------------
 Symbolic Z-matrix:
 Charge =  0 Multiplicity = 1

 SCF Done:  E(RB3LYP) =  -1005.79131189     A.U. after   15 cycles
 SCF Done:  E(RB3LYP) =  -1005.79691722     A.U. after   12 cycles
 SCF Done:  E(RB3LYP) =  -1005.79731051     A.U. after   11 cycles
 SCF Done:  E(RB3LYP) =  -1005.79742474     A.U. after   10 cycles
 SCF Done:  E(RB3LYP) =  -1005.79743594     A.U. after    9 cycles
 SCF Done:  E(RB3LYP) =  -1005.79743781     A.U. after    8 cycles
 Optimization completed.
    -- Stationary point found.

                         Standard orientation:
 ---------------------------------------------------------------------
 Center     Atomic      Atomic             Coordinates (Angstroms)
 Number     Number       Type             X           Y           Z
 ---------------------------------------------------------------------
      1          6           0        7.127362   -1.001815    0.000001
      2          6           0        5.659802   -0.651852    0.000001
      3          6           0        4.693995   -1.666653    0.000003
      4          6           0        3.333832   -1.379453    0.000003
      5          6           0        2.913964   -0.043237    0.000001
      6          6           0        1.488102    0.258788    0.000001
      7          7           0        0.482007   -0.576741    0.000001
      8          6           0       -0.607154    0.262452   -0.000001
      9          6           0       -1.988975   -0.234061   -0.000001
     10          6           0       -2.242527   -1.648695   -0.000003
     11          6           0       -3.522002   -2.130459   -0.000003
     12          6           0       -4.607859   -1.216499   -0.000001
     13          7           0       -5.918909   -1.396929   -0.000001
     14          7           0       -6.495634   -0.154149    0.000001
     15          6           0       -5.554823    0.769409    0.000001
     16          6           0       -5.763682    2.243465    0.000003
     17          7           0       -4.317931    0.156468    0.000000
     18          6           0       -3.037991    0.647824    0.000000
     19          7           0       -0.310378    1.544979    0.000001
     20          8           0        1.091209    1.548861   -0.000002
     21          6           0        3.872479    0.981762   -0.000001
     22          6           0        5.237982    0.697456   -0.000001
     23          6           0        6.244211    1.823697   -0.000003
     24          1           0        7.639942   -0.592558    0.880058
     25          1           0        7.275970   -2.085376    0.000004
     26          1           0        7.639941   -0.592562   -0.880058
     27          1           0        5.018713   -2.704089    0.000005
     28          1           0        2.593990   -2.172756    0.000005
     29          1           0       -1.390943   -2.318864   -0.000004
     30          1           0       -3.742221   -3.191766   -0.000004
     31          1           0       -5.325918    2.720091   -0.886442
     32          1           0       -6.838302    2.436492   -0.000001
     33          1           0       -5.325926    2.720087    0.886454
     34          1           0       -2.914678    1.723566    0.000002
     35          1           0        3.543260    2.016448   -0.000003
     36          1           0        6.897966    1.782400   -0.880537
     37          1           0        6.897967    1.782403    0.880530
     38          1           0        5.746184    2.797435   -0.000005
 ---------------------------------------------------------------------

 The electronic state is 1-A.
 Alpha  occ. eigenvalues --  -19.25452 -14.42436 -14.39449 -14.34908 -14.34406
 Alpha  occ. eigenvalues --  -14.33390 -10.30509 -10.27217 -10.26042 -10.25462
 Alpha  occ. eigenvalues --  -10.25293 -10.23045 -10.22210 -10.21714 -10.21553
 Alpha  occ. eigenvalues --  -10.21483 -10.21404 -10.20864 -10.20822 -10.20475
 Alpha  occ. eigenvalues --  -10.20420 -10.19933 -10.19788  -1.17133  -1.06707
 Alpha  occ. eigenvalues --   -0.95442  -0.94618  -0.89748  -0.87112  -0.85189
 Alpha  occ. eigenvalues --   -0.81129  -0.79856  -0.78101  -0.77481  -0.72477
 Alpha  occ. eigenvalues --   -0.72044  -0.70175  -0.69177  -0.65444  -0.63603
 Alpha  occ. eigenvalues --   -0.62904  -0.61125  -0.59655  -0.58422  -0.54146
 Alpha  occ. eigenvalues --   -0.53140  -0.51502  -0.50135  -0.49452  -0.48451
 Alpha  occ. eigenvalues --   -0.48330  -0.47737  -0.46583  -0.46191  -0.44869
 Alpha  occ. eigenvalues --   -0.43700  -0.42857  -0.42504  -0.42169  -0.41677
 Alpha  occ. eigenvalues --   -0.41416  -0.40592  -0.40151  -0.40036  -0.38372
 Alpha  occ. eigenvalues --   -0.38164  -0.37333  -0.36321  -0.35547  -0.34245
 Alpha  occ. eigenvalues --   -0.34077  -0.32572  -0.31370  -0.30896  -0.30398
 Alpha  occ. eigenvalues --   -0.26651  -0.26076  -0.24885  -0.24567  -0.21932
 Alpha virt. eigenvalues --   -0.07024  -0.05086  -0.02676  -0.01409   0.03088
 Alpha virt. eigenvalues --    0.04930   0.07374   0.07482   0.08116   0.08932
 Alpha virt. eigenvalues --    0.10292   0.11415   0.11723   0.12387   0.13518

 Mulliken charges:
               1
     1  C   -0.535306
     2  C    0.141731
     3  C   -0.192346
     4  C   -0.156375
     5  C    0.078180
     6  C    0.558488
     7  N   -0.554249
     8  C    0.406679
     9  C    0.031655
    10  C   -0.150779
    11  C   -0.170546
    12  C    0.534960
    13  N   -0.394310
    14  N   -0.334465
    15  C    0.482771
    16  C   -0.532737
    17  N   -0.547136
    18  C    0.053359
    19  N   -0.229781
    20  O   -0.389430
    21  C   -0.227925
    22  C    0.127153
    23  C   -0.534709
    24  H    0.167586
    25  H    0.161855
    26  H    0.167586
    27  H    0.134410
    28  H    0.164060
    29  H    0.175102
    30  H    0.168032
    31  H    0.171774
    32  H    0.200840
    33  H    0.171774
    34  H    0.202584
    35  H    0.155385
    36  H    0.165328
    37  H    0.165328
    38  H    0.163476
 Sum of Mulliken charges =  -0.00000

 Dipole moment (field-independent basis, Debye):
    X=              7.8363    Y=              1.4671    Z=              0.0000  Tot=              7.9725
 Quadrupole moment (field-independent basis, Debye-Ang):
   XX=           -144.1337   YY=           -124.5202   ZZ=           -133.4280
   XY=            -17.5390   XZ=             -0.0000   YZ=              0.0000

 Normal termination of Gaussian 16 at Fri Nov  4 21:12:19 2022.
