 Gaussian 16, Revision B.01,
 Gaussian 16:  ES64L-G16RevB.01 20-Dec-2017

 -------------------------------------------------------------------
 #p b3lyp/6-31g(d) 6D 10F nosymm GFInput td=(50-50,nstate=2) SCF=XQC
 -------------------------------------------------------------------

 ------------------------------
 Gaussian input prepared by ASE
 ------------------------------
 Symbolic Z-matrix:
 Charge =  0 Multiplicity = 1

                          Input orientation:
 ---------------------------------------------------------------------
 Center     Atomic      Atomic             Coordinates (Angstroms)
 Number     Number       Type             X           Y           Z
 ---------------------------------------------------------------------
      1          6           0        6.432645    0.706910    1.086029
      2          6           0        4.972557    0.543599    0.742986
      3          6           0        3.986961    0.891593    1.675780
      4          6           0        2.632986    0.753823    1.392411
      5          6           0        2.239783    0.254930    0.144108
      6          6           0        0.820427    0.110157   -0.153834
      7          7           0       -0.201885    0.391602    0.611673
      8          6           0       -1.274004    0.058426   -0.182099
      9          6           0       -2.665179    0.206822    0.263505
     10          6           0       -2.946710    0.718202    1.576786
     11          6           0       -4.235284    0.863664    2.009881
     12          6           0       -5.302616    0.503221    1.146577
     13          7           0       -6.616775    0.537694    1.298911
     14          7           0       -7.168632    0.069211    0.135686
     15          6           0       -6.209834   -0.246004   -0.712506
     16          6           0       -6.389369   -0.790241   -2.086564
     17          7           0       -4.985549    0.007957   -0.127502
     18          6           0       -3.696319   -0.141002   -0.569516
     19          7           0       -0.951886   -0.403588   -1.371945
     20          8           0        0.449274   -0.371304   -1.358929
     21          6           0        3.218291   -0.096970   -0.798262
     22          6           0        4.577662    0.039869   -0.517522
     23          6           0        5.605876   -0.347918   -1.553530
     24          1           0        6.937287    1.388317    0.389070
     25          1           0        6.559699    1.106857    2.096022
     26          1           0        6.969035   -0.249260    1.033540
     27          1           0        4.290977    1.278902    2.644945
     28          1           0        1.877669    1.026226    2.121787
     29          1           0       -2.108730    0.983832    2.210468
     30          1           0       -4.476483    1.246597    2.994794
     31          1           0       -5.926317   -1.778797   -2.200290
     32          1           0       -7.459773   -0.886698   -2.278918
     33          1           0       -5.958303   -0.129327   -2.849432
     34          1           0       -3.551706   -0.531546   -1.569011
     35          1           0        2.909721   -0.483381   -1.764921
     36          1           0        6.274460   -1.136321   -1.184941
     37          1           0        6.242695    0.502141   -1.829759
     38          1           0        5.127350   -0.716093   -2.465481
 ---------------------------------------------------------------------

 SCF Done:  E(RB3LYP) =  -1005.79743622     A.U. after   15 cycles

 Excitation energies and oscillator strengths:

 Excited state symmetry could not be determined.
 Excited State   1:      Triplet-?Sym    2.4761 eV  500.72 nm  f=0.0000  <S**2>=2.000
      79 -> 81         0.14250
      80 -> 81         0.52390
      80 -> 82         0.38218
      80 -> 83        -0.10869
 This state for optimization and/or second-order correction.
 Total Energy, E(TD-HF/TD-DFT) =  -1005.70644059
 Copying the excited state density for this state as the 1-particle RhoCI density.

 Excited state symmetry could not be determined.
 Excited State   2:      Triplet-?Sym    3.0291 eV  409.31 nm  f=0.0000  <S**2>=2.000
      77 -> 84         0.13216
      79 -> 81         0.52659
      79 -> 82        -0.24257
      80 -> 82        -0.25844
      80 -> 83         0.16650

 Excited state symmetry could not be determined.
 Excited State   3:      Singlet-?Sym    3.5467 eV  349.58 nm  f=0.0061  <S**2>=0.000
      80 -> 81         0.68779

 Excited state symmetry could not be determined.
 Excited State   4:      Singlet-?Sym    4.0696 eV  304.66 nm  f=0.0224  <S**2>=0.000
      80 -> 81        -0.11302
      80 -> 82         0.68159

 Alpha  occ. eigenvalues --  -19.25452 -14.42436 -14.39449 -14.34908 -14.34406
 Alpha  occ. eigenvalues --  -14.33390 -10.30509 -10.27217 -10.26042 -10.25462
 Alpha  occ. eigenvalues --  -10.25293 -10.23045 -10.22210 -10.21714 -10.21553
 Alpha  occ. eigenvalues --  -10.21483 -10.21404 -10.20864 -10.20822 -10.20475
 Alpha  occ. eigenvalues --  -10.20420 -10.19932 -10.19788  -1.17133  -1.06707
 Alpha  occ. eigenvalues --   -0.95442  -0.94618  -0.89748  -0.87112  -0.85189
 Alpha  occ. eigenvalues --   -0.81129  -0.79856  -0.78101  -0.77481  -0.72477
 Alpha  occ. eigenvalues --   -0.72044  -0.70175  -0.69177  -0.65444  -0.63603
 Alpha  occ. eigenvalues --   -0.62904  -0.61125  -0.59655  -0.58422  -0.54145
 Alpha  occ. eigenvalues --   -0.53140  -0.51502  -0.50135  -0.49452  -0.48451
 Alpha  occ. eigenvalues --   -0.48330  -0.47737  -0.46583  -0.46191  -0.44869
 Alpha  occ. eigenvalues --   -0.43700  -0.42857  -0.42504  -0.42169  -0.41677
 Alpha  occ. eigenvalues --   -0.41416  -0.40592  -0.40151  -0.40036  -0.38372
 Alpha  occ. eigenvalues --   -0.38164  -0.37333  -0.36321  -0.35547  -0.34245
 Alpha  occ. eigenvalues --   -0.34077  -0.32572  -0.31369  -0.30896  -0.30398
 Alpha  occ. eigenvalues --   -0.26651  -0.26076  -0.24885  -0.24567  -0.21932
 Alpha virt. eigenvalues --   -0.07024  -0.05086  -0.02676  -0.01409   0.03088
 Alpha virt. eigenvalues --    0.04930   0.07374   0.07482   0.08116   0.08932
 Alpha virt. eigenvalues --    0.10292   0.11415   0.11723   0.12387   0.13518

 Mulliken charges:
               1
     1  C   -0.535312
     2  C    0.141737
     3  C   -0.192345
     4  C   -0.156381
     5  C    0.078183
     6  C    0.558490
     7  N   -0.554254
     8  C    0.406687
     9  C    0.031637
    10  C   -0.150773
    11  C   -0.170560
    12  C    0.534971
    13  N   -0.394306
    14  N   -0.334467
    15  C    0.482778
    16  C   -0.532735
    17  N   -0.547160
    18  C    0.053380
    19  N   -0.229778
    20  O   -0.389430
    21  C   -0.227916
    22  C    0.127142
    23  C   -0.534701
    24  H    0.167587
    25  H    0.161856
    26  H    0.167587
    27  H    0.134410
    28  H    0.164062
    29  H    0.175102
    30  H    0.168032
    31  H    0.171774
    32  H    0.200839
    33  H    0.171774
    34  H    0.202583
    35  H    0.155384
    36  H    0.165326
    37  H    0.165326
    38  H    0.163475
 Sum of Mulliken charges =  -0.00000

 Dipole moment (field-independent basis, Debye):
    X=              7.8626    Y=             -0.3482    Z=             -1.2721  Tot=              7.9725
 Quadrupole moment (field-independent basis, Debye-Ang):
   XX=           -155.3899   YY=           -132.0514   ZZ=           -125.5064
   XY=              7.6462   XZ=             17.4184   YZ=              3.2583

 Normal termination of Gaussian 16 at Sat Nov  5 09:29:27 2022.
