 Gaussian 16, Revision B.01,
 Gaussian 16:  ES64L-G16RevB.01 20-Dec-2017

 -----------------------------
 #p b3lyp/6-31g(d) opt SCF=XQC
 -----------------------------

 ------------------------------
 Gaussian input prepared by ASE
 ------------------------------
 Symbolic Z-matrix:
 Charge =  0 Multiplicity = 1

 SCF Done:  E(RB3LYP) =  -1619.59460462     A.U. after   15 cycles
 SCF Done:  E(RB3LYP) =  -1619.60222794     A.U. after   13 cycles
 SCF Done:  E(RB3LYP) =  -1619.60229801     A.U. after   12 cycles
 SCF Done:  E(RB3LYP) =  -1619.60333764     A.U. after   12 cycles
 SCF Done:  E(RB3LYP) =  -1619.60342903     A.U. after   12 cycles
 SCF Done:  E(RB3LYP) =  -1619.60351320     A.U. after   11 cycles
 SCF Done:  E(RB3LYP) =  -1619.60353474     A.U. after   10 cycles
 SCF Done:  E(RB3LYP) =  -1619.60354005     A.U. after   10 cycles
 SCF Done:  E(RB3LYP) =  -1619.60355056     A.U. after    9 cycles
 SCF Done:  E(RB3LYP) =  -1619.60355343     A.U. after    9 cycles
 SCF Done:  E(RB3LYP) =  -1619.60355525     A.U. after   10 cycles
 SCF Done:  E(RB3LYP) =  -1619.60355600     A.U. after    8 cycles
 SCF Done:  E(RB3LYP) =  -1619.60355653     A.U. after    9 cycles
 SCF Done:  E(RB3LYP) =  -1619.60355691     A.U. after    8 cycles
 SCF Done:  E(RB3LYP) =  -1619.60355709     A.U. after    8 cycles
 SCF Done:  E(RB3LYP) =  -1619.60355715     A.U. after    7 cycles
 SCF Done:  E(RB3LYP) =  -1619.60355719     A.U. after    6 cycles
 Optimization completed.
    -- Stationary point found.

                         Standard orientation:
 ---------------------------------------------------------------------
 Center     Atomic      Atomic             Coordinates (Angstroms)
 Number     Number       Type             X           Y           Z
 ---------------------------------------------------------------------
      1          6           0        8.644978    0.273123    1.480315
      2          8           0        7.261845    0.178041    1.107451
      3          6           0        6.751515   -1.077196    1.101363
      4          8           0        7.409728   -2.059367    1.383815
      5          6           0        5.314099   -1.111479    0.713611
      6          6           0        4.673526   -2.363031    0.680679
      7          6           0        3.336090   -2.428661    0.347814
      8          6           0        2.603409   -1.265495    0.032429
      9          7           0        1.270552   -1.406043   -0.260087
     10          6           0        0.543088   -0.345012   -0.501460
     11          6           0       -0.868055   -0.518855   -0.788024
     12          6           0       -1.803599    0.472798   -1.050576
     13          7           0       -3.035585   -0.078540   -1.279755
     14          6           0       -4.244563    0.665262   -1.580914
     15          6           0       -5.259135    0.716956   -0.447168
     16          6           0       -4.858200    0.698202    0.893936
     17          6           0       -5.797217    0.794955    1.915853
     18          6           0       -7.162104    0.915781    1.606586
     19          6           0       -8.134195    1.016170    2.656046
     20          7           0       -8.924156    1.099303    3.505969
     21          6           0       -7.571288    0.933290    0.263347
     22          6           0       -6.622151    0.830353   -0.748425
     23          6           0       -2.938615   -1.464617   -1.170417
     24          6           0       -3.930572   -2.436250   -1.322394
     25          6           0       -3.550223   -3.765726   -1.168678
     26          6           0       -2.218849   -4.106202   -0.868183
     27          6           0       -1.237469   -3.131917   -0.713580
     28          6           0       -1.590628   -1.781052   -0.864364
     29          6           0        1.122909    1.036201   -0.496732
     30          8           0        0.441306    2.048366   -0.672889
     31          7           0        2.496634    1.122090   -0.311079
     32          6           0        3.125361    2.472273   -0.407988
     33          6           0        2.850966    3.318200    0.837832
     34          6           0        2.778350    3.202545   -1.726263
     35          7           0        3.818080    4.208325   -1.974879
     36          6           0        3.258483   -0.003796    0.036314
     37          6           0        4.614004    0.054223    0.397352
     38          1           0        8.797855   -0.115048    2.490793
     39          1           0        8.886979    1.335494    1.436340
     40          1           0        9.270095   -0.293648    0.785168
     41          1           0        5.243935   -3.251238    0.927633
     42          1           0        2.801293   -3.372603    0.325225
     43          1           0       -1.655810    1.539520   -1.090140
     44          1           0       -3.935034    1.682697   -1.846921
     45          1           0       -4.712726    0.236071   -2.475054
     46          1           0       -3.805631    0.598595    1.140536
     47          1           0       -5.482070    0.776522    2.954075
     48          1           0       -8.626097    1.019410    0.023425
     49          1           0       -6.946794    0.837563   -1.786332
     50          1           0       -4.960133   -2.169081   -1.540836
     51          1           0       -4.294352   -4.549684   -1.278359
     52          1           0       -1.952584   -5.153299   -0.752026
     53          1           0       -0.213901   -3.394495   -0.480163
     54          1           0        4.197034    2.285654   -0.470320
     55          1           0        1.777592    3.481671    0.961231
     56          1           0        3.348044    4.285073    0.717625
     57          1           0        3.241132    2.831819    1.738593
     58          1           0        2.671729    2.456861   -2.531835
     59          1           0        1.819361    3.710553   -1.629413
     60          1           0        4.640176    3.775226   -2.392872
     61          1           0        3.483778    4.895160   -2.646538
     62          1           0        5.144929    0.992687    0.462101
 ---------------------------------------------------------------------

 The electronic state is 1-A.
 Alpha  occ. eigenvalues --  -19.19631 -19.13641 -19.12661 -14.40077 -14.40046
 Alpha  occ. eigenvalues --  -14.33934 -14.33838 -14.32303 -10.31787 -10.30183
 Alpha  occ. eigenvalues --  -10.26038 -10.25272 -10.24977 -10.24579 -10.24398
 Alpha  occ. eigenvalues --  -10.23760 -10.23517 -10.23235 -10.23151 -10.23134
 Alpha  occ. eigenvalues --  -10.22662 -10.22519 -10.22412 -10.22118 -10.21767
 Alpha  occ. eigenvalues --  -10.21335 -10.21255 -10.20858 -10.19861 -10.19767
 Alpha  occ. eigenvalues --  -10.19495 -10.19468 -10.19124 -10.18881 -10.18284
 Alpha  occ. eigenvalues --  -10.18220 -10.17657  -1.10396  -1.05185  -1.01434
 Alpha  occ. eigenvalues --   -1.00450  -0.97697  -0.93531  -0.91039  -0.88826
 Alpha  occ. eigenvalues --   -0.88715  -0.86275  -0.85057  -0.82349  -0.79643
 Alpha  occ. eigenvalues --   -0.78103  -0.77742  -0.77388  -0.75649  -0.75015
 Alpha  occ. eigenvalues --   -0.73415  -0.72820  -0.71084  -0.67890  -0.66831
 Alpha  occ. eigenvalues --   -0.65642  -0.64193  -0.64099  -0.63437  -0.62068
 Alpha  occ. eigenvalues --   -0.60857  -0.58337  -0.57887  -0.57704  -0.57100
 Alpha  occ. eigenvalues --   -0.55571  -0.54032  -0.52113  -0.51174  -0.50929
 Alpha  occ. eigenvalues --   -0.50372  -0.49671  -0.49157  -0.48407  -0.48026
 Alpha  occ. eigenvalues --   -0.47989  -0.47241  -0.46932  -0.46602  -0.46224
 Alpha  occ. eigenvalues --   -0.45697  -0.45316  -0.45150  -0.44152  -0.43996
 Alpha  occ. eigenvalues --   -0.43493  -0.42811  -0.42502  -0.42335  -0.41644
 Alpha  occ. eigenvalues --   -0.41584  -0.40767  -0.40503  -0.40181  -0.39647
 Alpha  occ. eigenvalues --   -0.38971  -0.38792  -0.38450  -0.37835  -0.37689
 Alpha  occ. eigenvalues --   -0.36725  -0.36447  -0.36000  -0.35974  -0.35807
 Alpha  occ. eigenvalues --   -0.34882  -0.34637  -0.34378  -0.34109  -0.33435
 Alpha  occ. eigenvalues --   -0.33240  -0.31162  -0.30406  -0.29570  -0.28696
 Alpha  occ. eigenvalues --   -0.28135  -0.27729  -0.26715  -0.25145  -0.24548
 Alpha  occ. eigenvalues --   -0.24492  -0.23236  -0.22941  -0.20242
 Alpha virt. eigenvalues --   -0.07961  -0.05776  -0.03164  -0.02823  -0.01617
 Alpha virt. eigenvalues --   -0.00558   0.02030   0.03109   0.03373   0.06242
 Alpha virt. eigenvalues --    0.06825   0.07172   0.07612   0.08771   0.09338

 Mulliken charges:
               1
     1  C   -0.216683
     2  O   -0.472544
     3  C    0.596115
     4  O   -0.489664
     5  C    0.050904
     6  C   -0.166190
     7  C   -0.178561
     8  C    0.284074
     9  N   -0.604594
    10  C    0.230131
    11  C   -0.005357
    12  C    0.004982
    13  N   -0.515681
    14  C   -0.235805
    15  C    0.167109
    16  C   -0.174462
    17  C   -0.135497
    18  C    0.129259
    19  C    0.239135
    20  N   -0.474301
    21  C   -0.133665
    22  C   -0.190354
    23  C    0.298228
    24  C   -0.162849
    25  C   -0.148675
    26  C   -0.137451
    27  C   -0.198442
    28  C    0.072324
    29  C    0.608926
    30  O   -0.557352
    31  N   -0.605753
    32  C    0.046867
    33  C   -0.457247
    34  C   -0.158457
    35  N   -0.726214
    36  C    0.364463
    37  C   -0.253148
    38  H    0.173355
    39  H    0.164069
    40  H    0.172257
    41  H    0.164396
    42  H    0.151463
    43  H    0.202843
    44  H    0.188714
    45  H    0.175903
    46  H    0.165320
    47  H    0.165868
    48  H    0.162853
    49  H    0.141424
    50  H    0.129792
    51  H    0.127942
    52  H    0.125876
    53  H    0.159322
    54  H    0.148310
    55  H    0.176817
    56  H    0.176129
    57  H    0.145416
    58  H    0.126018
    59  H    0.182192
    60  H    0.297321
    61  H    0.305610
    62  H    0.177220
 Sum of Mulliken charges =  -0.00000

 Dipole moment (field-independent basis, Debye):
    X=              2.2619    Y=              2.6810    Z=             -5.1681  Tot=              6.2460
 Quadrupole moment (field-independent basis, Debye-Ang):
   XX=           -228.1507   YY=           -212.4379   ZZ=           -215.7665
   XY=             20.4157   XZ=             32.1319   YZ=             -8.6958

 Normal termination of Gaussian 16 at Fri Nov  4 21:43:46 2022.
