 Gaussian 16, Revision B.01,
 Gaussian 16:  ES64L-G16RevB.01 20-Dec-2017

 -------------------------------------------------------------------
 #p b3lyp/6-31g(d) 6D 10F nosymm GFInput td=(50-50,nstate=2) SCF=XQC
 -------------------------------------------------------------------

 ------------------------------
 Gaussian input prepared by ASE
 ------------------------------
 Symbolic Z-matrix:
 Charge =  0 Multiplicity = 1

                          Input orientation:
 ---------------------------------------------------------------------
 Center     Atomic      Atomic             Coordinates (Angstroms)
 Number     Number       Type             X           Y           Z
 ---------------------------------------------------------------------
      1          6           0        8.603247   -0.330581   -0.065819
      2          8           0        7.176406   -0.221510   -0.181368
      3          6           0        6.624783   -0.927826   -1.197697
      4          8           0        7.281720   -1.603536   -1.965508
      5          6           0        5.144316   -0.780658   -1.262870
      6          6           0        4.460091   -1.477118   -2.275087
      7          6           0        3.085673   -1.381373   -2.350267
      8          6           0        2.356872   -0.592006   -1.436487
      9          7           0        0.990445   -0.568891   -1.555516
     10          6           0        0.274476    0.105261   -0.691711
     11          6           0       -1.169552    0.097120   -0.827296
     12          6           0       -2.096811    0.729461   -0.010053
     13          7           0       -3.369173    0.496540   -0.458524
     14          6           0       -4.581612    1.001477    0.158401
     15          6           0       -5.405081   -0.046083    0.894556
     16          6           0       -4.801649   -1.145179    1.517065
     17          6           0       -5.566224   -2.066077    2.226149
     18          6           0       -6.957107   -1.896334    2.325121
     19          6           0       -7.749916   -2.842398    3.055067
     20          7           0       -8.394580   -3.607937    3.648091
     21          6           0       -7.569060   -0.797015    1.701390
     22          6           0       -6.793150    0.113227    0.991065
     23          6           0       -3.308255   -0.306665   -1.595941
     24          6           0       -4.347384   -0.796514   -2.390552
     25          6           0       -3.997719   -1.575648   -3.488953
     26          6           0       -2.649490   -1.856137   -3.775975
     27          6           0       -1.620295   -1.368328   -2.976574
     28          6           0       -1.941865   -0.577454   -1.861494
     29          6           0        0.899192    0.886203    0.423556
     30          8           0        0.236801    1.484931    1.273765
     31          7           0        2.287318    0.929692    0.436894
     32          6           0        2.943363    1.786031    1.468384
     33          6           0        2.897649    1.141151    2.855826
     34          6           0        2.423296    3.242394    1.458327
     35          7           0        3.448624    4.094418    2.072491
     36          6           0        3.051279    0.135961   -0.432054
     37          6           0        4.447640    0.014466   -0.351038
     38          1           0        8.896640   -1.370397    0.100975
     39          1           0        8.875004    0.287232    0.790678
     40          1           0        9.091158    0.033469   -0.973916
     41          1           0        5.028347   -2.083828   -2.970967
     42          1           0        2.518967   -1.914419   -3.106739
     43          1           0       -1.917207    1.335118    0.863003
     44          1           0       -4.279368    1.791436    0.855794
     45          1           0       -5.198707    1.481500   -0.610779
     46          1           0       -3.728015   -1.286284    1.439386
     47          1           0       -5.094521   -2.918446    2.704193
     48          1           0       -8.644372   -0.668839    1.771222
     49          1           0       -7.274598    0.958409    0.504678
     50          1           0       -5.387671   -0.589382   -2.158187
     51          1           0       -4.778620   -1.975451   -4.129811
     52          1           0       -2.407726   -2.469407   -4.639834
     53          1           0       -0.583427   -1.586423   -3.196715
     54          1           0        3.984610    1.863204    1.156865
     55          1           0        1.863346    1.000059    3.178921
     56          1           0        3.405794    1.802689    3.563310
     57          1           0        3.404567    0.169966    2.856228
     58          1           0        2.165030    3.523705    0.423668
     59          1           0        1.510657    3.316136    2.048891
     60          1           0        4.179037    4.315894    1.397523
     61          1           0        3.039936    4.982449    2.353561
     62          1           0        5.016870    0.508546    0.422687
 ---------------------------------------------------------------------

 SCF Done:  E(RB3LYP) =  -1619.60355163     A.U. after   16 cycles

 Excitation energies and oscillator strengths:

 Excited state symmetry could not be determined.
 Excited State   1:      Triplet-?Sym    2.0694 eV  599.13 nm  f=0.0000  <S**2>=2.000
     124 ->130         0.13965
     129 ->130         0.66964
 This state for optimization and/or second-order correction.
 Total Energy, E(TD-HF/TD-DFT) =  -1619.52750267
 Copying the excited state density for this state as the 1-particle RhoCI density.

 Excited state symmetry could not be determined.
 Excited State   2:      Triplet-?Sym    2.9187 eV  424.80 nm  f=0.0000  <S**2>=2.000
     124 ->130         0.12533
     127 ->130         0.55524
     128 ->130        -0.36843

 Excited state symmetry could not be determined.
 Excited State   3:      Singlet-?Sym    3.0736 eV  403.39 nm  f=0.7575  <S**2>=0.000
     129 ->130         0.69917

 Excited state symmetry could not be determined.
 Excited State   4:      Singlet-?Sym    3.4247 eV  362.03 nm  f=0.0015  <S**2>=0.000
     126 ->130         0.68799
     126 ->133        -0.10624

 Alpha  occ. eigenvalues --  -19.19631 -19.13642 -19.12661 -14.40077 -14.40046
 Alpha  occ. eigenvalues --  -14.33934 -14.33838 -14.32303 -10.31787 -10.30183
 Alpha  occ. eigenvalues --  -10.26038 -10.25272 -10.24977 -10.24579 -10.24398
 Alpha  occ. eigenvalues --  -10.23760 -10.23517 -10.23235 -10.23151 -10.23134
 Alpha  occ. eigenvalues --  -10.22662 -10.22519 -10.22412 -10.22118 -10.21767
 Alpha  occ. eigenvalues --  -10.21335 -10.21255 -10.20858 -10.19861 -10.19767
 Alpha  occ. eigenvalues --  -10.19494 -10.19468 -10.19124 -10.18881 -10.18284
 Alpha  occ. eigenvalues --  -10.18220 -10.17657  -1.10396  -1.05185  -1.01434
 Alpha  occ. eigenvalues --   -1.00450  -0.97697  -0.93531  -0.91039  -0.88826
 Alpha  occ. eigenvalues --   -0.88715  -0.86275  -0.85057  -0.82349  -0.79643
 Alpha  occ. eigenvalues --   -0.78103  -0.77742  -0.77388  -0.75649  -0.75015
 Alpha  occ. eigenvalues --   -0.73415  -0.72820  -0.71084  -0.67890  -0.66831
 Alpha  occ. eigenvalues --   -0.65642  -0.64193  -0.64099  -0.63437  -0.62068
 Alpha  occ. eigenvalues --   -0.60857  -0.58337  -0.57887  -0.57704  -0.57100
 Alpha  occ. eigenvalues --   -0.55571  -0.54032  -0.52113  -0.51174  -0.50929
 Alpha  occ. eigenvalues --   -0.50372  -0.49671  -0.49157  -0.48407  -0.48026
 Alpha  occ. eigenvalues --   -0.47989  -0.47241  -0.46932  -0.46602  -0.46224
 Alpha  occ. eigenvalues --   -0.45697  -0.45316  -0.45150  -0.44152  -0.43996
 Alpha  occ. eigenvalues --   -0.43493  -0.42811  -0.42502  -0.42335  -0.41644
 Alpha  occ. eigenvalues --   -0.41584  -0.40767  -0.40503  -0.40181  -0.39647
 Alpha  occ. eigenvalues --   -0.38971  -0.38792  -0.38450  -0.37835  -0.37689
 Alpha  occ. eigenvalues --   -0.36725  -0.36447  -0.36000  -0.35974  -0.35807
 Alpha  occ. eigenvalues --   -0.34882  -0.34637  -0.34378  -0.34109  -0.33435
 Alpha  occ. eigenvalues --   -0.33240  -0.31162  -0.30406  -0.29571  -0.28696
 Alpha  occ. eigenvalues --   -0.28135  -0.27729  -0.26715  -0.25145  -0.24548
 Alpha  occ. eigenvalues --   -0.24492  -0.23236  -0.22941  -0.20242
 Alpha virt. eigenvalues --   -0.07961  -0.05776  -0.03164  -0.02823  -0.01617
 Alpha virt. eigenvalues --   -0.00558   0.02030   0.03109   0.03373   0.06242
 Alpha virt. eigenvalues --    0.06825   0.07172   0.07612   0.08771   0.09338

 Mulliken charges:
               1
     1  C   -0.216684
     2  O   -0.472544
     3  C    0.596126
     4  O   -0.489671
     5  C    0.050914
     6  C   -0.166205
     7  C   -0.178564
     8  C    0.284077
     9  N   -0.604595
    10  C    0.230123
    11  C   -0.005353
    12  C    0.004991
    13  N   -0.515675
    14  C   -0.235815
    15  C    0.167142
    16  C   -0.174489
    17  C   -0.135492
    18  C    0.129254
    19  C    0.239134
    20  N   -0.474299
    21  C   -0.133664
    22  C   -0.190354
    23  C    0.298214
    24  C   -0.162849
    25  C   -0.148671
    26  C   -0.137452
    27  C   -0.198440
    28  C    0.072330
    29  C    0.608923
    30  O   -0.557347
    31  N   -0.605763
    32  C    0.046865
    33  C   -0.457249
    34  C   -0.158452
    35  N   -0.726220
    36  C    0.364487
    37  C   -0.253162
    38  H    0.173354
    39  H    0.164069
    40  H    0.172257
    41  H    0.164396
    42  H    0.151463
    43  H    0.202843
    44  H    0.188714
    45  H    0.175903
    46  H    0.165323
    47  H    0.165868
    48  H    0.162854
    49  H    0.141424
    50  H    0.129792
    51  H    0.127942
    52  H    0.125875
    53  H    0.159321
    54  H    0.148307
    55  H    0.176817
    56  H    0.176128
    57  H    0.145417
    58  H    0.126017
    59  H    0.182192
    60  H    0.297321
    61  H    0.305611
    62  H    0.177221
 Sum of Mulliken charges =  -0.00000

 Dipole moment (field-independent basis, Debye):
    X=              1.5301    Y=              6.0257    Z=             -0.6021  Tot=              6.2461
 Quadrupole moment (field-independent basis, Debye-Ang):
   XX=           -217.0925   YY=           -213.5419   ZZ=           -228.5698
   XY=            -18.7819   XZ=             32.8538   YZ=             10.9365

 Normal termination of Gaussian 16 at Sat Nov  5 09:33:58 2022.
