 Gaussian 16, Revision B.01,
 Gaussian 16:  ES64L-G16RevB.01 20-Dec-2017

 -------------------------------------------------------------------
 #p b3lyp/6-31g(d) 6D 10F nosymm GFInput td=(50-50,nstate=2) SCF=XQC
 -------------------------------------------------------------------

 ------------------------------
 Gaussian input prepared by ASE
 ------------------------------
 Symbolic Z-matrix:
 Charge =  0 Multiplicity = 1

                          Input orientation:
 ---------------------------------------------------------------------
 Center     Atomic      Atomic             Coordinates (Angstroms)
 Number     Number       Type             X           Y           Z
 ---------------------------------------------------------------------
      1          7           0       -6.376541    3.181321    4.499651
      2          6           0       -6.029690    2.436983    3.676939
      3          6           0       -5.569016    1.544338    2.641398
      4          6           0       -4.495354    1.921116    1.824591
      5          6           0       -4.079284    1.044338    0.829600
      6          6           0       -4.739738   -0.182755    0.666913
      7          6           0       -4.399680   -1.159106   -0.392125
      8          6           0       -5.402871   -1.862251   -1.065000
      9          6           0       -5.082359   -2.806169   -2.042686
     10          6           0       -3.738820   -3.019285   -2.320888
     11          7           0       -2.747334   -2.362181   -1.701693
     12          6           0       -3.064891   -1.466047   -0.775440
     13          8           0       -2.067246   -0.807319   -0.140561
     14          6           0       -0.716173   -1.194641   -0.425034
     15          6           0       -0.045225   -0.629147   -1.696870
     16          6           0        1.217315   -0.367715   -0.837229
     17          7           0        1.970724    0.825958   -1.127133
     18          6           0        3.251175    1.035008   -0.655751
     19          6           0        3.851763    2.323099   -0.856330
     20          6           0        5.132141    2.524701   -0.425530
     21          6           0        5.848290    1.466617    0.202980
     22          6           0        7.177221    1.595530    0.672740
     23          6           0        7.815449    0.530271    1.273535
     24          6           0        7.138349   -0.702272    1.423618
     25          6           0        5.842470   -0.855686    0.975823
     26          6           0        5.161257    0.221559    0.353516
     27          7           0        3.876655    0.029889   -0.068205
     28          6           0        0.317985   -0.452974    0.438715
     29          6           0       -5.794724   -0.454337    1.562204
     30          7           0       -6.211776    0.370389    2.519508
     31          1           0       -4.009163    2.880163    1.969604
     32          1           0       -3.252753    1.307217    0.181117
     33          1           0       -6.443219   -1.652607   -0.833082
     34          1           0       -5.855515   -3.349976   -2.574947
     35          1           0       -3.429820   -3.740768   -3.074690
     36          1           0       -0.634877   -2.282167   -0.368336
     37          1           0        0.035944   -1.278714   -2.571040
     38          1           0       -0.528901    0.311622   -1.988800
     39          1           0        1.914028   -1.206270   -0.867432
     40          1           0        1.435869    1.655652   -1.345746
     41          1           0        3.290727    3.113187   -1.349072
     42          1           0        5.615544    3.489712   -0.561113
     43          1           0        7.687384    2.548864    0.551212
     44          1           0        8.835690    0.634373    1.631839
     45          1           0        7.647382   -1.537427    1.897958
     46          1           0        5.310114   -1.795684    1.084451
     47          1           0        0.716270   -0.955779    1.323571
     48          1           0       -0.058135    0.536994    0.719755
     49          1           0       -6.316640   -1.407621    1.505731
 ---------------------------------------------------------------------

 SCF Done:  E(RB3LYP) =  -1274.95483257     A.U. after   15 cycles

 Excitation energies and oscillator strengths:

 Excited state symmetry could not be determined.
 Excited State   1:      Triplet-?Sym    2.8906 eV  428.92 nm  f=0.0000  <S**2>=2.000
     102 ->106        -0.36758
     103 ->106         0.55248
     103 ->109         0.18386
 This state for optimization and/or second-order correction.
 Total Energy, E(TD-HF/TD-DFT) =  -1274.84860464
 Copying the excited state density for this state as the 1-particle RhoCI density.

 Excited state symmetry could not be determined.
 Excited State   2:      Triplet-?Sym    2.9672 eV  417.85 nm  f=0.0000  <S**2>=2.000
      97 ->104         0.12109
      98 ->104        -0.10708
      99 ->104         0.19093
     101 ->104         0.61089
     101 ->108         0.11185

 Excited state symmetry could not be determined.
 Excited State   3:      Singlet-?Sym    3.2152 eV  385.62 nm  f=0.0002  <S**2>=0.000
     103 ->104         0.70645

 Excited state symmetry could not be determined.
 Excited State   4:      Singlet-?Sym    3.9105 eV  317.05 nm  f=0.0985  <S**2>=0.000
     102 ->109         0.15408
     103 ->106         0.67502

 Alpha  occ. eigenvalues --  -19.19690 -14.35689 -14.35672 -14.34499 -14.33902
 Alpha  occ. eigenvalues --  -14.31279 -10.29957 -10.27170 -10.26222 -10.25365
 Alpha  occ. eigenvalues --  -10.24542 -10.24179 -10.23506 -10.22977 -10.22933
 Alpha  occ. eigenvalues --  -10.22862 -10.22758 -10.22756 -10.22592 -10.21940
 Alpha  occ. eigenvalues --  -10.20877 -10.20729 -10.19918 -10.19534 -10.19396
 Alpha  occ. eigenvalues --  -10.19161 -10.19106 -10.18962 -10.18632 -10.18107
 Alpha  occ. eigenvalues --   -1.09119  -0.97229  -0.96981  -0.95360  -0.91023
 Alpha  occ. eigenvalues --   -0.90259  -0.85664  -0.84893  -0.83353  -0.81815
 Alpha  occ. eigenvalues --   -0.80281  -0.79656  -0.76734  -0.73936  -0.73464
 Alpha  occ. eigenvalues --   -0.69354  -0.68585  -0.67679  -0.66154  -0.64428
 Alpha  occ. eigenvalues --   -0.63334  -0.62890  -0.61172  -0.59701  -0.58181
 Alpha  occ. eigenvalues --   -0.57512  -0.55770  -0.54337  -0.53355  -0.51820
 Alpha  occ. eigenvalues --   -0.51345  -0.50830  -0.50445  -0.49968  -0.48268
 Alpha  occ. eigenvalues --   -0.46826  -0.46289  -0.45505  -0.44657  -0.44469
 Alpha  occ. eigenvalues --   -0.43680  -0.43252  -0.42909  -0.42706  -0.42290
 Alpha  occ. eigenvalues --   -0.42006  -0.41408  -0.40413  -0.40250  -0.39927
 Alpha  occ. eigenvalues --   -0.38986  -0.38102  -0.37566  -0.36114  -0.35609
 Alpha  occ. eigenvalues --   -0.35491  -0.35248  -0.34721  -0.33935  -0.33521
 Alpha  occ. eigenvalues --   -0.33054  -0.32259  -0.31672  -0.30110  -0.30101
 Alpha  occ. eigenvalues --   -0.28859  -0.27801  -0.27652  -0.27226  -0.25345
 Alpha  occ. eigenvalues --   -0.23999  -0.23068  -0.20436
 Alpha virt. eigenvalues --   -0.07466  -0.04223  -0.04104  -0.02911  -0.01159
 Alpha virt. eigenvalues --   -0.00137   0.02943   0.03466   0.06640   0.07073
 Alpha virt. eigenvalues --    0.08491   0.08562   0.09023   0.09930   0.10264

 Mulliken charges:
               1
     1  N   -0.475620
     2  C    0.296971
     3  C    0.283976
     4  C   -0.142515
     5  C   -0.113891
     6  C    0.082024
     7  C    0.005545
     8  C   -0.146298
     9  C   -0.156808
    10  C    0.045553
    11  N   -0.502285
    12  C    0.524559
    13  O   -0.526946
    14  C    0.157172
    15  C   -0.313959
    16  C    0.068598
    17  N   -0.664960
    18  C    0.552177
    19  C   -0.200570
    20  C   -0.145193
    21  C    0.142906
    22  C   -0.199082
    23  C   -0.138506
    24  C   -0.135384
    25  C   -0.155582
    26  C    0.256835
    27  N   -0.625938
    28  C   -0.310944
    29  C    0.009583
    30  N   -0.447767
    31  H    0.165214
    32  H    0.162932
    33  H    0.155067
    34  H    0.144601
    35  H    0.150624
    36  H    0.160335
    37  H    0.168131
    38  H    0.134305
    39  H    0.178779
    40  H    0.311344
    41  H    0.126495
    42  H    0.138607
    43  H    0.127431
    44  H    0.128038
    45  H    0.129871
    46  H    0.132770
    47  H    0.164391
    48  H    0.141603
    49  H    0.155810
 Sum of Mulliken charges =  -0.00000

 Dipole moment (field-independent basis, Debye):
    X=              2.0573    Y=             -1.1304    Z=             -5.5094  Tot=              5.9886
 Quadrupole moment (field-independent basis, Debye-Ang):
   XX=           -189.8656   YY=           -163.0412   ZZ=           -193.2947
   XY=             29.1850   XZ=             39.3301   YZ=            -13.9306

 Normal termination of Gaussian 16 at Sat Nov  5 09:48:06 2022.
