 Gaussian 16, Revision B.01,
 Gaussian 16:  ES64L-G16RevB.01 20-Dec-2017

 -----------------------------
 #p b3lyp/6-31g(d) opt SCF=XQC
 -----------------------------

 ------------------------------
 Gaussian input prepared by ASE
 ------------------------------
 Symbolic Z-matrix:
 Charge =  0 Multiplicity = 1

 SCF Done:  E(RB3LYP) =  -1274.94679008     A.U. after   15 cycles
 SCF Done:  E(RB3LYP) =  -1274.95305082     A.U. after   12 cycles
 SCF Done:  E(RB3LYP) =  -1274.95392288     A.U. after   12 cycles
 SCF Done:  E(RB3LYP) =  -1274.95419062     A.U. after   13 cycles
 SCF Done:  E(RB3LYP) =  -1274.95449467     A.U. after   12 cycles
 SCF Done:  E(RB3LYP) =  -1274.95458153     A.U. after   12 cycles
 SCF Done:  E(RB3LYP) =  -1274.95463004     A.U. after   10 cycles
 SCF Done:  E(RB3LYP) =  -1274.95464499     A.U. after   10 cycles
 SCF Done:  E(RB3LYP) =  -1274.95464974     A.U. after   10 cycles
 SCF Done:  E(RB3LYP) =  -1274.95465111     A.U. after    9 cycles
 SCF Done:  E(RB3LYP) =  -1274.95472196     A.U. after   11 cycles
 SCF Done:  E(RB3LYP) =  -1274.95478335     A.U. after   12 cycles
 SCF Done:  E(RB3LYP) =  -1274.95481054     A.U. after   11 cycles
 SCF Done:  E(RB3LYP) =  -1274.95481826     A.U. after   11 cycles
 SCF Done:  E(RB3LYP) =  -1274.95482724     A.U. after   10 cycles
 SCF Done:  E(RB3LYP) =  -1274.95483273     A.U. after   10 cycles
 SCF Done:  E(RB3LYP) =  -1274.95483562     A.U. after   10 cycles
 SCF Done:  E(RB3LYP) =  -1274.95483612     A.U. after    8 cycles
 SCF Done:  E(RB3LYP) =  -1274.95483617     A.U. after    7 cycles
 SCF Done:  E(RB3LYP) =  -1274.95483618     A.U. after    7 cycles
 Optimization completed.
    -- Stationary point found.

                         Standard orientation:
 ---------------------------------------------------------------------
 Center     Atomic      Atomic             Coordinates (Angstroms)
 Number     Number       Type             X           Y           Z
 ---------------------------------------------------------------------
      1          7           0       -6.027548    5.245445    0.263451
      2          6           0       -5.685652    4.134811    0.235202
      3          6           0       -5.228196    2.768073    0.170848
      4          6           0       -4.083851    2.451398   -0.572172
      5          6           0       -3.672105    1.124847   -0.623072
      6          6           0       -4.406611    0.144693    0.061197
      7          6           0       -4.073759   -1.297026    0.027799
      8          6           0       -5.082160   -2.261918   -0.047557
      9          6           0       -4.771332   -3.623155   -0.047949
     10          6           0       -3.431987   -3.981288    0.028275
     11          7           0       -2.435290   -3.086791    0.096859
     12          6           0       -2.743481   -1.795723    0.094638
     13          8           0       -1.741472   -0.889075    0.173744
     14          6           0       -0.406543   -1.375327    0.368330
     15          6           0        0.377248   -1.875325   -0.865849
     16          6           0        1.601592   -1.094477   -0.324928
     17          7           0        2.453275   -0.457611   -1.297328
     18          6           0        3.714903    0.012416   -0.992651
     19          6           0        4.415756    0.780458   -1.982112
     20          6           0        5.679204    1.216613   -1.700924
     21          6           0        6.280178    0.902571   -0.448868
     22          6           0        7.584521    1.314187   -0.084709
     23          6           0        8.109053    0.976163    1.145606
     24          6           0        7.338944    0.212597    2.053378
     25          6           0        6.064474   -0.201204    1.724968
     26          6           0        5.499268    0.130523    0.467083
     27          7           0        4.231774   -0.292154    0.184967
     28          6           0        0.624031   -0.248891    0.554536
     29          6           0       -5.529616    0.591164    0.787711
     30          7           0       -5.943764    1.854232    0.848349
     31          1           0       -3.540721    3.230273   -1.097095
     32          1           0       -2.791905    0.847910   -1.189942
     33          1           0       -6.117094   -1.941314   -0.126189
     34          1           0       -5.547821   -4.377775   -0.114372
     35          1           0       -3.130275   -5.026852    0.029262
     36          1           0       -0.405699   -2.107907    1.178184
     37          1           0        0.464352   -2.952789   -1.021364
     38          1           0       -0.020588   -1.409341   -1.776231
     39          1           0        2.237967   -1.716563    0.305574
     40          1           0        1.992274   -0.018400   -2.082709
     41          1           0        3.942231    0.998670   -2.936027
     42          1           0        6.236705    1.802087   -2.428743
     43          1           0        8.167006    1.901057   -0.791939
     44          1           0        9.110919    1.294163    1.419926
     45          1           0        7.758605   -0.050141    3.021082
     46          1           0        5.461601   -0.787515    2.411686
     47          1           0        0.932395    0.014326    1.569446
     48          1           0        0.302609    0.654750    0.024811
     49          1           0       -6.113189   -0.120962    1.367930
 ---------------------------------------------------------------------

 The electronic state is 1-A.
 Alpha  occ. eigenvalues --  -19.19690 -14.35689 -14.35671 -14.34499 -14.33902
 Alpha  occ. eigenvalues --  -14.31279 -10.29957 -10.27170 -10.26222 -10.25365
 Alpha  occ. eigenvalues --  -10.24542 -10.24179 -10.23506 -10.22977 -10.22933
 Alpha  occ. eigenvalues --  -10.22863 -10.22758 -10.22756 -10.22592 -10.21940
 Alpha  occ. eigenvalues --  -10.20877 -10.20729 -10.19918 -10.19534 -10.19396
 Alpha  occ. eigenvalues --  -10.19161 -10.19106 -10.18962 -10.18632 -10.18107
 Alpha  occ. eigenvalues --   -1.09119  -0.97229  -0.96981  -0.95360  -0.91023
 Alpha  occ. eigenvalues --   -0.90259  -0.85664  -0.84893  -0.83353  -0.81815
 Alpha  occ. eigenvalues --   -0.80281  -0.79657  -0.76734  -0.73936  -0.73464
 Alpha  occ. eigenvalues --   -0.69354  -0.68585  -0.67679  -0.66154  -0.64428
 Alpha  occ. eigenvalues --   -0.63335  -0.62890  -0.61172  -0.59701  -0.58181
 Alpha  occ. eigenvalues --   -0.57512  -0.55770  -0.54337  -0.53355  -0.51820
 Alpha  occ. eigenvalues --   -0.51345  -0.50830  -0.50445  -0.49968  -0.48268
 Alpha  occ. eigenvalues --   -0.46826  -0.46289  -0.45505  -0.44657  -0.44469
 Alpha  occ. eigenvalues --   -0.43681  -0.43252  -0.42909  -0.42706  -0.42290
 Alpha  occ. eigenvalues --   -0.42006  -0.41408  -0.40413  -0.40250  -0.39927
 Alpha  occ. eigenvalues --   -0.38986  -0.38102  -0.37566  -0.36114  -0.35609
 Alpha  occ. eigenvalues --   -0.35491  -0.35248  -0.34721  -0.33935  -0.33521
 Alpha  occ. eigenvalues --   -0.33054  -0.32259  -0.31672  -0.30110  -0.30101
 Alpha  occ. eigenvalues --   -0.28859  -0.27801  -0.27652  -0.27226  -0.25345
 Alpha  occ. eigenvalues --   -0.23999  -0.23068  -0.20436
 Alpha virt. eigenvalues --   -0.07466  -0.04223  -0.04104  -0.02912  -0.01159
 Alpha virt. eigenvalues --   -0.00137   0.02943   0.03466   0.06641   0.07073
 Alpha virt. eigenvalues --    0.08491   0.08562   0.09023   0.09930   0.10264

 Mulliken charges:
               1
     1  N   -0.475620
     2  C    0.296975
     3  C    0.283967
     4  C   -0.142510
     5  C   -0.113884
     6  C    0.082029
     7  C    0.005530
     8  C   -0.146295
     9  C   -0.156809
    10  C    0.045556
    11  N   -0.502226
    12  C    0.524485
    13  O   -0.526925
    14  C    0.157167
    15  C   -0.313977
    16  C    0.068592
    17  N   -0.664957
    18  C    0.552210
    19  C   -0.200593
    20  C   -0.145184
    21  C    0.142884
    22  C   -0.199062
    23  C   -0.138503
    24  C   -0.135394
    25  C   -0.155568
    26  C    0.256830
    27  N   -0.625946
    28  C   -0.310940
    29  C    0.009578
    30  N   -0.447762
    31  H    0.165215
    32  H    0.162919
    33  H    0.155068
    34  H    0.144602
    35  H    0.150624
    36  H    0.160335
    37  H    0.168134
    38  H    0.134318
    39  H    0.178780
    40  H    0.311342
    41  H    0.126497
    42  H    0.138608
    43  H    0.127430
    44  H    0.128037
    45  H    0.129871
    46  H    0.132764
    47  H    0.164391
    48  H    0.141604
    49  H    0.155811
 Sum of Mulliken charges =  -0.00000

 Dipole moment (field-independent basis, Debye):
    X=              2.2970    Y=             -4.6999    Z=             -2.9150  Tot=              5.9885
 Quadrupole moment (field-independent basis, Debye-Ang):
   XX=           -188.5163   YY=           -190.5719   ZZ=           -162.6382
   XY=             47.3432   XZ=              3.5426   YZ=             -9.6092

 Normal termination of Gaussian 16 at Fri Nov  4 21:47:46 2022.
