 Gaussian 16, Revision B.01,
 Gaussian 16:  ES64L-G16RevB.01 20-Dec-2017

 -------------------------------------------------------------------
 #p b3lyp/6-31g(d) 6D 10F nosymm GFInput td=(50-50,nstate=2) SCF=XQC
 -------------------------------------------------------------------

 ------------------------------
 Gaussian input prepared by ASE
 ------------------------------
 Symbolic Z-matrix:
 Charge =  0 Multiplicity = 1

                          Input orientation:
 ---------------------------------------------------------------------
 Center     Atomic      Atomic             Coordinates (Angstroms)
 Number     Number       Type             X           Y           Z
 ---------------------------------------------------------------------
      1          8           0       -2.339974    4.766818   -0.122986
      2          7           0       -2.332585    3.675419   -0.694103
      3          8           0       -3.209389    3.275387   -1.456441
      4          6           0       -1.154357    2.817882   -0.483333
      5          6           0        0.058953    3.492366   -0.445110
      6          6           0        1.255705    2.788898   -0.406397
      7          7           0        2.465159    3.617845   -0.540859
      8          8           0        3.379379    3.196041   -1.245329
      9          8           0        2.461881    4.709543    0.029720
     10          6           0        1.281531    1.375564   -0.335697
     11          6           0        2.440070    0.494160   -0.165920
     12          6           0        3.612751    0.794918    0.432970
     13          6           0        4.727730   -0.111249    0.673253
     14          6           0        5.881282    0.359279    1.356577
     15          6           0        6.977150   -0.452054    1.620292
     16          6           0        7.001422   -1.800490    1.217660
     17          6           0        5.884805   -2.261254    0.548879
     18          6           0        4.784846   -1.451283    0.284211
     19          8           0        3.822742   -2.187640   -0.368395
     20          6           0        4.436159   -3.449881   -0.669263
     21          8           0        5.650420   -3.532224    0.075710
     22          6           0        0.023197    0.749023   -0.358625
     23          6           0       -1.218576    1.405659   -0.415445
     24          6           0       -2.406611    0.552748   -0.320490
     25          6           0       -3.607106    0.882423    0.203358
     26          6           0       -4.757012    0.004071    0.371470
     27          6           0       -5.939566    0.503029    0.981066
     28          6           0       -7.069536   -0.281020    1.173871
     29          6           0       -7.101424   -1.628552    0.768753
     30          6           0       -5.956396   -2.116832    0.171343
     31          6           0       -4.822320   -1.334245   -0.022157
     32          8           0       -3.839230   -2.094236   -0.613523
     33          6           0       -4.463324   -3.340962   -0.954452
     34          8           0       -5.723828   -3.393315   -0.287681
     35          1           0        0.073380    4.573597   -0.489225
     36          1           0        2.266372   -0.528670   -0.484431
     37          1           0        3.782513    1.801543    0.803852
     38          1           0        5.896125    1.398048    1.674011
     39          1           0        7.834434   -0.039859    2.143374
     40          1           0        7.847477   -2.448552    1.417290
     41          1           0        3.764544   -4.258194   -0.367488
     42          1           0        4.654762   -3.498038   -1.745247
     43          1           0        0.007480   -0.333996   -0.274863
     44          1           0       -2.238144   -0.474124   -0.628641
     45          1           0       -3.775142    1.893030    0.564102
     46          1           0       -5.948929    1.541931    1.298276
     47          1           0       -7.947808    0.152287    1.642207
     48          1           0       -7.974089   -2.255540    0.913624
     49          1           0       -3.832199   -4.165593   -0.612169
     50          1           0       -4.614725   -3.383706   -2.042159
 ---------------------------------------------------------------------

 SCF Done:  E(RB3LYP) =  -1635.20656068     A.U. after   15 cycles

 Excitation energies and oscillator strengths:

 Excited state symmetry could not be determined.
 Excited State   1:      Triplet-?Sym    1.9962 eV  621.11 nm  f=0.0000  <S**2>=2.000
     115 ->120        -0.12012
     116 ->120        -0.11999
     116 ->122         0.17257
     117 ->120         0.47523
     118 ->120         0.40126
     119 ->122        -0.14057
 This state for optimization and/or second-order correction.
 Total Energy, E(TD-HF/TD-DFT) =  -1635.13320237
 Copying the excited state density for this state as the 1-particle RhoCI density.

 Excited state symmetry could not be determined.
 Excited State   2:      Triplet-?Sym    2.1340 eV  580.98 nm  f=0.0000  <S**2>=2.000
     116 ->120        -0.43438
     117 ->120        -0.10953
     117 ->122        -0.15768
     118 ->122        -0.13812
     119 ->120         0.45971

 Excited state symmetry could not be determined.
 Excited State   3:      Singlet-?Sym    2.6159 eV  473.96 nm  f=0.1528  <S**2>=0.000
     119 ->120         0.69484

 Excited state symmetry could not be determined.
 Excited State   4:      Singlet-?Sym    2.6511 eV  467.68 nm  f=0.0656  <S**2>=0.000
     118 ->120         0.70096

 Alpha  occ. eigenvalues --  -19.21065 -19.21065 -19.20473 -19.20473 -19.18534
 Alpha  occ. eigenvalues --  -19.18533 -19.18510 -19.18510 -14.57603 -14.57603
 Alpha  occ. eigenvalues --  -10.31995 -10.31995 -10.26439 -10.26438 -10.26387
 Alpha  occ. eigenvalues --  -10.26387 -10.26138 -10.26138 -10.24598 -10.24597
 Alpha  occ. eigenvalues --  -10.23525 -10.22339 -10.21907 -10.21907 -10.21578
 Alpha  occ. eigenvalues --  -10.21577 -10.20891 -10.20890 -10.20811 -10.20811
 Alpha  occ. eigenvalues --  -10.20246 -10.20246 -10.20188 -10.20188  -1.22879
 Alpha  occ. eigenvalues --   -1.22865  -1.14063  -1.14063  -1.05542  -1.05526
 Alpha  occ. eigenvalues --   -1.04911  -1.04911  -0.91359  -0.87674  -0.87612
 Alpha  occ. eigenvalues --   -0.84745  -0.82736  -0.80779  -0.79840  -0.77373
 Alpha  occ. eigenvalues --   -0.77339  -0.76493  -0.74621  -0.71304  -0.70589
 Alpha  occ. eigenvalues --   -0.68826  -0.68788  -0.64909  -0.64076  -0.63824
 Alpha  occ. eigenvalues --   -0.63160  -0.63072  -0.60541  -0.59375  -0.57556
 Alpha  occ. eigenvalues --   -0.56201  -0.54865  -0.54124  -0.54008  -0.53476
 Alpha  occ. eigenvalues --   -0.53449  -0.53289  -0.52764  -0.52197  -0.51817
 Alpha  occ. eigenvalues --   -0.50967  -0.50891  -0.50661  -0.49956  -0.49877
 Alpha  occ. eigenvalues --   -0.48560  -0.46338  -0.46333  -0.45933  -0.44736
 Alpha  occ. eigenvalues --   -0.44310  -0.43475  -0.43123  -0.41728  -0.41194
 Alpha  occ. eigenvalues --   -0.41008  -0.40891  -0.40714  -0.39875  -0.39823
 Alpha  occ. eigenvalues --   -0.39074  -0.38545  -0.38292  -0.38290  -0.37451
 Alpha  occ. eigenvalues --   -0.37389  -0.35801  -0.35754  -0.34806  -0.33832
 Alpha  occ. eigenvalues --   -0.32652  -0.32124  -0.31413  -0.31202  -0.30809
 Alpha  occ. eigenvalues --   -0.30683  -0.29837  -0.29500  -0.28068  -0.27901
 Alpha  occ. eigenvalues --   -0.22819  -0.22817  -0.21916  -0.21889
 Alpha virt. eigenvalues --   -0.10678  -0.08251  -0.05702  -0.04540  -0.01930
 Alpha virt. eigenvalues --    0.00042   0.00081   0.00619   0.04371   0.06902
 Alpha virt. eigenvalues --    0.07580   0.08538   0.08772   0.08809   0.08996

 Mulliken charges:
               1
     1  O   -0.372692
     2  N    0.333171
     3  O   -0.373464
     4  C    0.177226
     5  C   -0.151040
     6  C    0.177205
     7  N    0.333188
     8  O   -0.373503
     9  O   -0.372695
    10  C    0.231115
    11  C   -0.204471
    12  C   -0.143740
    13  C    0.149722
    14  C   -0.213005
    15  C   -0.140348
    16  C   -0.180739
    17  C    0.342203
    18  C    0.248094
    19  O   -0.543565
    20  C    0.193372
    21  O   -0.528937
    22  C   -0.327680
    23  C    0.231071
    24  C   -0.204448
    25  C   -0.143772
    26  C    0.149736
    27  C   -0.213004
    28  C   -0.140349
    29  C   -0.180739
    30  C    0.342197
    31  C    0.248112
    32  O   -0.543569
    33  C    0.193355
    34  O   -0.528932
    35  H    0.213758
    36  H    0.170735
    37  H    0.147171
    38  H    0.142604
    39  H    0.140514
    40  H    0.151299
    41  H    0.168298
    42  H    0.160664
    43  H    0.154580
    44  H    0.170748
    45  H    0.147170
    46  H    0.142601
    47  H    0.140516
    48  H    0.151301
    49  H    0.168305
    50  H    0.160662
 Sum of Mulliken charges =  -0.00000

 Dipole moment (field-independent basis, Debye):
    X=             -0.1161    Y=             -7.4620    Z=              0.7944  Tot=              7.5051
 Quadrupole moment (field-independent basis, Debye-Ang):
   XX=           -176.7242   YY=           -204.4014   ZZ=           -190.5894
   XY=             -0.7200   XZ=              0.5848   YZ=             11.5341

 Normal termination of Gaussian 16 at Sat Nov  5 09:47:08 2022.
