 Gaussian 16, Revision B.01,
 Gaussian 16:  ES64L-G16RevB.01 20-Dec-2017

 -----------------------------
 #p b3lyp/6-31g(d) opt SCF=XQC
 -----------------------------

 ------------------------------
 Gaussian input prepared by ASE
 ------------------------------
 Symbolic Z-matrix:
 Charge =  0 Multiplicity = 1

 SCF Done:  E(RB3LYP) =  -1635.19631389     A.U. after   15 cycles
 SCF Done:  E(RB3LYP) =  -1635.20418543     A.U. after   14 cycles
 SCF Done:  E(RB3LYP) =  -1635.20103508     A.U. after   15 cycles
 SCF Done:  E(RB3LYP) =  -1635.20324485     A.U. after   15 cycles
 SCF Done:  E(RB3LYP) =  -1635.20562053     A.U. after   11 cycles
 SCF Done:  E(RB3LYP) =  -1635.20620139     A.U. after   12 cycles
 SCF Done:  E(RB3LYP) =  -1635.20628733     A.U. after   12 cycles
 SCF Done:  E(RB3LYP) =  -1635.20624049     A.U. after   13 cycles
 SCF Done:  E(RB3LYP) =  -1635.20618260     A.U. after   13 cycles
 SCF Done:  E(RB3LYP) =  -1635.20633204     A.U. after   13 cycles
 SCF Done:  E(RB3LYP) =  -1635.20649815     A.U. after   14 cycles
 SCF Done:  E(RB3LYP) =  -1635.20652033     A.U. after   12 cycles
 SCF Done:  E(RB3LYP) =  -1635.20653299     A.U. after   12 cycles
 SCF Done:  E(RB3LYP) =  -1635.20653659     A.U. after   11 cycles
 SCF Done:  E(RB3LYP) =  -1635.20655101     A.U. after   12 cycles
 SCF Done:  E(RB3LYP) =  -1635.20656147     A.U. after   12 cycles
 SCF Done:  E(RB3LYP) =  -1635.20656453     A.U. after   11 cycles
 SCF Done:  E(RB3LYP) =  -1635.20656506     A.U. after    9 cycles
 SCF Done:  E(RB3LYP) =  -1635.20656515     A.U. after    9 cycles
 SCF Done:  E(RB3LYP) =  -1635.20656516     A.U. after    7 cycles
 Optimization completed.
    -- Stationary point found.

                         Standard orientation:
 ---------------------------------------------------------------------
 Center     Atomic      Atomic             Coordinates (Angstroms)
 Number     Number       Type             X           Y           Z
 ---------------------------------------------------------------------
      1          8           0       -2.402871    4.448470    0.274112
      2          7           0       -2.400414    3.397879   -0.369032
      3          8           0       -3.296132    3.037203   -1.129015
      4          6           0       -1.205733    2.545071   -0.252975
      5          6           0       -0.000110    3.232731   -0.207095
      6          6           0        1.205731    2.545391   -0.252840
      7          7           0        2.400122    3.398634   -0.368668
      8          8           0        3.296495    3.037918   -1.127873
      9          8           0        2.401753    4.449618    0.273833
     10          6           0        1.250973    1.131003   -0.278139
     11          6           0        2.424961    0.256841   -0.203957
     12          6           0        3.612383    0.533613    0.377189
     13          6           0        4.745383   -0.370586    0.521369
     14          6           0        5.914314    0.069647    1.198722
     15          6           0        7.027807   -0.741778    1.373235
     16          6           0        7.055629   -2.059820    0.880312
     17          6           0        5.923957   -2.490756    0.216976
     18          6           0        4.806361   -1.680685    0.041547
     19          8           0        3.832976   -2.385447   -0.628971
     20          6           0        4.451795   -3.615891   -1.032861
     21          8           0        5.690084   -3.730490   -0.333073
     22          6           0        0.000257    0.489509   -0.304149
     23          6           0       -1.250586    1.130695   -0.278215
     24          6           0       -2.424538    0.256487   -0.204060
     25          6           0       -3.611654    0.533273    0.377692
     26          6           0       -4.744860   -0.370659    0.521913
     27          6           0       -5.913371    0.069542    1.200002
     28          6           0       -7.027011   -0.741673    1.374570
     29          6           0       -7.055407   -2.059449    0.880968
     30          6           0       -5.924142   -2.490346    0.216912
     31          6           0       -4.806401   -1.680484    0.041426
     32          8           0       -3.833485   -2.385171   -0.629852
     33          6           0       -4.452923   -3.615111   -1.034324
     34          8           0       -5.690816   -3.729865   -0.333863
     35          1           0       -0.000240    4.314590   -0.178854
     36          1           0        2.253650   -0.744800   -0.584970
     37          1           0        3.781625    1.515531    0.809462
     38          1           0        5.926634    1.084995    1.584652
     39          1           0        7.896247   -0.353263    1.896039
     40          1           0        7.915430   -2.707636    1.009629
     41          1           0        3.800009   -4.452055   -0.765449
     42          1           0        4.636579   -3.588936   -2.115902
     43          1           0        0.000381   -0.596800   -0.292931
     44          1           0       -2.253504   -0.744997   -0.585611
     45          1           0       -3.780385    1.515024    0.810585
     46          1           0       -5.925251    1.084692    1.586468
     47          1           0       -7.895120   -0.353193    1.897949
     48          1           0       -7.915328   -2.707097    1.010322
     49          1           0       -3.801237   -4.451680   -0.767958
     50          1           0       -4.638366   -3.587250   -2.117232
 ---------------------------------------------------------------------

 The electronic state is 1-A.
 Alpha  occ. eigenvalues --  -19.21065 -19.21065 -19.20473 -19.20473 -19.18534
 Alpha  occ. eigenvalues --  -19.18533 -19.18510 -19.18510 -14.57603 -14.57603
 Alpha  occ. eigenvalues --  -10.31995 -10.31995 -10.26439 -10.26438 -10.26387
 Alpha  occ. eigenvalues --  -10.26387 -10.26138 -10.26138 -10.24598 -10.24597
 Alpha  occ. eigenvalues --  -10.23525 -10.22339 -10.21907 -10.21907 -10.21578
 Alpha  occ. eigenvalues --  -10.21577 -10.20891 -10.20890 -10.20811 -10.20811
 Alpha  occ. eigenvalues --  -10.20246 -10.20246 -10.20188 -10.20188  -1.22879
 Alpha  occ. eigenvalues --   -1.22865  -1.14063  -1.14063  -1.05542  -1.05526
 Alpha  occ. eigenvalues --   -1.04911  -1.04911  -0.91359  -0.87674  -0.87612
 Alpha  occ. eigenvalues --   -0.84745  -0.82736  -0.80779  -0.79840  -0.77373
 Alpha  occ. eigenvalues --   -0.77339  -0.76493  -0.74621  -0.71304  -0.70589
 Alpha  occ. eigenvalues --   -0.68826  -0.68788  -0.64909  -0.64076  -0.63824
 Alpha  occ. eigenvalues --   -0.63160  -0.63072  -0.60541  -0.59375  -0.57556
 Alpha  occ. eigenvalues --   -0.56201  -0.54865  -0.54124  -0.54008  -0.53476
 Alpha  occ. eigenvalues --   -0.53449  -0.53289  -0.52764  -0.52197  -0.51817
 Alpha  occ. eigenvalues --   -0.50967  -0.50891  -0.50661  -0.49956  -0.49877
 Alpha  occ. eigenvalues --   -0.48560  -0.46338  -0.46333  -0.45933  -0.44736
 Alpha  occ. eigenvalues --   -0.44310  -0.43475  -0.43123  -0.41728  -0.41194
 Alpha  occ. eigenvalues --   -0.41008  -0.40891  -0.40714  -0.39875  -0.39823
 Alpha  occ. eigenvalues --   -0.39074  -0.38545  -0.38292  -0.38290  -0.37451
 Alpha  occ. eigenvalues --   -0.37389  -0.35801  -0.35754  -0.34806  -0.33832
 Alpha  occ. eigenvalues --   -0.32652  -0.32124  -0.31413  -0.31202  -0.30809
 Alpha  occ. eigenvalues --   -0.30683  -0.29837  -0.29500  -0.28068  -0.27901
 Alpha  occ. eigenvalues --   -0.22819  -0.22817  -0.21916  -0.21889
 Alpha virt. eigenvalues --   -0.10678  -0.08251  -0.05702  -0.04540  -0.01930
 Alpha virt. eigenvalues --    0.00042   0.00081   0.00619   0.04371   0.06902
 Alpha virt. eigenvalues --    0.07580   0.08538   0.08772   0.08809   0.08996

 Mulliken charges:
               1
     1  O   -0.372689
     2  N    0.333162
     3  O   -0.373456
     4  C    0.177209
     5  C   -0.151031
     6  C    0.177206
     7  N    0.333188
     8  O   -0.373502
     9  O   -0.372692
    10  C    0.231112
    11  C   -0.204482
    12  C   -0.143731
    13  C    0.149714
    14  C   -0.213005
    15  C   -0.140349
    16  C   -0.180739
    17  C    0.342205
    18  C    0.248095
    19  O   -0.543557
    20  C    0.193369
    21  O   -0.528937
    22  C   -0.327683
    23  C    0.231082
    24  C   -0.204450
    25  C   -0.143779
    26  C    0.149738
    27  C   -0.213005
    28  C   -0.140349
    29  C   -0.180737
    30  C    0.342202
    31  C    0.248092
    32  O   -0.543553
    33  C    0.193357
    34  O   -0.528931
    35  H    0.213758
    36  H    0.170736
    37  H    0.147171
    38  H    0.142604
    39  H    0.140515
    40  H    0.151299
    41  H    0.168298
    42  H    0.160664
    43  H    0.154580
    44  H    0.170748
    45  H    0.147172
    46  H    0.142601
    47  H    0.140516
    48  H    0.151301
    49  H    0.168304
    50  H    0.160660
 Sum of Mulliken charges =  -0.00000

 Dipole moment (field-independent basis, Debye):
    X=             -0.0000    Y=             -7.4993    Z=              0.2942  Tot=              7.5051
 Quadrupole moment (field-independent basis, Debye-Ang):
   XX=           -176.6965   YY=           -201.6626   ZZ=           -189.1230
   XY=              0.0025   XZ=             -0.0002   YZ=             10.4105

 Normal termination of Gaussian 16 at Fri Nov  4 21:57:28 2022.
