 Gaussian 16, Revision B.01,
 Gaussian 16:  ES64L-G16RevB.01 20-Dec-2017

 -----------------------------
 #p b3lyp/6-31g(d) opt SCF=XQC
 -----------------------------

 ------------------------------
 Gaussian input prepared by ASE
 ------------------------------
 Symbolic Z-matrix:
 Charge =  0 Multiplicity = 1

 SCF Done:  E(RB3LYP) =  -1593.30654959     A.U. after   15 cycles
 SCF Done:  E(RB3LYP) =  -1593.31658951     A.U. after   13 cycles
 SCF Done:  E(RB3LYP) =  -1593.31763943     A.U. after   13 cycles
 SCF Done:  E(RB3LYP) =  -1593.31897119     A.U. after   13 cycles
 SCF Done:  E(RB3LYP) =  -1593.31765987     A.U. after   12 cycles
 SCF Done:  E(RB3LYP) =  -1593.31924185     A.U. after   12 cycles
 SCF Done:  E(RB3LYP) =  -1593.31978145     A.U. after   12 cycles
 SCF Done:  E(RB3LYP) =  -1593.31956611     A.U. after   12 cycles
 SCF Done:  E(RB3LYP) =  -1593.31981087     A.U. after   12 cycles
 SCF Done:  E(RB3LYP) =  -1593.31989962     A.U. after   11 cycles
 SCF Done:  E(RB3LYP) =  -1593.31991450     A.U. after   10 cycles
 SCF Done:  E(RB3LYP) =  -1593.31991724     A.U. after    9 cycles
 SCF Done:  E(RB3LYP) =  -1593.31992469     A.U. after    9 cycles
 SCF Done:  E(RB3LYP) =  -1593.31992767     A.U. after    9 cycles
 SCF Done:  E(RB3LYP) =  -1593.31993090     A.U. after    9 cycles
 SCF Done:  E(RB3LYP) =  -1593.31993217     A.U. after    9 cycles
 SCF Done:  E(RB3LYP) =  -1593.31993286     A.U. after    8 cycles
 SCF Done:  E(RB3LYP) =  -1593.31993305     A.U. after    7 cycles
 SCF Done:  E(RB3LYP) =  -1593.31993316     A.U. after    7 cycles
 SCF Done:  E(RB3LYP) =  -1593.31993319     A.U. after    6 cycles
 Optimization completed.
    -- Stationary point found.

                         Standard orientation:
 ---------------------------------------------------------------------
 Center     Atomic      Atomic             Coordinates (Angstroms)
 Number     Number       Type             X           Y           Z
 ---------------------------------------------------------------------
      1          6           0        0.478048    1.256686   -2.712198
      2          6           0        0.259062    0.424878   -1.438309
      3          6           0       -1.199652    0.065274   -1.129043
      4          6           0       -1.540666   -0.508985    0.105302
      5          6           0       -2.841729   -0.919059    0.380145
      6          6           0       -3.866362   -0.774390   -0.570560
      7          6           0       -5.255771   -1.209122   -0.279184
      8          6           0       -5.506586   -2.376950    0.461093
      9          6           0       -6.810787   -2.786049    0.734991
     10          6           0       -7.894390   -2.036339    0.273808
     11          6           0       -7.661193   -0.873693   -0.463013
     12          6           0       -6.356727   -0.464651   -0.735687
     13          6           0       -3.524716   -0.198430   -1.802680
     14          6           0       -2.219908    0.211677   -2.076286
     15          7           0        0.981541    0.998720   -0.270953
     16          6           0        1.989560    0.318292    0.370296
     17          8           0        2.776676    0.894698    1.131639
     18          6           0        2.138002   -1.206553    0.152015
     19          6           0        3.090919   -1.512908   -1.008461
     20          6           0        4.177635   -0.688752   -1.330023
     21          6           0        5.034536   -1.021217   -2.381738
     22          6           0        4.819640   -2.180002   -3.127626
     23          6           0        3.739109   -3.007682   -2.815433
     24          6           0        2.883619   -2.674906   -1.766095
     25          6           0        2.543802   -1.899519    1.453735
     26          6           0        1.602483   -2.688904    2.124927
     27          6           0        1.931648   -3.345830    3.312614
     28          6           0        3.214593   -3.221329    3.843593
     29          6           0        4.161939   -2.438324    3.179012
     30          6           0        3.830876   -1.783472    1.994100
     31          6           0        0.793906    2.423297    0.143296
     32          6           0       -0.670362    2.884473    0.177775
     33          6           0       -0.873501    4.262397    0.835646
     34          6           0       -0.504542    4.338603    2.320468
     35          7           0       -0.918823    5.636130    2.871951
     36          6           0        1.684354    3.384312   -0.693354
     37          7           0        2.998634    3.337919   -0.348726
     38          8           0        1.239638    4.128645   -1.559557
     39          1           0        0.098445    0.706257   -3.578460
     40          1           0        0.003876    2.238823   -2.679661
     41          1           0        1.550593    1.406646   -2.863463
     42          1           0        0.766508   -0.518376   -1.645807
     43          1           0       -0.785161   -0.605844    0.879758
     44          1           0       -3.074042   -1.329593    1.358926
     45          1           0       -4.671285   -2.982318    0.802348
     46          1           0       -6.980482   -3.697155    1.302836
     47          1           0       -8.911133   -2.354823    0.487151
     48          1           0       -8.496999   -0.277150   -0.819153
     49          1           0       -6.186895    0.456727   -1.285827
     50          1           0       -4.285224   -0.087334   -2.570550
     51          1           0       -2.008224    0.648827   -3.046111
     52          1           0        1.164165   -1.625155   -0.112295
     53          1           0        4.353744    0.216477   -0.757716
     54          1           0        5.871327   -0.368934   -2.617590
     55          1           0        5.486387   -2.435961   -3.946491
     56          1           0        3.560058   -3.912569   -3.390108
     57          1           0        2.047500   -3.327656   -1.524975
     58          1           0        0.600192   -2.794515    1.714239
     59          1           0        1.186201   -3.955174    3.816945
     60          1           0        3.477432   -3.732460    4.765958
     61          1           0        5.165127   -2.337797    3.585063
     62          1           0        4.574380   -1.180009    1.485876
     63          1           0        1.187163    2.444886    1.161118
     64          1           0       -1.078528    2.927675   -0.835178
     65          1           0       -1.253027    2.137894    0.726685
     66          1           0       -0.314944    5.020599    0.273571
     67          1           0       -1.933338    4.529350    0.747217
     68          1           0       -1.045562    3.556808    2.870694
     69          1           0        0.572345    4.130450    2.457505
     70          1           0       -0.391754    6.378641    2.412168
     71          1           0       -0.665779    5.686308    3.857920
     72          1           0        3.320557    2.638948    0.314576
     73          1           0        3.655372    3.884455   -0.888510
 ---------------------------------------------------------------------

 The electronic state is 1-A.
 Alpha  occ. eigenvalues --  -19.12684 -19.10777 -14.37765 -14.34523 -14.30337
 Alpha  occ. eigenvalues --  -10.29823 -10.28173 -10.24324 -10.22801 -10.21677
 Alpha  occ. eigenvalues --  -10.20901 -10.20392 -10.20269 -10.20125 -10.19875
 Alpha  occ. eigenvalues --  -10.19811 -10.19687 -10.19646 -10.19616 -10.19523
 Alpha  occ. eigenvalues --  -10.19494 -10.19439 -10.19410 -10.19401 -10.19383
 Alpha  occ. eigenvalues --  -10.19235 -10.19205 -10.19148 -10.19128 -10.19102
 Alpha  occ. eigenvalues --  -10.18943 -10.18818 -10.18726 -10.18629 -10.18400
 Alpha  occ. eigenvalues --  -10.18023 -10.17889 -10.16915  -1.04571  -1.02407
 Alpha  occ. eigenvalues --   -0.93996  -0.89455  -0.87000  -0.86961  -0.86737
 Alpha  occ. eigenvalues --   -0.85048  -0.84892  -0.80320  -0.79703  -0.78112
 Alpha  occ. eigenvalues --   -0.75861  -0.75137  -0.75014  -0.74478  -0.74346
 Alpha  occ. eigenvalues --   -0.74014  -0.71902  -0.71604  -0.68866  -0.65453
 Alpha  occ. eigenvalues --   -0.63980  -0.62127  -0.61548  -0.61155  -0.60430
 Alpha  occ. eigenvalues --   -0.60029  -0.59766  -0.59272  -0.58316  -0.57626
 Alpha  occ. eigenvalues --   -0.56062  -0.55011  -0.53534  -0.52646  -0.52233
 Alpha  occ. eigenvalues --   -0.51513  -0.50041  -0.49962  -0.48277  -0.47926
 Alpha  occ. eigenvalues --   -0.47128  -0.46906  -0.46605  -0.46220  -0.45703
 Alpha  occ. eigenvalues --   -0.44762  -0.44668  -0.44454  -0.44337  -0.43798
 Alpha  occ. eigenvalues --   -0.43514  -0.42887  -0.42682  -0.42558  -0.42409
 Alpha  occ. eigenvalues --   -0.41987  -0.41859  -0.41628  -0.41252  -0.40054
 Alpha  occ. eigenvalues --   -0.39699  -0.39243  -0.38669  -0.38590  -0.37672
 Alpha  occ. eigenvalues --   -0.37583  -0.36915  -0.36514  -0.36069  -0.35717
 Alpha  occ. eigenvalues --   -0.35680  -0.35522  -0.35407  -0.34907  -0.34725
 Alpha  occ. eigenvalues --   -0.34044  -0.33825  -0.33721  -0.33480  -0.33281
 Alpha  occ. eigenvalues --   -0.32368  -0.32167  -0.27589  -0.27216  -0.26310
 Alpha  occ. eigenvalues --   -0.25935  -0.25638  -0.25530  -0.25426  -0.25179
 Alpha  occ. eigenvalues --   -0.24408  -0.23801  -0.23370  -0.22486  -0.22386
 Alpha virt. eigenvalues --   -0.03232  -0.01583  -0.01415  -0.00918  -0.00210
 Alpha virt. eigenvalues --   -0.00114   0.00543   0.01610   0.02348   0.02828
 Alpha virt. eigenvalues --    0.07597   0.08985   0.09133   0.09276   0.09532

 Mulliken charges:
               1
     1  C   -0.477750
     2  C   -0.079786
     3  C    0.178782
     4  C   -0.199929
     5  C   -0.178668
     6  C    0.093405
     7  C    0.088962
     8  C   -0.173149
     9  C   -0.133416
    10  C   -0.126236
    11  C   -0.133552
    12  C   -0.173114
    13  C   -0.177551
    14  C   -0.195792
    15  N   -0.438343
    16  C    0.619045
    17  O   -0.552759
    18  C   -0.383556
    19  C    0.160844
    20  C   -0.182546
    21  C   -0.134336
    22  C   -0.125783
    23  C   -0.128826
    24  C   -0.173863
    25  C    0.190469
    26  C   -0.192320
    27  C   -0.129813
    28  C   -0.126298
    29  C   -0.136633
    30  C   -0.142560
    31  C   -0.075322
    32  C   -0.283843
    33  C   -0.271412
    34  C   -0.139454
    35  N   -0.716773
    36  C    0.612964
    37  N   -0.767853
    38  O   -0.526415
    39  H    0.151820
    40  H    0.196688
    41  H    0.164360
    42  H    0.183492
    43  H    0.138734
    44  H    0.135797
    45  H    0.130526
    46  H    0.131152
    47  H    0.130980
    48  H    0.132364
    49  H    0.134376
    50  H    0.135570
    51  H    0.135167
    52  H    0.154363
    53  H    0.145295
    54  H    0.133188
    55  H    0.133033
    56  H    0.134249
    57  H    0.132339
    58  H    0.123468
    59  H    0.127721
    60  H    0.128429
    61  H    0.129634
    62  H    0.138805
    63  H    0.185140
    64  H    0.158577
    65  H    0.149474
    66  H    0.156989
    67  H    0.151280
    68  H    0.136130
    69  H    0.117277
    70  H    0.292642
    71  H    0.293496
    72  H    0.379809
    73  H    0.330817
 Sum of Mulliken charges =  -0.00000

 Dipole moment (field-independent basis, Debye):
    X=              0.9361    Y=             -2.9254    Z=             -0.3957  Tot=              3.0969
 Quadrupole moment (field-independent basis, Debye-Ang):
   XX=           -202.7960   YY=           -227.9832   ZZ=           -214.9882
   XY=             11.8088   XZ=             -1.6705   YZ=              2.7736

 Normal termination of Gaussian 16 at Fri Nov  4 22:14:30 2022.
