 Gaussian 16, Revision B.01,
 Gaussian 16:  ES64L-G16RevB.01 20-Dec-2017

 -------------------------------------------------------------------
 #p b3lyp/6-31g(d) 6D 10F nosymm GFInput td=(50-50,nstate=2) SCF=XQC
 -------------------------------------------------------------------

 ------------------------------
 Gaussian input prepared by ASE
 ------------------------------
 Symbolic Z-matrix:
 Charge =  0 Multiplicity = 1

                          Input orientation:
 ---------------------------------------------------------------------
 Center     Atomic      Atomic             Coordinates (Angstroms)
 Number     Number       Type             X           Y           Z
 ---------------------------------------------------------------------
      1          6           0        0.372122    0.186375   -2.932924
      2          6           0        0.175070    0.361398   -1.418595
      3          6           0        1.455624    0.301126   -0.576364
      4          6           0        1.379769    0.241510    0.823766
      5          6           0        2.524684    0.267925    1.614296
      6          6           0        3.803884    0.356534    1.039460
      7          6           0        5.027168    0.382784    1.880435
      8          6           0        5.047616    1.074165    3.103674
      9          6           0        6.195777    1.099560    3.893867
     10          6           0        7.350462    0.434230    3.477950
     11          6           0        7.345596   -0.257015    2.265024
     12          6           0        6.196779   -0.282821    1.475815
     13          6           0        3.878355    0.413818   -0.359734
     14          6           0        2.729498    0.387507   -1.150308
     15          7           0       -0.911398   -0.511133   -0.896802
     16          6           0       -2.056959    0.004375   -0.338031
     17          8           0       -3.068644   -0.690429   -0.179352
     18          6           0       -2.082478    1.482240    0.120334
     19          6           0       -2.583895    2.403375   -0.997118
     20          6           0       -3.522488    1.989554   -1.951781
     21          6           0       -3.969106    2.872142   -2.937929
     22          6           0       -3.485864    4.179611   -2.986034
     23          6           0       -2.549870    4.601546   -2.039487
     24          6           0       -2.103795    3.719913   -1.055895
     25          6           0       -2.881189    1.629983    1.416322
     26          6           0       -2.197404    1.892578    2.609298
     27          6           0       -2.886771    2.042280    3.814646
     28          6           0       -4.276288    1.932630    3.839267
     29          6           0       -4.967787    1.674026    2.653021
     30          6           0       -4.277504    1.524692    1.451498
     31          6           0       -0.911757   -1.987751   -1.133083
     32          6           0        0.443647   -2.667525   -0.890712
     33          6           0        0.377708   -4.206474   -0.895514
     34          6           0       -0.468369   -4.827965    0.220075
     35          7           0       -0.297650   -6.287482    0.222087
     36          6           0       -1.496953   -2.343596   -2.528558
     37          7           0       -2.849052   -2.217759   -2.593708
     38          8           0       -0.808582   -2.725027   -3.468115
     39          1           0        1.034277    0.972216   -3.309067
     40          1           0        0.781315   -0.786164   -3.210812
     41          1           0       -0.591778    0.301213   -3.436343
     42          1           0       -0.208028    1.377734   -1.315724
     43          1           0        0.411734    0.136869    1.305336
     44          1           0        2.427429    0.187229    2.693438
     45          1           0        4.163029    1.617471    3.424576
     46          1           0        6.190493    1.647490    4.832538
     47          1           0        8.245607    0.453707    4.093620
     48          1           0        8.235875   -0.786340    1.935646
     49          1           0        6.195734   -0.847259    0.547461
     50          1           0        4.848516    0.502142   -0.840698
     51          1           0        2.842470    0.437142   -2.227918
     52          1           0       -1.065343    1.797141    0.364710
     53          1           0       -3.904279    0.973913   -1.925340
     54          1           0       -4.696249    2.532829   -3.671037
     55          1           0       -3.833269    4.864132   -3.755025
     56          1           0       -2.164525    5.617356   -2.067240
     57          1           0       -1.379034    4.057568   -0.318314
     58          1           0       -1.113010    1.983972    2.597313
     59          1           0       -2.336605    2.247451    4.729285
     60          1           0       -4.818419    2.050994    4.773709
     61          1           0       -6.051338    1.589253    2.663112
     62          1           0       -4.824378    1.326054    0.536768
     63          1           0       -1.623108   -2.362095   -0.394893
     64          1           0        1.165659   -2.355634   -1.649635
     65          1           0        0.829278   -2.330163    0.076581
     66          1           0        0.018874   -4.552916   -1.872243
     67          1           0        1.398469   -4.591668   -0.785929
     68          1           0       -0.121455   -4.452494    1.192354
     69          1           0       -1.523037   -4.512524    0.120265
     70          1           0       -0.660594   -6.667903   -0.652028
     71          1           0       -0.867036   -6.698399    0.960754
     72          1           0       -3.355137   -1.813737   -1.810887
     73          1           0       -3.302092   -2.367483   -3.484613
 ---------------------------------------------------------------------

 SCF Done:  E(RB3LYP) =  -1593.31992779     A.U. after   15 cycles

 Excitation energies and oscillator strengths:

 Excited state symmetry could not be determined.
 Excited State   1:      Triplet-?Sym    3.2485 eV  381.67 nm  f=0.0000  <S**2>=2.000
     123 ->144        -0.10228
     124 ->144         0.11180
     128 ->139         0.16844
     130 ->140        -0.18242
     133 ->136         0.13478
     134 ->136         0.12796
     135 ->136         0.58700
 This state for optimization and/or second-order correction.
 Total Energy, E(TD-HF/TD-DFT) =  -1593.20054874
 Copying the excited state density for this state as the 1-particle RhoCI density.

 Excited state symmetry could not be determined.
 Excited State   2:      Triplet-?Sym    3.7192 eV  333.37 nm  f=0.0000  <S**2>=2.000
     127 ->137        -0.28857
     127 ->138        -0.18805
     127 ->141         0.24778
     129 ->137         0.16585
     129 ->138        -0.25177
     129 ->139         0.11040
     129 ->143        -0.11138
     131 ->142         0.10261
     132 ->137         0.10837
     132 ->138        -0.28885
     132 ->139         0.10461

 Excited state symmetry could not be determined.
 Excited State   3:      Singlet-?Sym    4.8156 eV  257.46 nm  f=0.5169  <S**2>=0.000
     133 ->136        -0.17485
     134 ->136         0.26305
     135 ->136         0.61497

 Excited state symmetry could not be determined.
 Excited State   4:      Singlet-?Sym    4.8568 eV  255.28 nm  f=0.0536  <S**2>=0.000
     133 ->136        -0.10863
     134 ->136         0.60407
     135 ->136        -0.30884
     135 ->139        -0.10600

 Alpha  occ. eigenvalues --  -19.12684 -19.10777 -14.37765 -14.34523 -14.30337
 Alpha  occ. eigenvalues --  -10.29823 -10.28174 -10.24324 -10.22801 -10.21677
 Alpha  occ. eigenvalues --  -10.20901 -10.20392 -10.20269 -10.20125 -10.19875
 Alpha  occ. eigenvalues --  -10.19811 -10.19687 -10.19646 -10.19616 -10.19523
 Alpha  occ. eigenvalues --  -10.19494 -10.19439 -10.19410 -10.19401 -10.19383
 Alpha  occ. eigenvalues --  -10.19235 -10.19205 -10.19148 -10.19128 -10.19102
 Alpha  occ. eigenvalues --  -10.18943 -10.18818 -10.18726 -10.18629 -10.18400
 Alpha  occ. eigenvalues --  -10.18023 -10.17889 -10.16915  -1.04571  -1.02407
 Alpha  occ. eigenvalues --   -0.93996  -0.89455  -0.87000  -0.86961  -0.86737
 Alpha  occ. eigenvalues --   -0.85048  -0.84892  -0.80320  -0.79703  -0.78112
 Alpha  occ. eigenvalues --   -0.75861  -0.75137  -0.75014  -0.74478  -0.74346
 Alpha  occ. eigenvalues --   -0.74014  -0.71902  -0.71604  -0.68866  -0.65453
 Alpha  occ. eigenvalues --   -0.63980  -0.62127  -0.61548  -0.61155  -0.60430
 Alpha  occ. eigenvalues --   -0.60030  -0.59766  -0.59272  -0.58316  -0.57626
 Alpha  occ. eigenvalues --   -0.56062  -0.55011  -0.53534  -0.52646  -0.52233
 Alpha  occ. eigenvalues --   -0.51513  -0.50041  -0.49962  -0.48277  -0.47926
 Alpha  occ. eigenvalues --   -0.47128  -0.46906  -0.46605  -0.46220  -0.45703
 Alpha  occ. eigenvalues --   -0.44762  -0.44668  -0.44454  -0.44337  -0.43798
 Alpha  occ. eigenvalues --   -0.43514  -0.42887  -0.42682  -0.42558  -0.42409
 Alpha  occ. eigenvalues --   -0.41987  -0.41859  -0.41628  -0.41252  -0.40054
 Alpha  occ. eigenvalues --   -0.39699  -0.39243  -0.38669  -0.38590  -0.37672
 Alpha  occ. eigenvalues --   -0.37583  -0.36915  -0.36514  -0.36069  -0.35717
 Alpha  occ. eigenvalues --   -0.35680  -0.35522  -0.35407  -0.34907  -0.34725
 Alpha  occ. eigenvalues --   -0.34044  -0.33825  -0.33721  -0.33480  -0.33281
 Alpha  occ. eigenvalues --   -0.32368  -0.32167  -0.27589  -0.27216  -0.26310
 Alpha  occ. eigenvalues --   -0.25935  -0.25637  -0.25530  -0.25426  -0.25179
 Alpha  occ. eigenvalues --   -0.24408  -0.23801  -0.23370  -0.22486  -0.22386
 Alpha virt. eigenvalues --   -0.03232  -0.01583  -0.01415  -0.00918  -0.00210
 Alpha virt. eigenvalues --   -0.00114   0.00543   0.01610   0.02348   0.02828
 Alpha virt. eigenvalues --    0.07597   0.08985   0.09133   0.09276   0.09533

 Mulliken charges:
               1
     1  C   -0.477763
     2  C   -0.079753
     3  C    0.178777
     4  C   -0.199922
     5  C   -0.178681
     6  C    0.093418
     7  C    0.088975
     8  C   -0.173152
     9  C   -0.133421
    10  C   -0.126232
    11  C   -0.133544
    12  C   -0.173130
    13  C   -0.177554
    14  C   -0.195803
    15  N   -0.438373
    16  C    0.619067
    17  O   -0.552759
    18  C   -0.383613
    19  C    0.160873
    20  C   -0.182532
    21  C   -0.134335
    22  C   -0.125796
    23  C   -0.128807
    24  C   -0.173887
    25  C    0.190510
    26  C   -0.192322
    27  C   -0.129816
    28  C   -0.126301
    29  C   -0.136626
    30  C   -0.142571
    31  C   -0.075258
    32  C   -0.283895
    33  C   -0.271377
    34  C   -0.139458
    35  N   -0.716775
    36  C    0.612890
    37  N   -0.767822
    38  O   -0.526407
    39  H    0.151819
    40  H    0.196692
    41  H    0.164364
    42  H    0.183485
    43  H    0.138732
    44  H    0.135798
    45  H    0.130524
    46  H    0.131152
    47  H    0.130979
    48  H    0.132363
    49  H    0.134378
    50  H    0.135570
    51  H    0.135168
    52  H    0.154365
    53  H    0.145289
    54  H    0.133187
    55  H    0.133032
    56  H    0.134247
    57  H    0.132341
    58  H    0.123468
    59  H    0.127721
    60  H    0.128429
    61  H    0.129634
    62  H    0.138804
    63  H    0.185134
    64  H    0.158582
    65  H    0.149478
    66  H    0.156985
    67  H    0.151276
    68  H    0.136129
    69  H    0.117278
    70  H    0.292642
    71  H    0.293496
    72  H    0.379808
    73  H    0.330820
 Sum of Mulliken charges =  -0.00000

 Dipole moment (field-independent basis, Debye):
    X=             -0.6702    Y=              2.9384    Z=              0.7118  Tot=              3.0968
 Quadrupole moment (field-independent basis, Debye-Ang):
   XX=           -204.5087   YY=           -225.7592   ZZ=           -214.7673
   XY=              7.6610   XZ=              9.6805   YZ=             -5.4793

 Normal termination of Gaussian 16 at Sat Nov  5 10:21:05 2022.
