 Gaussian 16, Revision B.01,
 Gaussian 16:  ES64L-G16RevB.01 20-Dec-2017

 -----------------------------
 #p b3lyp/6-31g(d) opt SCF=XQC
 -----------------------------

 ------------------------------
 Gaussian input prepared by ASE
 ------------------------------
 Symbolic Z-matrix:
 Charge =  0 Multiplicity = 1

 SCF Done:  E(RB3LYP) =  -828.528589865     A.U. after   15 cycles
 SCF Done:  E(RB3LYP) =  -828.533174645     A.U. after   12 cycles
 SCF Done:  E(RB3LYP) =  -828.533858172     A.U. after   12 cycles
 SCF Done:  E(RB3LYP) =  -828.533972048     A.U. after   11 cycles
 SCF Done:  E(RB3LYP) =  -828.533986830     A.U. after   10 cycles
 SCF Done:  E(RB3LYP) =  -828.534015026     A.U. after   10 cycles
 SCF Done:  E(RB3LYP) =  -828.534019042     A.U. after    9 cycles
 SCF Done:  E(RB3LYP) =  -828.534020383     A.U. after    8 cycles
 SCF Done:  E(RB3LYP) =  -828.534020761     A.U. after    8 cycles
 SCF Done:  E(RB3LYP) =  -828.534020842     A.U. after    7 cycles
 Optimization completed.
    -- Stationary point found.

                         Standard orientation:
 ---------------------------------------------------------------------
 Center     Atomic      Atomic             Coordinates (Angstroms)
 Number     Number       Type             X           Y           Z
 ---------------------------------------------------------------------
      1          6           0       -1.340951   -2.534198    2.349598
      2          6           0       -0.950929   -1.344895    1.460470
      3          6           0       -1.103102   -1.575454   -0.056802
      4          6           0       -2.568439   -1.687428   -0.519551
      5          8           0       -3.263336   -2.824661   -0.015205
      6          6           0       -0.342463   -0.507837   -0.933055
      7          6           0       -0.779851    0.927628   -0.695476
      8          6           0       -1.904899    1.459309   -1.330284
      9          6           0       -2.350451    2.756913   -1.076359
     10          6           0       -1.639031    3.550248   -0.178678
     11          6           0       -0.488202    3.060935    0.436559
     12          6           0       -0.043154    1.751014    0.184943
     13          7           0        1.138032    1.253849    0.765767
     14          6           0        1.767878    1.981187    1.853012
     15          6           0        1.852665    0.243604    0.096380
     16          6           0        3.240066    0.085665    0.264909
     17          6           0        3.927551   -0.915641   -0.418544
     18          6           0        3.254440   -1.762485   -1.297789
     19          6           0        1.880234   -1.598514   -1.471617
     20          6           0        1.162360   -0.622019   -0.778880
     21          1           0       -1.146802   -2.301189    3.403434
     22          1           0       -0.746876   -3.422882    2.097557
     23          1           0       -2.395728   -2.794395    2.240083
     24          1           0       -1.542054   -0.464127    1.745549
     25          1           0        0.094881   -1.092448    1.666796
     26          1           0       -0.615417   -2.534450   -0.303570
     27          1           0       -2.603086   -1.684162   -1.622909
     28          1           0       -3.144444   -0.823029   -0.175441
     29          1           0       -2.752525   -3.611688   -0.261771
     30          1           0       -0.586758   -0.762048   -1.974187
     31          1           0       -2.448608    0.834900   -2.035261
     32          1           0       -3.236048    3.139841   -1.574812
     33          1           0       -1.961266    4.566732    0.031285
     34          1           0        0.078144    3.715903    1.088631
     35          1           0        2.407492    2.810207    1.512163
     36          1           0        2.377445    1.292185    2.442191
     37          1           0        0.995585    2.386177    2.510950
     38          1           0        3.794278    0.759718    0.908003
     39          1           0        4.999876   -1.016109   -0.272874
     40          1           0        3.788993   -2.535610   -1.841872
     41          1           0        1.341056   -2.251377   -2.155689
 ---------------------------------------------------------------------

 The electronic state is 1-A.
 Alpha  occ. eigenvalues --  -19.14011 -14.36632 -10.22798 -10.22789 -10.22309
 Alpha  occ. eigenvalues --  -10.22295 -10.19941 -10.19030 -10.18997 -10.18855
 Alpha  occ. eigenvalues --  -10.18701 -10.18658 -10.18609 -10.18554 -10.18528
 Alpha  occ. eigenvalues --  -10.18507 -10.18067 -10.18002 -10.17043 -10.16002
 Alpha  occ. eigenvalues --   -1.01097  -0.96534  -0.85014  -0.84954  -0.80854
 Alpha  occ. eigenvalues --   -0.76606  -0.75219  -0.73851  -0.73619  -0.71668
 Alpha  occ. eigenvalues --   -0.69173  -0.65928  -0.62460  -0.61903  -0.60082
 Alpha  occ. eigenvalues --   -0.59147  -0.56950  -0.54482  -0.53482  -0.50840
 Alpha  occ. eigenvalues --   -0.49023  -0.47337  -0.46891  -0.46213  -0.46053
 Alpha  occ. eigenvalues --   -0.44976  -0.44572  -0.43929  -0.43352  -0.42237
 Alpha  occ. eigenvalues --   -0.41331  -0.40483  -0.39406  -0.39243  -0.38706
 Alpha  occ. eigenvalues --   -0.37541  -0.37505  -0.36491  -0.35817  -0.35026
 Alpha  occ. eigenvalues --   -0.34144  -0.33845  -0.33133  -0.32489  -0.31573
 Alpha  occ. eigenvalues --   -0.30985  -0.30411  -0.25751  -0.24830  -0.23995
 Alpha  occ. eigenvalues --   -0.23762  -0.18572
 Alpha virt. eigenvalues --   -0.00761   0.00037   0.00827   0.02721   0.07381
 Alpha virt. eigenvalues --    0.08836   0.09845   0.10135   0.11569   0.12702
 Alpha virt. eigenvalues --    0.13220   0.13547   0.14553   0.14820   0.15333

 Mulliken charges:
               1
     1  C   -0.456267
     2  C   -0.257771
     3  C   -0.084045
     4  C   -0.031353
     5  O   -0.613789
     6  C   -0.272134
     7  C    0.129470
     8  C   -0.208667
     9  C   -0.130339
    10  C   -0.139877
    11  C   -0.186644
    12  C    0.299234
    13  N   -0.600668
    14  C   -0.326967
    15  C    0.295540
    16  C   -0.189590
    17  C   -0.139826
    18  C   -0.130776
    19  C   -0.201866
    20  C    0.126578
    21  H    0.133284
    22  H    0.127843
    23  H    0.173816
    24  H    0.138134
    25  H    0.144799
    26  H    0.108790
    27  H    0.111806
    28  H    0.155722
    29  H    0.385533
    30  H    0.136745
    31  H    0.126354
    32  H    0.125285
    33  H    0.126921
    34  H    0.128638
    35  H    0.154988
    36  H    0.170572
    37  H    0.171462
    38  H    0.128685
    39  H    0.126564
    40  H    0.123731
    41  H    0.120087
 Sum of Mulliken charges =  -0.00000

 Dipole moment (field-independent basis, Debye):
    X=              1.8426    Y=              0.5658    Z=              0.0951  Tot=              1.9299
 Quadrupole moment (field-independent basis, Debye-Ang):
   XX=           -122.1167   YY=           -110.9562   ZZ=           -116.8575
   XY=             -3.3023   XZ=              7.1084   YZ=              9.1448

 Normal termination of Gaussian 16 at Fri Nov  4 21:48:34 2022.
