 Gaussian 16, Revision B.01,
 Gaussian 16:  ES64L-G16RevB.01 20-Dec-2017

 -------------------------------------------------------------------
 #p b3lyp/6-31g(d) 6D 10F nosymm GFInput td=(50-50,nstate=2) SCF=XQC
 -------------------------------------------------------------------

 ------------------------------
 Gaussian input prepared by ASE
 ------------------------------
 Symbolic Z-matrix:
 Charge =  0 Multiplicity = 1

                          Input orientation:
 ---------------------------------------------------------------------
 Center     Atomic      Atomic             Coordinates (Angstroms)
 Number     Number       Type             X           Y           Z
 ---------------------------------------------------------------------
      1          6           0       -2.808604   -0.006717    2.136389
      2          6           0       -1.579788    0.220659    1.244526
      3          6           0       -1.807945    0.000085   -0.264686
      4          6           0       -2.714180    1.064030   -0.913259
      5          8           0       -4.060318    1.059727   -0.445885
      6          6           0       -0.470266   -0.140919   -1.087444
      7          6           0        0.458004    1.057798   -0.988931
      8          6           0        0.280106    2.183346   -1.796951
      9          6           0        1.089621    3.313301   -1.675887
     10          6           0        2.117395    3.308448   -0.735149
     11          6           0        2.345407    2.183039    0.054671
     12          6           0        1.525383    1.046877   -0.063508
     13          7           0        1.765176   -0.112527    0.696763
     14          6           0        2.686444   -0.061408    1.817692
     15          6           0        1.357767   -1.358185    0.185170
     16          6           0        2.006765   -2.552446    0.546794
     17          6           0        1.591817   -3.772960    0.017153
     18          6           0        0.541021   -3.826841   -0.897298
     19          6           0       -0.095378   -2.640667   -1.262719
     20          6           0        0.281646   -1.408097   -0.726628
     21          1           0       -2.540060    0.115580    3.192554
     22          1           0       -3.197172   -1.026757    2.014962
     23          1           0       -3.616009    0.689488    1.900494
     24          1           0       -1.197120    1.238505    1.399467
     25          1           0       -0.786899   -0.458935    1.575426
     26          1           0       -2.314786   -0.972267   -0.391369
     27          1           0       -2.696237    0.938126   -2.009816
     28          1           0       -2.338317    2.068686   -0.696991
     29          1           0       -4.412355    0.165526   -0.578587
     30          1           0       -0.785040   -0.232564   -2.136622
     31          1           0       -0.519696    2.174180   -2.533655
     32          1           0        0.920213    4.179402   -2.308770
     33          1           0        2.766331    4.173365   -0.625782
     34          1           0        3.184865    2.183532    0.740410
     35          1           0        3.742137   -0.162755    1.521378
     36          1           0        2.444648   -0.862598    2.519871
     37          1           0        2.562769    0.888361    2.343029
     38          1           0        2.855376   -2.532588    1.220985
     39          1           0        2.110748   -4.681649    0.310731
     40          1           0        0.223262   -4.774575   -1.321946
     41          1           0       -0.916729   -2.666605   -1.976586
 ---------------------------------------------------------------------

 SCF Done:  E(RB3LYP) =  -828.534025106     A.U. after   15 cycles

 Excitation energies and oscillator strengths:

 Excited state symmetry could not be determined.
 Excited State   1:      Triplet-?Sym    3.3640 eV  368.56 nm  f=0.0000  <S**2>=2.000
      69 -> 73        -0.13808
      69 -> 76        -0.13594
      70 -> 73        -0.17421
      70 -> 76         0.14367
      71 -> 75        -0.19264
      72 -> 74         0.60640
 This state for optimization and/or second-order correction.
 Total Energy, E(TD-HF/TD-DFT) =  -828.410399786
 Copying the excited state density for this state as the 1-particle RhoCI density.

 Excited state symmetry could not be determined.
 Excited State   2:      Triplet-?Sym    3.5913 eV  345.24 nm  f=0.0000  <S**2>=2.000
      70 -> 74        -0.11393
      70 -> 75        -0.16911
      71 -> 73        -0.10704
      72 -> 73         0.65458
      72 -> 76        -0.11184

 Excited state symmetry could not be determined.
 Excited State   3:      Singlet-?Sym    4.1696 eV  297.36 nm  f=0.0381  <S**2>=0.000
      72 -> 73         0.69085

 Excited state symmetry could not be determined.
 Excited State   4:      Singlet-?Sym    4.4419 eV  279.13 nm  f=0.1405  <S**2>=0.000
      72 -> 74         0.65655
      72 -> 75         0.23989

 Alpha  occ. eigenvalues --  -19.14011 -14.36631 -10.22798 -10.22789 -10.22309
 Alpha  occ. eigenvalues --  -10.22295 -10.19941 -10.19030 -10.18997 -10.18855
 Alpha  occ. eigenvalues --  -10.18701 -10.18658 -10.18609 -10.18554 -10.18528
 Alpha  occ. eigenvalues --  -10.18507 -10.18067 -10.18002 -10.17043 -10.16002
 Alpha  occ. eigenvalues --   -1.01097  -0.96534  -0.85014  -0.84954  -0.80854
 Alpha  occ. eigenvalues --   -0.76606  -0.75219  -0.73851  -0.73619  -0.71668
 Alpha  occ. eigenvalues --   -0.69173  -0.65928  -0.62460  -0.61903  -0.60082
 Alpha  occ. eigenvalues --   -0.59147  -0.56950  -0.54482  -0.53482  -0.50840
 Alpha  occ. eigenvalues --   -0.49023  -0.47337  -0.46891  -0.46213  -0.46053
 Alpha  occ. eigenvalues --   -0.44976  -0.44572  -0.43929  -0.43352  -0.42237
 Alpha  occ. eigenvalues --   -0.41331  -0.40483  -0.39406  -0.39243  -0.38706
 Alpha  occ. eigenvalues --   -0.37541  -0.37505  -0.36491  -0.35817  -0.35026
 Alpha  occ. eigenvalues --   -0.34144  -0.33845  -0.33133  -0.32489  -0.31573
 Alpha  occ. eigenvalues --   -0.30985  -0.30411  -0.25751  -0.24830  -0.23995
 Alpha  occ. eigenvalues --   -0.23762  -0.18572
 Alpha virt. eigenvalues --   -0.00761   0.00037   0.00827   0.02721   0.07381
 Alpha virt. eigenvalues --    0.08836   0.09845   0.10135   0.11570   0.12702
 Alpha virt. eigenvalues --    0.13220   0.13547   0.14553   0.14820   0.15333

 Mulliken charges:
               1
     1  C   -0.456269
     2  C   -0.257773
     3  C   -0.084026
     4  C   -0.031356
     5  O   -0.613789
     6  C   -0.272181
     7  C    0.129478
     8  C   -0.208665
     9  C   -0.130336
    10  C   -0.139875
    11  C   -0.186659
    12  C    0.299252
    13  N   -0.600669
    14  C   -0.326959
    15  C    0.295551
    16  C   -0.189590
    17  C   -0.139830
    18  C   -0.130775
    19  C   -0.201857
    20  C    0.126569
    21  H    0.133285
    22  H    0.127843
    23  H    0.173816
    24  H    0.138133
    25  H    0.144800
    26  H    0.108787
    27  H    0.111807
    28  H    0.155723
    29  H    0.385533
    30  H    0.136750
    31  H    0.126354
    32  H    0.125284
    33  H    0.126922
    34  H    0.128639
    35  H    0.154987
    36  H    0.170569
    37  H    0.171460
    38  H    0.128684
    39  H    0.126565
    40  H    0.123731
    41  H    0.120086
 Sum of Mulliken charges =  -0.00000

 Dipole moment (field-independent basis, Debye):
    X=              1.5052    Y=             -1.1671    Z=              0.3109  Tot=              1.9299
 Quadrupole moment (field-independent basis, Debye-Ang):
   XX=           -117.9996   YY=           -115.6098   ZZ=           -116.0697
   XY=              7.8439   XZ=             10.3084   YZ=             -0.3898

 Normal termination of Gaussian 16 at Sat Nov  5 09:37:33 2022.
