 Gaussian 16, Revision B.01,
 Gaussian 16:  ES64L-G16RevB.01 20-Dec-2017

 -----------------------------
 #p b3lyp/6-31g(d) opt SCF=XQC
 -----------------------------

 ------------------------------
 Gaussian input prepared by ASE
 ------------------------------
 Symbolic Z-matrix:
 Charge =  0 Multiplicity = 1

 SCF Done:  E(RB3LYP) =  -1210.77260634     A.U. after   16 cycles
 SCF Done:  E(RB3LYP) =  -1210.78002138     A.U. after   13 cycles
 SCF Done:  E(RB3LYP) =  -1210.78128984     A.U. after   12 cycles
 SCF Done:  E(RB3LYP) =  -1210.78220794     A.U. after   12 cycles
 SCF Done:  E(RB3LYP) =  -1210.78275858     A.U. after   11 cycles
 SCF Done:  E(RB3LYP) =  -1210.78322310     A.U. after   11 cycles
 SCF Done:  E(RB3LYP) =  -1210.78342391     A.U. after   12 cycles
 SCF Done:  E(RB3LYP) =  -1210.78345438     A.U. after    9 cycles
 SCF Done:  E(RB3LYP) =  -1210.78347166     A.U. after   10 cycles
 SCF Done:  E(RB3LYP) =  -1210.78347604     A.U. after    9 cycles
 SCF Done:  E(RB3LYP) =  -1210.78347724     A.U. after    8 cycles
 SCF Done:  E(RB3LYP) =  -1210.78347756     A.U. after    7 cycles
 SCF Done:  E(RB3LYP) =  -1210.78347768     A.U. after    7 cycles
 SCF Done:  E(RB3LYP) =  -1210.78347766     A.U. after    6 cycles
 SCF Done:  E(RB3LYP) =  -1210.78347761     A.U. after    6 cycles
 Optimization completed.
    -- Stationary point found.

                         Standard orientation:
 ---------------------------------------------------------------------
 Center     Atomic      Atomic             Coordinates (Angstroms)
 Number     Number       Type             X           Y           Z
 ---------------------------------------------------------------------
      1          6           0       -1.161597    3.052278    2.033929
      2          6           0       -0.443384    2.117889    1.038956
      3          6           0        0.105573    2.912588   -0.162668
      4          6           0       -1.359029    1.009585    0.580249
      5          6           0       -1.268471   -0.328741    0.801824
      6          6           0       -0.202105   -1.087416    1.558395
      7          7           0        1.146620   -0.853360    1.056910
      8          6           0        1.352951   -1.398904   -0.290661
      9          6           0        2.843396   -1.360935   -0.700029
     10          6           0        3.611785   -0.291142    0.100610
     11          6           0        5.034996   -0.089850   -0.391967
     12          6           0        5.440756    1.153642   -0.893513
     13          6           0        6.741835    1.356744   -1.357852
     14          6           0        7.665344    0.311791   -1.330802
     15          6           0        7.276438   -0.934700   -0.835166
     16          6           0        5.976220   -1.130777   -0.370463
     17          6           0        3.540627   -0.651310    1.607377
     18          6           0        2.191372   -1.309298    1.974260
     19          7           0       -2.405009   -1.007930    0.327922
     20          6           0       -2.218168   -2.195191   -0.524599
     21          7           0       -3.195846   -0.023284   -0.306812
     22          6           0       -4.580600   -0.261278   -0.494639
     23          6           0       -5.278155    0.485825   -1.454949
     24          6           0       -6.639975    0.258699   -1.643494
     25          6           0       -7.312869   -0.716453   -0.903898
     26          6           0       -6.612161   -1.458605    0.047405
     27          6           0       -5.253407   -1.230028    0.263370
     28          6           0       -2.611367    1.253665   -0.138067
     29          8           0       -3.125820    2.305782   -0.504356
     30          1           0       -1.503742    2.502553    2.918700
     31          1           0       -2.032824    3.517659    1.563245
     32          1           0       -0.483700    3.846196    2.369911
     33          1           0        0.407346    1.650128    1.546564
     34          1           0        0.774965    3.710360    0.181071
     35          1           0        0.671849    2.261803   -0.839014
     36          1           0       -0.712672    3.368022   -0.728583
     37          1           0       -0.458545   -2.163549    1.590672
     38          1           0       -0.230318   -0.741876    2.599623
     39          1           0        0.986546   -2.443303   -0.355639
     40          1           0        0.750722   -0.804075   -0.986878
     41          1           0        2.926711   -1.169928   -1.775292
     42          1           0        3.305509   -2.340712   -0.524448
     43          1           0        3.078666    0.656937   -0.035769
     44          1           0        4.726911    1.974231   -0.919495
     45          1           0        7.031755    2.332102   -1.740260
     46          1           0        8.678828    0.465691   -1.691587
     47          1           0        7.987610   -1.756539   -0.809630
     48          1           0        5.692342   -2.108118    0.013285
     49          1           0        4.356525   -1.334325    1.871627
     50          1           0        3.690715    0.260006    2.197120
     51          1           0        2.281734   -2.414161    1.965097
     52          1           0        1.904336   -1.032816    2.994550
     53          1           0       -1.707195   -1.943348   -1.463106
     54          1           0       -3.197369   -2.620276   -0.751354
     55          1           0       -1.638363   -2.938902    0.023075
     56          1           0       -4.754501    1.243604   -2.022833
     57          1           0       -7.176132    0.846188   -2.383986
     58          1           0       -8.372473   -0.893392   -1.065400
     59          1           0       -7.124910   -2.212949    0.638493
     60          1           0       -4.714150   -1.779919    1.027295
 ---------------------------------------------------------------------

 The electronic state is 1-A.
 Alpha  occ. eigenvalues --  -19.10130 -14.40253 -14.39466 -14.33668 -10.27440
 Alpha  occ. eigenvalues --  -10.23537 -10.23290 -10.23136 -10.22960 -10.21655
 Alpha  occ. eigenvalues --  -10.21603 -10.19508 -10.19358 -10.18990 -10.18973
 Alpha  occ. eigenvalues --  -10.18912 -10.18882 -10.18820 -10.18722 -10.18714
 Alpha  occ. eigenvalues --  -10.18694 -10.18676 -10.18600 -10.18596 -10.18462
 Alpha  occ. eigenvalues --  -10.18319 -10.18317 -10.16109 -10.16052  -1.05481
 Alpha  occ. eigenvalues --   -0.99818  -0.93874  -0.87920  -0.85506  -0.83291
 Alpha  occ. eigenvalues --   -0.82009  -0.80617  -0.76919  -0.75643  -0.75299
 Alpha  occ. eigenvalues --   -0.74294  -0.74149  -0.72982  -0.69709  -0.68593
 Alpha  occ. eigenvalues --   -0.66848  -0.64219  -0.63729  -0.62511  -0.60967
 Alpha  occ. eigenvalues --   -0.60301  -0.59072  -0.58350  -0.55796  -0.55040
 Alpha  occ. eigenvalues --   -0.53739  -0.52477  -0.51435  -0.50319  -0.49389
 Alpha  occ. eigenvalues --   -0.48736  -0.48102  -0.47091  -0.46680  -0.45293
 Alpha  occ. eigenvalues --   -0.44728  -0.44501  -0.43953  -0.43539  -0.43075
 Alpha  occ. eigenvalues --   -0.42468  -0.42213  -0.41810  -0.41707  -0.41502
 Alpha  occ. eigenvalues --   -0.41016  -0.40619  -0.39963  -0.39340  -0.39116
 Alpha  occ. eigenvalues --   -0.38770  -0.38157  -0.37154  -0.36661  -0.36269
 Alpha  occ. eigenvalues --   -0.35849  -0.35543  -0.35306  -0.34484  -0.34367
 Alpha  occ. eigenvalues --   -0.33962  -0.33041  -0.32588  -0.32353  -0.32218
 Alpha  occ. eigenvalues --   -0.32076  -0.31688  -0.28295  -0.25035  -0.24787
 Alpha  occ. eigenvalues --   -0.23967  -0.23944  -0.22620  -0.22104  -0.20493
 Alpha virt. eigenvalues --   -0.02244  -0.00082   0.00200   0.00252   0.01201
 Alpha virt. eigenvalues --    0.06237   0.07773   0.08278   0.08819   0.09786
 Alpha virt. eigenvalues --    0.09927   0.10561   0.11099   0.12274   0.13061

 Mulliken charges:
               1
     1  C   -0.452588
     2  C   -0.144028
     3  C   -0.457456
     4  C    0.000056
     5  C    0.282644
     6  C   -0.196731
     7  N   -0.388897
     8  C   -0.119638
     9  C   -0.300553
    10  C   -0.174600
    11  C    0.183615
    12  C   -0.197771
    13  C   -0.126704
    14  C   -0.130790
    15  C   -0.130663
    16  C   -0.184878
    17  C   -0.268187
    18  C   -0.131135
    19  N   -0.345724
    20  C   -0.314825
    21  N   -0.429731
    22  C    0.284603
    23  C   -0.141323
    24  C   -0.146326
    25  C   -0.123657
    26  C   -0.143053
    27  C   -0.161409
    28  C    0.577521
    29  O   -0.547063
    30  H    0.132934
    31  H    0.179626
    32  H    0.134840
    33  H    0.138428
    34  H    0.133896
    35  H    0.137915
    36  H    0.177836
    37  H    0.126579
    38  H    0.169286
    39  H    0.107226
    40  H    0.154342
    41  H    0.151432
    42  H    0.139594
    43  H    0.152299
    44  H    0.127269
    45  H    0.129451
    46  H    0.128158
    47  H    0.127630
    48  H    0.121549
    49  H    0.138050
    50  H    0.146520
    51  H    0.114071
    52  H    0.142114
    53  H    0.165167
    54  H    0.181532
    55  H    0.168289
    56  H    0.167753
    57  H    0.133831
    58  H    0.127622
    59  H    0.129511
    60  H    0.144545
 Sum of Mulliken charges =  -0.00000

 Dipole moment (field-independent basis, Debye):
    X=              2.0955    Y=             -4.5017    Z=              0.7971  Tot=              5.0291
 Quadrupole moment (field-independent basis, Debye-Ang):
   XX=           -169.3085   YY=           -171.6482   ZZ=           -170.3973
   XY=             11.0612   XZ=              0.2687   YZ=             -2.5948

 Normal termination of Gaussian 16 at Fri Nov  4 22:06:31 2022.
