 Gaussian 16, Revision B.01,
 Gaussian 16:  ES64L-G16RevB.01 20-Dec-2017

 -------------------------------------------------------------------
 #p b3lyp/6-31g(d) 6D 10F nosymm GFInput td=(50-50,nstate=2) SCF=XQC
 -------------------------------------------------------------------

 ------------------------------
 Gaussian input prepared by ASE
 ------------------------------
 Symbolic Z-matrix:
 Charge =  0 Multiplicity = 1

                          Input orientation:
 ---------------------------------------------------------------------
 Center     Atomic      Atomic             Coordinates (Angstroms)
 Number     Number       Type             X           Y           Z
 ---------------------------------------------------------------------
      1          6           0       -2.059245   -3.285956   -0.667333
      2          6           0       -1.099799   -2.196896   -0.145513
      3          6           0       -0.534677   -2.579174    1.236985
      4          6           0       -1.783095   -0.852333   -0.096387
      5          6           0       -1.524896    0.271122   -0.817217
      6          6           0       -0.456123    0.493531   -1.862865
      7          7           0        0.893669    0.221659   -1.383831
      8          6           0        1.335227    1.177568   -0.360404
      9          6           0        2.841966    1.025273   -0.048967
     10          6           0        3.345848   -0.383322   -0.420267
     11          6           0        4.772533   -0.641971    0.033994
     12          6           0        5.048747   -1.665277    0.949969
     13          6           0        6.351872   -1.913986    1.385486
     14          6           0        7.408339   -1.136562    0.911128
     15          6           0        7.149816   -0.111378   -0.001456
     16          6           0        5.846467    0.130632   -0.434669
     17          6           0        3.150508   -0.595621   -1.944046
     18          6           0        1.878006    0.112634   -2.460916
     19          7           0       -2.486022    1.269449   -0.578097
     20          6           0       -2.028394    2.632476   -0.255563
     21          7           0       -3.331565    0.746514    0.426608
     22          6           0       -4.634719    1.281782    0.583900
     23          6           0       -5.315483    1.078466    1.793099
     24          6           0       -6.597614    1.599957    1.953966
     25          6           0       -7.203520    2.338981    0.935422
     26          6           0       -6.519318    2.540523   -0.263748
     27          6           0       -5.243651    2.008182   -0.449187
     28          6           0       -2.963904   -0.585802    0.727358
     29          8           0       -3.579557   -1.318670    1.495248
     30          1           0       -2.419569   -3.047964   -1.675105
     31          1           0       -2.927304   -3.380911   -0.008079
     32          1           0       -1.549052   -4.255787   -0.710535
     33          1           0       -0.255888   -2.109652   -0.838629
     34          1           0       -0.034318   -3.553841    1.188560
     35          1           0        0.196472   -1.838657    1.581500
     36          1           0       -1.337993   -2.639585    1.977416
     37          1           0       -0.554664    1.509727   -2.290066
     38          1           0       -0.657328   -0.199339   -2.689786
     39          1           0        1.135537    2.220329   -0.679804
     40          1           0        0.739123    0.998995    0.541811
     41          1           0        3.022962    1.231161    1.011441
     42          1           0        3.418182    1.771635   -0.610447
     43          1           0        2.699886   -1.102395    0.096780
     44          1           0        4.230848   -2.276082    1.326234
     45          1           0        6.539386   -2.715576    2.095347
     46          1           0        8.423938   -1.326700    1.247885
     47          1           0        7.965323    0.501214   -0.377642
     48          1           0        5.665019    0.932454   -1.146852
     49          1           0        4.020398   -0.216267   -2.493053
     50          1           0        3.095159   -1.670891   -2.147886
     51          1           0        2.129186    1.107894   -2.879650
     52          1           0        1.435146   -0.462972   -3.280900
     53          1           0       -1.452397    2.655670    0.678783
     54          1           0       -2.901294    3.279816   -0.155831
     55          1           0       -1.415021    3.005521   -1.076439
     56          1           0       -4.844707    0.501527    2.578240
     57          1           0       -7.122518    1.432468    2.890641
     58          1           0       -8.199338    2.750379    1.074158
     59          1           0       -6.982627    3.103838   -1.069571
     60          1           0       -4.723961    2.132195   -1.393276
 ---------------------------------------------------------------------

 SCF Done:  E(RB3LYP) =  -1210.78348150     A.U. after   16 cycles

 Excitation energies and oscillator strengths:

 Excited state symmetry could not be determined.
 Excited State   1:      Triplet-?Sym    3.2553 eV  380.87 nm  f=0.0000  <S**2>=2.000
     103 ->106        -0.19991
     103 ->110         0.15188
     105 ->106         0.63972
 This state for optimization and/or second-order correction.
 Total Energy, E(TD-HF/TD-DFT) =  -1210.66385157
 Copying the excited state density for this state as the 1-particle RhoCI density.

 Excited state symmetry could not be determined.
 Excited State   2:      Triplet-?Sym    3.5752 eV  346.79 nm  f=0.0000  <S**2>=2.000
      98 ->110         0.15837
      99 ->108        -0.24630
      99 ->109         0.10205
     102 ->108        -0.15087
     103 ->106         0.48012
     103 ->110         0.14041
     105 ->106         0.11562
     105 ->110         0.30156

 Excited state symmetry could not be determined.
 Excited State   3:      Singlet-?Sym    4.4694 eV  277.40 nm  f=0.1138  <S**2>=0.000
     102 ->106        -0.24856
     103 ->106        -0.14963
     104 ->106         0.28951
     105 ->106         0.55156

 Excited state symmetry could not be determined.
 Excited State   4:      Singlet-?Sym    4.5396 eV  273.12 nm  f=0.0886  <S**2>=0.000
     102 ->106        -0.13891
     103 ->106        -0.23262
     104 ->106         0.49303
     105 ->106        -0.39977

 Alpha  occ. eigenvalues --  -19.10130 -14.40253 -14.39466 -14.33668 -10.27440
 Alpha  occ. eigenvalues --  -10.23537 -10.23290 -10.23135 -10.22960 -10.21655
 Alpha  occ. eigenvalues --  -10.21603 -10.19508 -10.19358 -10.18990 -10.18972
 Alpha  occ. eigenvalues --  -10.18912 -10.18882 -10.18820 -10.18722 -10.18714
 Alpha  occ. eigenvalues --  -10.18694 -10.18676 -10.18600 -10.18596 -10.18462
 Alpha  occ. eigenvalues --  -10.18319 -10.18317 -10.16109 -10.16052  -1.05481
 Alpha  occ. eigenvalues --   -0.99818  -0.93874  -0.87920  -0.85506  -0.83291
 Alpha  occ. eigenvalues --   -0.82009  -0.80617  -0.76919  -0.75643  -0.75299
 Alpha  occ. eigenvalues --   -0.74294  -0.74149  -0.72982  -0.69709  -0.68593
 Alpha  occ. eigenvalues --   -0.66848  -0.64219  -0.63729  -0.62511  -0.60967
 Alpha  occ. eigenvalues --   -0.60301  -0.59072  -0.58350  -0.55796  -0.55040
 Alpha  occ. eigenvalues --   -0.53739  -0.52477  -0.51435  -0.50319  -0.49389
 Alpha  occ. eigenvalues --   -0.48736  -0.48102  -0.47091  -0.46680  -0.45293
 Alpha  occ. eigenvalues --   -0.44728  -0.44501  -0.43953  -0.43539  -0.43075
 Alpha  occ. eigenvalues --   -0.42468  -0.42213  -0.41810  -0.41707  -0.41502
 Alpha  occ. eigenvalues --   -0.41016  -0.40619  -0.39963  -0.39340  -0.39116
 Alpha  occ. eigenvalues --   -0.38770  -0.38157  -0.37154  -0.36661  -0.36269
 Alpha  occ. eigenvalues --   -0.35849  -0.35543  -0.35306  -0.34484  -0.34367
 Alpha  occ. eigenvalues --   -0.33962  -0.33041  -0.32588  -0.32353  -0.32218
 Alpha  occ. eigenvalues --   -0.32076  -0.31688  -0.28295  -0.25035  -0.24787
 Alpha  occ. eigenvalues --   -0.23967  -0.23944  -0.22620  -0.22104  -0.20493
 Alpha virt. eigenvalues --   -0.02244  -0.00082   0.00200   0.00252   0.01201
 Alpha virt. eigenvalues --    0.06237   0.07773   0.08278   0.08819   0.09786
 Alpha virt. eigenvalues --    0.09927   0.10561   0.11099   0.12273   0.13061

 Mulliken charges:
               1
     1  C   -0.452592
     2  C   -0.144020
     3  C   -0.457455
     4  C    0.000034
     5  C    0.282658
     6  C   -0.196743
     7  N   -0.388876
     8  C   -0.119637
     9  C   -0.300527
    10  C   -0.174621
    11  C    0.183622
    12  C   -0.197766
    13  C   -0.126709
    14  C   -0.130786
    15  C   -0.130662
    16  C   -0.184889
    17  C   -0.268168
    18  C   -0.131169
    19  N   -0.345730
    20  C   -0.314814
    21  N   -0.429748
    22  C    0.284657
    23  C   -0.141343
    24  C   -0.146327
    25  C   -0.123652
    26  C   -0.143034
    27  C   -0.161448
    28  C    0.577530
    29  O   -0.547058
    30  H    0.132933
    31  H    0.179626
    32  H    0.134841
    33  H    0.138427
    34  H    0.133895
    35  H    0.137914
    36  H    0.177834
    37  H    0.126580
    38  H    0.169290
    39  H    0.107226
    40  H    0.154340
    41  H    0.151428
    42  H    0.139590
    43  H    0.152298
    44  H    0.127266
    45  H    0.129451
    46  H    0.128157
    47  H    0.127630
    48  H    0.121549
    49  H    0.138051
    50  H    0.146520
    51  H    0.114076
    52  H    0.142117
    53  H    0.165164
    54  H    0.181530
    55  H    0.168287
    56  H    0.167750
    57  H    0.133831
    58  H    0.127620
    59  H    0.129509
    60  H    0.144544
 Sum of Mulliken charges =  -0.00000

 Dipole moment (field-independent basis, Debye):
    X=              2.6215    Y=              3.4378    Z=             -2.5694  Tot=              5.0291
 Quadrupole moment (field-independent basis, Debye-Ang):
   XX=           -173.9162   YY=           -169.2184   ZZ=           -169.0723
   XY=            -11.1918   XZ=              4.3205   YZ=             -1.7042

 Normal termination of Gaussian 16 at Sat Nov  5 09:37:56 2022.
