 Gaussian 16, Revision B.01,
 Gaussian 16:  ES64L-G16RevB.01 20-Dec-2017

 -------------------------------------------------------------------
 #p b3lyp/6-31g(d) 6D 10F nosymm GFInput td=(50-50,nstate=2) SCF=XQC
 -------------------------------------------------------------------

 ------------------------------
 Gaussian input prepared by ASE
 ------------------------------
 Symbolic Z-matrix:
 Charge =  0 Multiplicity = 1

                          Input orientation:
 ---------------------------------------------------------------------
 Center     Atomic      Atomic             Coordinates (Angstroms)
 Number     Number       Type             X           Y           Z
 ---------------------------------------------------------------------
      1          6           0      -11.050380   -0.243974   -1.385482
      2          6           0       -9.521380   -0.286394   -1.310447
      3          6           0       -8.957312    0.529282   -0.128855
      4          6           0       -7.447058    0.493691   -0.049775
      5          6           0       -6.782433   -0.490362    0.692922
      6          6           0       -5.391453   -0.547642    0.733151
      7          6           0       -4.605716    0.381988    0.031365
      8          6           0       -3.125812    0.326550    0.120544
      9          6           0       -2.474889   -0.004509    1.322722
     10          6           0       -1.089539   -0.078025    1.422276
     11          6           0       -0.268590    0.180533    0.311477
     12          6           0        1.209711    0.107657    0.406986
     13          6           0        1.884339    0.516321    1.568075
     14          6           0        3.273262    0.444424    1.654225
     15          6           0        4.049058   -0.036066    0.591573
     16          6           0        5.561902   -0.110774    0.704215
     17          6           0        6.088622   -1.561895    0.623649
     18          6           0        7.616851   -1.623756    0.763412
     19          6           0        8.336982   -0.742932   -0.273093
     20          6           0        9.859640   -0.799098   -0.107025
     21          6           0        7.807545    0.700394   -0.196822
     22          6           0        6.280105    0.772372   -0.341051
     23          6           0        3.373338   -0.444147   -0.568672
     24          6           0        1.986202   -0.374395   -0.660603
     25          6           0       -0.898603    0.514450   -0.897038
     26          6           0       -2.281406    0.579503   -0.969616
     27          9           0       -2.822961    0.903997   -2.168593
     28          6           0       -5.271931    1.366856   -0.718340
     29          6           0       -6.662859    1.418981   -0.751661
     30          1           0      -11.504626   -0.650205   -0.473225
     31          1           0      -11.413983    0.784069   -1.505768
     32          1           0      -11.423335   -0.830396   -2.232804
     33          1           0       -9.090911    0.095560   -2.245639
     34          1           0       -9.180477   -1.326448   -1.221322
     35          1           0       -9.385979    0.143486    0.805951
     36          1           0       -9.298152    1.569431   -0.221283
     37          1           0       -7.362496   -1.226664    1.245609
     38          1           0       -4.906802   -1.335918    1.302708
     39          1           0       -3.080700   -0.194976    2.203804
     40          1           0       -0.638375   -0.358004    2.369298
     41          1           0        1.318457    0.920465    2.402953
     42          1           0        3.766701    0.777575    2.564872
     43          1           0        5.834522    0.277254    1.697397
     44          1           0        5.609824   -2.171585    1.400108
     45          1           0        5.793207   -2.000553   -0.340249
     46          1           0        7.957753   -2.663889    0.672736
     47          1           0        7.903678   -1.291361    1.773274
     48          1           0        8.088344   -1.135587   -1.272704
     49          1           0       10.366537   -0.193310   -0.867858
     50          1           0       10.232751   -1.826786   -0.193230
     51          1           0       10.161679   -0.417399    0.877005
     52          1           0        8.284590    1.315960   -0.971275
     53          1           0        8.102649    1.136768    0.770168
     54          1           0        5.936808    1.810098   -0.245450
     55          1           0        5.994554    0.443703   -1.350583
     56          1           0        3.936259   -0.832177   -1.414003
     57          1           0        1.494542   -0.723982   -1.564428
     58          1           0       -0.324708    0.747123   -1.787768
     59          1           0       -4.697053    2.104001   -1.267320
     60          1           0       -7.150493    2.200837   -1.330496
 ---------------------------------------------------------------------

 SCF Done:  E(RB3LYP) =  -1185.53896968     A.U. after   14 cycles

 Excitation energies and oscillator strengths:

 Excited state symmetry could not be determined.
 Excited State   1:      Triplet-?Sym    2.9786 eV  416.25 nm  f=0.0000  <S**2>=2.000
      99 ->110         0.10624
     101 ->109        -0.11034
     102 ->106         0.10280
     102 ->107         0.10258
     103 ->108        -0.16513
     104 ->105         0.63314
 This state for optimization and/or second-order correction.
 Total Energy, E(TD-HF/TD-DFT) =  -1185.42950877
 Copying the excited state density for this state as the 1-particle RhoCI density.

 Excited state symmetry could not be determined.
 Excited State   2:      Triplet-?Sym    3.5582 eV  348.44 nm  f=0.0000  <S**2>=2.000
      99 ->108         0.10694
     100 ->106         0.19554
     100 ->107        -0.14046
     101 ->107         0.11110
     101 ->109         0.17130
     102 ->107        -0.10606
     103 ->105         0.42122
     103 ->110        -0.14047
     104 ->108        -0.35183
     104 ->109         0.12869

 Excited state symmetry could not be determined.
 Excited State   3:      Singlet-?Sym    4.2195 eV  293.84 nm  f=1.2726  <S**2>=0.000
     104 ->105         0.70060

 Excited state symmetry could not be determined.
 Excited State   4:      Singlet-?Sym    4.7079 eV  263.35 nm  f=0.0389  <S**2>=0.000
     101 ->105        -0.22257
     102 ->105        -0.41268
     103 ->105        -0.11048
     104 ->106         0.42097
     104 ->107         0.20081
     104 ->108        -0.13391
     104 ->109        -0.11106

 Alpha  occ. eigenvalues --  -24.70107 -10.26850 -10.20440 -10.20256 -10.19756
 Alpha  occ. eigenvalues --  -10.19692 -10.19471 -10.19246 -10.19158 -10.19108
 Alpha  occ. eigenvalues --  -10.19029 -10.18921 -10.18886 -10.18854 -10.18673
 Alpha  occ. eigenvalues --  -10.18653 -10.18642 -10.18459 -10.18432 -10.18428
 Alpha  occ. eigenvalues --  -10.18394 -10.18286 -10.18195 -10.17956 -10.17948
 Alpha  occ. eigenvalues --  -10.17732 -10.17729 -10.17387 -10.17172  -1.21141
 Alpha  occ. eigenvalues --   -0.87260  -0.85916  -0.84785  -0.83104  -0.80125
 Alpha  occ. eigenvalues --   -0.78514  -0.76618  -0.74860  -0.74183  -0.74055
 Alpha  occ. eigenvalues --   -0.73800  -0.73791  -0.71551  -0.67868  -0.66535
 Alpha  occ. eigenvalues --   -0.62833  -0.62369  -0.60868  -0.60558  -0.59846
 Alpha  occ. eigenvalues --   -0.59050  -0.58681  -0.56995  -0.56676  -0.54901
 Alpha  occ. eigenvalues --   -0.53627  -0.50843  -0.49433  -0.49126  -0.47088
 Alpha  occ. eigenvalues --   -0.46852  -0.46433  -0.46079  -0.45402  -0.44552
 Alpha  occ. eigenvalues --   -0.43786  -0.43720  -0.43661  -0.43212  -0.43163
 Alpha  occ. eigenvalues --   -0.42509  -0.41564  -0.41456  -0.41365  -0.41257
 Alpha  occ. eigenvalues --   -0.40226  -0.38938  -0.38185  -0.37986  -0.37678
 Alpha  occ. eigenvalues --   -0.37531  -0.37399  -0.36927  -0.36125  -0.35478
 Alpha  occ. eigenvalues --   -0.35197  -0.34321  -0.34200  -0.34058  -0.33905
 Alpha  occ. eigenvalues --   -0.33458  -0.33269  -0.32508  -0.32360  -0.32209
 Alpha  occ. eigenvalues --   -0.31466  -0.29622  -0.29614  -0.27553  -0.24900
 Alpha  occ. eigenvalues --   -0.24554  -0.24510  -0.23882  -0.20811
 Alpha virt. eigenvalues --   -0.03827  -0.00316   0.00186   0.00356   0.00509
 Alpha virt. eigenvalues --    0.04211   0.08739   0.09246   0.09425   0.09831
 Alpha virt. eigenvalues --    0.10305   0.11026   0.11971   0.12557   0.12729

 Mulliken charges:
               1
     1  C   -0.441517
     2  C   -0.242791
     3  C   -0.343029
     4  C    0.179780
     5  C   -0.189318
     6  C   -0.172227
     7  C    0.099144
     8  C    0.017268
     9  C   -0.187370
    10  C   -0.177764
    11  C    0.097734
    12  C    0.088546
    13  C   -0.173374
    14  C   -0.203608
    15  C    0.193892
    16  C   -0.178111
    17  C   -0.261804
    18  C   -0.257192
    19  C   -0.069453
    20  C   -0.445453
    21  C   -0.257326
    22  C   -0.262288
    23  C   -0.191520
    24  C   -0.176091
    25  C   -0.256033
    26  C    0.326785
    27  F   -0.296243
    28  C   -0.163640
    29  C   -0.189819
    30  H    0.142065
    31  H    0.142401
    32  H    0.145434
    33  H    0.139633
    34  H    0.138652
    35  H    0.138353
    36  H    0.139531
    37  H    0.122121
    38  H    0.130433
    39  H    0.139294
    40  H    0.133834
    41  H    0.131742
    42  H    0.124762
    43  H    0.120840
    44  H    0.136526
    45  H    0.129909
    46  H    0.129486
    47  H    0.124510
    48  H    0.116294
    49  H    0.139930
    50  H    0.139882
    51  H    0.138582
    52  H    0.129516
    53  H    0.124595
    54  H    0.136986
    55  H    0.129724
    56  H    0.127361
    57  H    0.132681
    58  H    0.145652
    59  H    0.138939
    60  H    0.123152
 Sum of Mulliken charges =  -0.00000

 Dipole moment (field-independent basis, Debye):
    X=              0.7542    Y=             -0.3701    Z=              0.8819  Tot=              1.2180
 Quadrupole moment (field-independent basis, Debye-Ang):
   XX=           -151.8494   YY=           -173.0894   ZZ=           -167.8969
   XY=              0.2282   XZ=             -2.5000   YZ=             -1.1829

 Normal termination of Gaussian 16 at Sat Nov  5 09:36:59 2022.
