 Gaussian 16, Revision B.01,
 Gaussian 16:  ES64L-G16RevB.01 20-Dec-2017

 -----------------------------
 #p b3lyp/6-31g(d) opt SCF=XQC
 -----------------------------

 ------------------------------
 Gaussian input prepared by ASE
 ------------------------------
 Symbolic Z-matrix:
 Charge =  0 Multiplicity = 1

 SCF Done:  E(RB3LYP) =  -1185.53241074     A.U. after   14 cycles
 SCF Done:  E(RB3LYP) =  -1185.53859526     A.U. after   11 cycles
 SCF Done:  E(RB3LYP) =  -1185.53890586     A.U. after   11 cycles
 SCF Done:  E(RB3LYP) =  -1185.53895608     A.U. after   10 cycles
 SCF Done:  E(RB3LYP) =  -1185.53896225     A.U. after    9 cycles
 SCF Done:  E(RB3LYP) =  -1185.53896424     A.U. after    8 cycles
 SCF Done:  E(RB3LYP) =  -1185.53896432     A.U. after    7 cycles
 SCF Done:  E(RB3LYP) =  -1185.53896431     A.U. after    6 cycles
 SCF Done:  E(RB3LYP) =  -1185.53896424     A.U. after    7 cycles
 SCF Done:  E(RB3LYP) =  -1185.53896417     A.U. after    7 cycles
 SCF Done:  E(RB3LYP) =  -1185.53896412     A.U. after    7 cycles
 SCF Done:  E(RB3LYP) =  -1185.53896401     A.U. after    6 cycles
 SCF Done:  E(RB3LYP) =  -1185.53896433     A.U. after    9 cycles
 SCF Done:  E(RB3LYP) =  -1185.53896397     A.U. after    9 cycles
 Optimization completed.
    -- Stationary point found.

                         Standard orientation:
 ---------------------------------------------------------------------
 Center     Atomic      Atomic             Coordinates (Angstroms)
 Number     Number       Type             X           Y           Z
 ---------------------------------------------------------------------
      1          6           0       10.769227    0.521564    0.994287
      2          6           0        9.238054    0.534237    0.969409
      3          6           0        8.651478   -0.295120   -0.191520
      4          6           0        7.139109   -0.285336   -0.223641
      5          6           0        6.392665   -1.254502    0.458433
      6          6           0        5.000305   -1.222239    0.462351
      7          6           0        4.295243   -0.216798   -0.220344
      8          6           0        2.811722   -0.224712   -0.235985
      9          6           0        2.085020   -1.426280   -0.317659
     10          6           0        0.694464   -1.455678   -0.316842
     11          6           0       -0.055236   -0.269950   -0.235093
     12          6           0       -1.538283   -0.289414   -0.236136
     13          6           0       -2.252697   -1.219461   -1.007422
     14          6           0       -3.646049   -1.235420   -1.004022
     15          6           0       -4.386974   -0.329054   -0.234938
     16          6           0       -5.905452   -0.363138   -0.240570
     17          6           0       -6.493073   -0.706638    1.147373
     18          6           0       -8.027714   -0.761438    1.120604
     19          6           0       -8.652239    0.541853    0.591281
     20          6           0      -10.182424    0.463546    0.550985
     21          6           0       -8.062042    0.886818   -0.787841
     22          6           0       -6.527493    0.949061   -0.769288
     23          6           0       -3.671488    0.600305    0.535559
     24          6           0       -2.279717    0.621188    0.535965
     25          6           0        0.651064    0.939845   -0.154706
     26          6           0        2.037296    0.941192   -0.156046
     27          9           0        2.654426    2.144616   -0.072120
     28          6           0        5.043673    0.759164   -0.900943
     29          6           0        6.435389    0.718748   -0.902144
     30          1           0       11.156622   -0.498834    1.105147
     31          1           0       11.185174    0.933633    0.066529
     32          1           0       11.158329    1.117831    1.827358
     33          1           0        8.874457    1.567281    0.889445
     34          1           0        8.845816    0.146511    1.918981
     35          1           0        9.013122   -1.328883   -0.107838
     36          1           0        9.043829    0.095771   -1.140145
     37          1           0        6.909095   -2.045177    0.998996
     38          1           0        4.451312   -1.977564    1.018006
     39          1           0        2.635093   -2.359349   -0.397607
     40          1           0        0.182580   -2.412122   -0.361303
     41          1           0       -1.712889   -1.920459   -1.638123
     42          1           0       -4.170201   -1.963178   -1.619964
     43          1           0       -6.211073   -1.165998   -0.928545
     44          1           0       -6.083458   -1.663436    1.494666
     45          1           0       -6.168540    0.051203    1.874798
     46          1           0       -8.410652   -0.978767    2.126804
     47          1           0       -8.350914   -1.596585    0.479784
     48          1           0       -8.370422    1.350883    1.285017
     49          1           0      -10.621057    1.406097    0.201717
     50          1           0      -10.597157    0.247911    1.543096
     51          1           0      -10.517209   -0.330749   -0.128905
     52          1           0       -8.469743    1.843438   -1.141293
     53          1           0       -8.386528    0.125313   -1.514062
     54          1           0       -6.142531    1.160818   -1.774688
     55          1           0       -6.205413    1.785139   -0.132142
     56          1           0       -4.207065    1.316058    1.154339
     57          1           0       -1.758445    1.337457    1.165308
     58          1           0        0.135259    1.893217   -0.110904
     59          1           0        4.532263    1.546261   -1.443332
     60          1           0        6.987544    1.480672   -1.448709
 ---------------------------------------------------------------------

 The electronic state is 1-A.
 Alpha  occ. eigenvalues --  -24.70107 -10.26850 -10.20440 -10.20256 -10.19756
 Alpha  occ. eigenvalues --  -10.19692 -10.19471 -10.19246 -10.19158 -10.19108
 Alpha  occ. eigenvalues --  -10.19029 -10.18921 -10.18886 -10.18854 -10.18673
 Alpha  occ. eigenvalues --  -10.18653 -10.18642 -10.18459 -10.18432 -10.18428
 Alpha  occ. eigenvalues --  -10.18395 -10.18286 -10.18195 -10.17956 -10.17948
 Alpha  occ. eigenvalues --  -10.17732 -10.17729 -10.17387 -10.17172  -1.21141
 Alpha  occ. eigenvalues --   -0.87260  -0.85916  -0.84785  -0.83104  -0.80125
 Alpha  occ. eigenvalues --   -0.78514  -0.76618  -0.74860  -0.74183  -0.74055
 Alpha  occ. eigenvalues --   -0.73800  -0.73791  -0.71551  -0.67868  -0.66535
 Alpha  occ. eigenvalues --   -0.62833  -0.62369  -0.60868  -0.60558  -0.59846
 Alpha  occ. eigenvalues --   -0.59050  -0.58681  -0.56995  -0.56676  -0.54901
 Alpha  occ. eigenvalues --   -0.53627  -0.50843  -0.49433  -0.49126  -0.47088
 Alpha  occ. eigenvalues --   -0.46852  -0.46433  -0.46079  -0.45401  -0.44552
 Alpha  occ. eigenvalues --   -0.43786  -0.43720  -0.43661  -0.43212  -0.43163
 Alpha  occ. eigenvalues --   -0.42509  -0.41564  -0.41456  -0.41365  -0.41257
 Alpha  occ. eigenvalues --   -0.40226  -0.38938  -0.38185  -0.37986  -0.37678
 Alpha  occ. eigenvalues --   -0.37531  -0.37399  -0.36927  -0.36125  -0.35478
 Alpha  occ. eigenvalues --   -0.35197  -0.34321  -0.34200  -0.34058  -0.33905
 Alpha  occ. eigenvalues --   -0.33458  -0.33269  -0.32508  -0.32360  -0.32209
 Alpha  occ. eigenvalues --   -0.31466  -0.29622  -0.29614  -0.27553  -0.24900
 Alpha  occ. eigenvalues --   -0.24554  -0.24510  -0.23882  -0.20811
 Alpha virt. eigenvalues --   -0.03827  -0.00316   0.00186   0.00356   0.00509
 Alpha virt. eigenvalues --    0.04211   0.08739   0.09246   0.09425   0.09831
 Alpha virt. eigenvalues --    0.10305   0.11026   0.11971   0.12557   0.12729

 Mulliken charges:
               1
     1  C   -0.441516
     2  C   -0.242792
     3  C   -0.343031
     4  C    0.179793
     5  C   -0.189318
     6  C   -0.172247
     7  C    0.099153
     8  C    0.017267
     9  C   -0.187367
    10  C   -0.177764
    11  C    0.097721
    12  C    0.088558
    13  C   -0.173378
    14  C   -0.203606
    15  C    0.193909
    16  C   -0.178157
    17  C   -0.261807
    18  C   -0.257149
    19  C   -0.069486
    20  C   -0.445445
    21  C   -0.257337
    22  C   -0.262240
    23  C   -0.191529
    24  C   -0.176090
    25  C   -0.256024
    26  C    0.326785
    27  F   -0.296244
    28  C   -0.163636
    29  C   -0.189827
    30  H    0.142065
    31  H    0.142401
    32  H    0.145434
    33  H    0.139633
    34  H    0.138652
    35  H    0.138353
    36  H    0.139531
    37  H    0.122121
    38  H    0.130435
    39  H    0.139294
    40  H    0.133832
    41  H    0.131742
    42  H    0.124762
    43  H    0.120842
    44  H    0.136528
    45  H    0.129908
    46  H    0.129482
    47  H    0.124506
    48  H    0.116296
    49  H    0.139928
    50  H    0.139881
    51  H    0.138581
    52  H    0.129518
    53  H    0.124596
    54  H    0.136981
    55  H    0.129718
    56  H    0.127361
    57  H    0.132680
    58  H    0.145652
    59  H    0.138938
    60  H    0.123153
 Sum of Mulliken charges =  -0.00000

 Dipole moment (field-independent basis, Debye):
    X=             -0.8149    Y=             -0.9036    Z=              0.0533  Tot=              1.2180
 Quadrupole moment (field-independent basis, Debye-Ang):
   XX=           -151.6959   YY=           -167.3032   ZZ=           -173.2943
   XY=             -3.1497   XZ=              0.0082   YZ=              0.5085

 1\1\GINC-NODE35\FOpt\RB3LYP\6-31G(d)\C28H31F1\WYKGROUP\04-Nov-2022\0\\
 #p b3lyp/6-31g(d) opt SCF=XQC\\Gaussian input prepared by ASE\\0,1\C,-
 11.0503798126,-0.2439735741,-1.3854822188\C,-9.5213798108,-0.286393611
 ,-1.310446793\C,-8.9573118456,0.5292816658,-0.1288546724\C,-7.44705754
 16,0.4936913287,-0.0497749931\C,-6.7824328744,-0.4903620765,0.69292193
 8\C,-5.3914532659,-0.5476423403,0.733150615\C,-4.6057164327,0.38198825
 29,0.0313654634\C,-3.1258118773,0.326550109,0.1205438992\C,-2.47488933
 35,-0.0045089977,1.3227217583\C,-1.0895386799,-0.0780251955,1.42227630

 Normal termination of Gaussian 16 at Fri Nov  4 21:58:36 2022.
