 Gaussian 16, Revision B.01,
 Gaussian 16:  ES64L-G16RevB.01 20-Dec-2017

 -------------------------------------------------------------------
 #p b3lyp/6-31g(d) 6D 10F nosymm GFInput td=(50-50,nstate=2) SCF=XQC
 -------------------------------------------------------------------

 ------------------------------
 Gaussian input prepared by ASE
 ------------------------------
 Symbolic Z-matrix:
 Charge =  0 Multiplicity = 1

                          Input orientation:
 ---------------------------------------------------------------------
 Center     Atomic      Atomic             Coordinates (Angstroms)
 Number     Number       Type             X           Y           Z
 ---------------------------------------------------------------------
      1          6           0       10.523009    1.583810    0.002826
      2          6           0        9.218660    1.375909   -0.754657
      3          8           0        9.178432    1.390802   -1.975383
      4          7           0        8.117580    1.163379    0.052165
      5          6           0        6.780843    0.924480   -0.316963
      6          6           0        5.845945    0.745060    0.717314
      7          6           0        4.510913    0.504637    0.432579
      8          6           0        4.054945    0.440510   -0.894914
      9          6           0        2.620489    0.189170   -1.173413
     10          6           0        2.050880    0.347832   -2.451955
     11          6           0        0.695814    0.077752   -2.569896
     12          7           0       -0.078483   -0.313136   -1.551879
     13          6           0        0.552645   -0.427275   -0.370536
     14          7           0       -0.138200   -0.815280    0.750680
     15          6           0       -1.482026   -1.156934    0.977297
     16          6           0       -1.825034   -1.494524    2.301668
     17          6           0       -3.137137   -1.838189    2.598983
     18          6           0       -4.127803   -1.858508    1.617182
     19          6           0       -3.787211   -1.534501    0.292634
     20          7           0       -4.711067   -1.582336   -0.747192
     21          6           0       -6.133882   -1.757675   -0.574613
     22          6           0       -6.916514   -0.549675   -0.065147
     23          6           0       -6.343575    0.699742    0.185942
     24          6           0       -7.119556    1.772660    0.633287
     25          6           0       -8.490340    1.610974    0.835968
     26          6           0       -9.089153    0.372796    0.592061
     27          6           0       -8.290222   -0.671374    0.150139
     28          9           0       -8.864621   -1.877901   -0.092528
     29          6           0       -2.460162   -1.178579   -0.019036
     30          7           0        1.861522   -0.194641   -0.139425
     31          6           0        4.999923    0.616421   -1.917637
     32          6           0        6.344442    0.854454   -1.649300
     33          1           0       10.407930    1.650650    1.089272
     34          1           0       11.199805    0.754770   -0.228640
     35          1           0       10.994482    2.500658   -0.362100
     36          1           0        8.285741    1.176932    1.048753
     37          1           0        6.173284    0.796283    1.754287
     38          1           0        3.796120    0.363593    1.235048
     39          1           0        2.622772    0.681882   -3.307942
     40          1           0        0.194638    0.181844   -3.531428
     41          1           0        0.464738   -0.859427    1.561487
     42          1           0       -1.067470   -1.478920    3.081491
     43          1           0       -3.401925   -2.089588    3.622853
     44          1           0       -5.147720   -2.108776    1.885570
     45          1           0       -4.420752   -1.126530   -1.600521
     46          1           0       -6.309464   -2.611092    0.091101
     47          1           0       -6.547652   -2.064457   -1.543043
     48          1           0       -5.275890    0.825831    0.036523
     49          1           0       -6.650011    2.733193    0.824958
     50          1           0       -9.097016    2.442263    1.183766
     51          1           0      -10.151838    0.206883    0.736851
     52          1           0       -2.185590   -0.929418   -1.035575
     53          1           0        4.696928    0.551101   -2.957795
     54          1           0        7.057838    0.982468   -2.450608
 ---------------------------------------------------------------------

 SCF Done:  E(RB3LYP) =  -1414.77222686     A.U. after   15 cycles

 Excitation energies and oscillator strengths:

 Excited state symmetry could not be determined.
 Excited State   1:      Triplet-?Sym    2.8390 eV  436.72 nm  f=0.0000  <S**2>=2.000
     110 ->113         0.29099
     111 ->113         0.33077
     112 ->113         0.51452
 This state for optimization and/or second-order correction.
 Total Energy, E(TD-HF/TD-DFT) =  -1414.66789681
 Copying the excited state density for this state as the 1-particle RhoCI density.

 Excited state symmetry could not be determined.
 Excited State   2:      Triplet-?Sym    3.0320 eV  408.92 nm  f=0.0000  <S**2>=2.000
     110 ->113         0.56298
     112 ->113        -0.31335

 Excited state symmetry could not be determined.
 Excited State   3:      Singlet-?Sym    3.1168 eV  397.79 nm  f=0.0056  <S**2>=0.000
     112 ->113         0.70015

 Excited state symmetry could not be determined.
 Excited State   4:      Singlet-?Sym    3.5364 eV  350.60 nm  f=0.0048  <S**2>=0.000
     111 ->113         0.69378

 Alpha  occ. eigenvalues --  -24.70263 -19.12559 -14.38794 -14.36542 -14.34194
 Alpha  occ. eigenvalues --  -14.32695 -14.32645 -10.30455 -10.28940 -10.26613
 Alpha  occ. eigenvalues --  -10.24637 -10.24506 -10.23397 -10.22732 -10.22625
 Alpha  occ. eigenvalues --  -10.22057 -10.20378 -10.19992 -10.19976 -10.19896
 Alpha  occ. eigenvalues --  -10.19862 -10.19552 -10.19504 -10.19351 -10.19205
 Alpha  occ. eigenvalues --  -10.19027 -10.18951 -10.18914 -10.17993 -10.17082
 Alpha  occ. eigenvalues --  -10.16761 -10.16497  -1.21181  -1.04596  -1.00189
 Alpha  occ. eigenvalues --   -0.95124  -0.93327  -0.92700  -0.89038  -0.85804
 Alpha  occ. eigenvalues --   -0.85425  -0.82825  -0.78958  -0.77130  -0.76466
 Alpha  occ. eigenvalues --   -0.75399  -0.74404  -0.73300  -0.73061  -0.72458
 Alpha  occ. eigenvalues --   -0.67801  -0.66590  -0.65486  -0.63206  -0.62107
 Alpha  occ. eigenvalues --   -0.61407  -0.60253  -0.59570  -0.58023  -0.57231
 Alpha  occ. eigenvalues --   -0.54717  -0.54387  -0.53617  -0.53290  -0.50968
 Alpha  occ. eigenvalues --   -0.49770  -0.49145  -0.48607  -0.48402  -0.47541
 Alpha  occ. eigenvalues --   -0.46828  -0.46713  -0.46107  -0.45645  -0.44718
 Alpha  occ. eigenvalues --   -0.44445  -0.44081  -0.43838  -0.43663  -0.43153
 Alpha  occ. eigenvalues --   -0.42598  -0.41893  -0.41426  -0.40977  -0.40947
 Alpha  occ. eigenvalues --   -0.40546  -0.40324  -0.39860  -0.39196  -0.38317
 Alpha  occ. eigenvalues --   -0.37290  -0.36885  -0.36368  -0.35818  -0.35209
 Alpha  occ. eigenvalues --   -0.35061  -0.34487  -0.34319  -0.33768  -0.32533
 Alpha  occ. eigenvalues --   -0.30220  -0.29882  -0.28767  -0.26020  -0.25983
 Alpha  occ. eigenvalues --   -0.25705  -0.25076  -0.24675  -0.23810  -0.22083
 Alpha  occ. eigenvalues --   -0.20279  -0.18453
 Alpha virt. eigenvalues --   -0.05397  -0.01849  -0.00327  -0.00253   0.00245
 Alpha virt. eigenvalues --    0.00504   0.02404   0.03742   0.05685   0.05909
 Alpha virt. eigenvalues --    0.08631   0.08956   0.09278   0.09888   0.10882

 Mulliken charges:
               1
     1  C   -0.542041
     2  C    0.604010
     3  O   -0.486390
     4  N   -0.713123
     5  C    0.368798
     6  C   -0.201194
     7  C   -0.161651
     8  C    0.097840
     9  C    0.297068
    10  C   -0.204979
    11  C    0.065963
    12  N   -0.482214
    13  C    0.701791
    14  N   -0.769936
    15  C    0.369006
    16  C   -0.211423
    17  C   -0.139366
    18  C   -0.188674
    19  C    0.367290
    20  N   -0.664225
    21  C   -0.206444
    22  C    0.070594
    23  C   -0.177226
    24  C   -0.130607
    25  C   -0.132512
    26  C   -0.195245
    27  C    0.329345
    28  F   -0.301459
    29  C   -0.251548
    30  N   -0.583397
    31  C   -0.197036
    32  C   -0.172565
    33  H    0.145879
    34  H    0.192851
    35  H    0.193636
    36  H    0.331405
    37  H    0.124241
    38  H    0.154726
    39  H    0.141860
    40  H    0.143794
    41  H    0.338005
    42  H    0.111150
    43  H    0.124103
    44  H    0.123224
    45  H    0.320270
    46  H    0.176717
    47  H    0.168580
    48  H    0.145417
    49  H    0.133001
    50  H    0.135603
    51  H    0.143913
    52  H    0.164179
    53  H    0.138462
    54  H    0.190533
 Sum of Mulliken charges =  -0.00000

 Dipole moment (field-independent basis, Debye):
    X=              2.3134    Y=              1.8901    Z=              2.2193  Tot=              3.7215
 Quadrupole moment (field-independent basis, Debye-Ang):
   XX=           -155.5762   YY=           -186.5151   ZZ=           -172.6434
   XY=             -4.8971   XZ=             28.8525   YZ=              3.4383

 Normal termination of Gaussian 16 at Sat Nov  5 09:41:18 2022.
