 Gaussian 16, Revision B.01,
 Gaussian 16:  ES64L-G16RevB.01 20-Dec-2017

 -----------------------------
 #p b3lyp/6-31g(d) opt SCF=XQC
 -----------------------------

 ------------------------------
 Gaussian input prepared by ASE
 ------------------------------
 Symbolic Z-matrix:
 Charge =  0 Multiplicity = 1

 SCF Done:  E(RB3LYP) =  -1414.76542721     A.U. after   15 cycles
 SCF Done:  E(RB3LYP) =  -1414.77073118     A.U. after   12 cycles
 SCF Done:  E(RB3LYP) =  -1414.77177675     A.U. after   12 cycles
 SCF Done:  E(RB3LYP) =  -1414.77200298     A.U. after   11 cycles
 SCF Done:  E(RB3LYP) =  -1414.77205639     A.U. after   11 cycles
 SCF Done:  E(RB3LYP) =  -1414.77207461     A.U. after   10 cycles
 SCF Done:  E(RB3LYP) =  -1414.77208780     A.U. after   10 cycles
 SCF Done:  E(RB3LYP) =  -1414.77209049     A.U. after   10 cycles
 SCF Done:  E(RB3LYP) =  -1414.77209161     A.U. after    9 cycles
 SCF Done:  E(RB3LYP) =  -1414.77209228     A.U. after    8 cycles
 SCF Done:  E(RB3LYP) =  -1414.77221134     A.U. after   10 cycles
 SCF Done:  E(RB3LYP) =  -1414.77221329     A.U. after   10 cycles
 SCF Done:  E(RB3LYP) =  -1414.77221754     A.U. after    9 cycles
 SCF Done:  E(RB3LYP) =  -1414.77222171     A.U. after   10 cycles
 SCF Done:  E(RB3LYP) =  -1414.77222329     A.U. after    9 cycles
 SCF Done:  E(RB3LYP) =  -1414.77222452     A.U. after    9 cycles
 SCF Done:  E(RB3LYP) =  -1414.77222489     A.U. after    9 cycles
 SCF Done:  E(RB3LYP) =  -1414.77222491     A.U. after    7 cycles
 SCF Done:  E(RB3LYP) =  -1414.77222495     A.U. after    6 cycles
 SCF Done:  E(RB3LYP) =  -1414.77222496     A.U. after    6 cycles
 Optimization completed.
    -- Stationary point found.

                         Standard orientation:
 ---------------------------------------------------------------------
 Center     Atomic      Atomic             Coordinates (Angstroms)
 Number     Number       Type             X           Y           Z
 ---------------------------------------------------------------------
      1          6           0      -10.735600    0.770660    0.801631
      2          6           0       -9.479245   -0.012948    0.446861
      3          8           0       -9.535915   -1.165471    0.046249
      4          7           0       -8.302199    0.692231    0.607471
      5          6           0       -6.980179    0.279057    0.358988
      6          6           0       -5.953740    1.204489    0.615798
      7          6           0       -4.626682    0.871039    0.394629
      8          6           0       -4.271051   -0.400889   -0.084936
      9          6           0       -2.843789   -0.735804   -0.306644
     10          6           0       -2.395966   -2.048614   -0.552168
     11          6           0       -1.032859   -2.218196   -0.742531
     12          7           0       -0.143839   -1.219872   -0.701541
     13          6           0       -0.665029   -0.006145   -0.452243
     14          7           0        0.148999    1.097041   -0.379587
     15          6           0        1.535544    1.275195   -0.519963
     16          6           0        2.015171    2.590105   -0.357014
     17          6           0        3.375993    2.838624   -0.477497
     18          6           0        4.283634    1.816985   -0.757151
     19          6           0        3.807866    0.506169   -0.932699
     20          7           0        4.647779   -0.553289   -1.263048
     21          6           0        6.090310   -0.489832   -1.260143
     22          6           0        6.774118   -0.501286    0.104998
     23          6           0        6.089932   -0.619325    1.317559
     24          6           0        6.777014   -0.643219    2.534426
     25          6           0        8.168835   -0.550397    2.556465
     26          6           0        8.877998   -0.432223    1.358852
     27          6           0        8.165468   -0.410303    0.169022
     28          9           0        8.847089   -0.298825   -1.000377
     29          6           0        2.429782    0.241769   -0.806782
     30          7           0       -1.969489    0.276806   -0.254726
     31          6           0       -5.306200   -1.313224   -0.341846
     32          6           0       -6.643675   -0.993289   -0.129245
     33          1           0      -10.544350    1.753121    1.244653
     34          1           0      -11.334131    0.904555   -0.105436
     35          1           0      -11.330950    0.175382    1.499679
     36          1           0       -8.392837    1.639464    0.948329
     37          1           0       -6.203083    2.194507    0.993660
     38          1           0       -3.840570    1.590833    0.591358
     39          1           0       -3.065618   -2.898544   -0.575583
     40          1           0       -0.622270   -3.208436   -0.935912
     41          1           0       -0.380678    1.937365   -0.189356
     42          1           0        1.323347    3.398524   -0.133167
     43          1           0        3.745361    3.852027   -0.342567
     44          1           0        5.342486    2.039455   -0.822252
     45          1           0        4.244138   -1.472275   -1.150130
     46          1           0        6.408913    0.398543   -1.818358
     47          1           0        6.458437   -1.340042   -1.847343
     48          1           0        5.006501   -0.683764    1.303427
     49          1           0        6.222099   -0.732042    3.463950
     50          1           0        8.706676   -0.568387    3.500109
     51          1           0        9.960447   -0.358302    1.333722
     52          1           0        2.051531   -0.762947   -0.942043
     53          1           0       -5.079696   -2.298850   -0.735849
     54          1           0       -7.426895   -1.707810   -0.337675
 ---------------------------------------------------------------------

 The electronic state is 1-A.
 Alpha  occ. eigenvalues --  -24.70263 -19.12559 -14.38794 -14.36543 -14.34194
 Alpha  occ. eigenvalues --  -14.32695 -14.32645 -10.30455 -10.28940 -10.26613
 Alpha  occ. eigenvalues --  -10.24637 -10.24506 -10.23397 -10.22732 -10.22625
 Alpha  occ. eigenvalues --  -10.22057 -10.20378 -10.19991 -10.19976 -10.19896
 Alpha  occ. eigenvalues --  -10.19862 -10.19552 -10.19504 -10.19351 -10.19205
 Alpha  occ. eigenvalues --  -10.19027 -10.18951 -10.18914 -10.17993 -10.17082
 Alpha  occ. eigenvalues --  -10.16761 -10.16497  -1.21181  -1.04596  -1.00189
 Alpha  occ. eigenvalues --   -0.95124  -0.93327  -0.92700  -0.89038  -0.85804
 Alpha  occ. eigenvalues --   -0.85425  -0.82825  -0.78958  -0.77130  -0.76466
 Alpha  occ. eigenvalues --   -0.75399  -0.74404  -0.73300  -0.73061  -0.72458
 Alpha  occ. eigenvalues --   -0.67801  -0.66590  -0.65486  -0.63206  -0.62107
 Alpha  occ. eigenvalues --   -0.61407  -0.60253  -0.59570  -0.58023  -0.57231
 Alpha  occ. eigenvalues --   -0.54717  -0.54387  -0.53617  -0.53290  -0.50968
 Alpha  occ. eigenvalues --   -0.49770  -0.49145  -0.48607  -0.48402  -0.47541
 Alpha  occ. eigenvalues --   -0.46828  -0.46713  -0.46107  -0.45645  -0.44718
 Alpha  occ. eigenvalues --   -0.44445  -0.44081  -0.43838  -0.43663  -0.43153
 Alpha  occ. eigenvalues --   -0.42598  -0.41893  -0.41426  -0.40977  -0.40947
 Alpha  occ. eigenvalues --   -0.40546  -0.40324  -0.39860  -0.39196  -0.38317
 Alpha  occ. eigenvalues --   -0.37290  -0.36885  -0.36368  -0.35818  -0.35209
 Alpha  occ. eigenvalues --   -0.35061  -0.34487  -0.34319  -0.33768  -0.32533
 Alpha  occ. eigenvalues --   -0.30220  -0.29882  -0.28767  -0.26020  -0.25983
 Alpha  occ. eigenvalues --   -0.25705  -0.25076  -0.24675  -0.23810  -0.22083
 Alpha  occ. eigenvalues --   -0.20279  -0.18453
 Alpha virt. eigenvalues --   -0.05397  -0.01849  -0.00327  -0.00253   0.00245
 Alpha virt. eigenvalues --    0.00504   0.02404   0.03742   0.05685   0.05909
 Alpha virt. eigenvalues --    0.08631   0.08956   0.09278   0.09888   0.10882

 Mulliken charges:
               1
     1  C   -0.542043
     2  C    0.604023
     3  O   -0.486396
     4  N   -0.713136
     5  C    0.368802
     6  C   -0.201198
     7  C   -0.161647
     8  C    0.097845
     9  C    0.297061
    10  C   -0.204983
    11  C    0.065970
    12  N   -0.482211
    13  C    0.701782
    14  N   -0.769920
    15  C    0.369003
    16  C   -0.211425
    17  C   -0.139358
    18  C   -0.188691
    19  C    0.367314
    20  N   -0.664221
    21  C   -0.206453
    22  C    0.070584
    23  C   -0.177221
    24  C   -0.130604
    25  C   -0.132518
    26  C   -0.195243
    27  C    0.329354
    28  F   -0.301460
    29  C   -0.251562
    30  N   -0.583405
    31  C   -0.197038
    32  C   -0.172559
    33  H    0.145879
    34  H    0.192852
    35  H    0.193637
    36  H    0.331406
    37  H    0.124241
    38  H    0.154726
    39  H    0.141859
    40  H    0.143794
    41  H    0.338004
    42  H    0.111150
    43  H    0.124102
    44  H    0.123224
    45  H    0.320270
    46  H    0.176719
    47  H    0.168580
    48  H    0.145416
    49  H    0.133002
    50  H    0.135603
    51  H    0.143913
    52  H    0.164178
    53  H    0.138462
    54  H    0.190534
 Sum of Mulliken charges =  -0.00000

 Dipole moment (field-independent basis, Debye):
    X=             -2.3256    Y=              1.7032    Z=              2.3537  Tot=              3.7215
 Quadrupole moment (field-independent basis, Debye-Ang):
   XX=           -160.9782   YY=           -169.3472   ZZ=           -182.7632
   XY=            -31.4406   XZ=             -3.2162   YZ=              5.7369

 Normal termination of Gaussian 16 at Fri Nov  4 22:37:03 2022.
