 Gaussian 16, Revision B.01,
 Gaussian 16:  ES64L-G16RevB.01 20-Dec-2017

 -----------------------------
 #p b3lyp/6-31g(d) opt SCF=XQC
 -----------------------------

 ------------------------------
 Gaussian input prepared by ASE
 ------------------------------
 Symbolic Z-matrix:
 Charge =  0 Multiplicity = 1

 SCF Done:  E(RB3LYP) =  -839.744496487     A.U. after   15 cycles
 SCF Done:  E(RB3LYP) =  -839.748653375     A.U. after   13 cycles
 SCF Done:  E(RB3LYP) =  -839.748850252     A.U. after   12 cycles
 SCF Done:  E(RB3LYP) =  -839.748887869     A.U. after   12 cycles
 SCF Done:  E(RB3LYP) =  -839.748908367     A.U. after   11 cycles
 SCF Done:  E(RB3LYP) =  -839.748921175     A.U. after   10 cycles
 SCF Done:  E(RB3LYP) =  -839.748932267     A.U. after   11 cycles
 SCF Done:  E(RB3LYP) =  -839.748943321     A.U. after   10 cycles
 SCF Done:  E(RB3LYP) =  -839.748981553     A.U. after   12 cycles
 SCF Done:  E(RB3LYP) =  -839.748990141     A.U. after   12 cycles
 SCF Done:  E(RB3LYP) =  -839.749121320     A.U. after   13 cycles
 SCF Done:  E(RB3LYP) =  -839.749053247     A.U. after   13 cycles
 SCF Done:  E(RB3LYP) =  -839.749130267     A.U. after   13 cycles
 SCF Done:  E(RB3LYP) =  -839.749093569     A.U. after   13 cycles
 SCF Done:  E(RB3LYP) =  -839.749134242     A.U. after   13 cycles
 SCF Done:  E(RB3LYP) =  -839.749134683     A.U. after    8 cycles
 SCF Done:  E(RB3LYP) =  -839.749130610     A.U. after   11 cycles
 SCF Done:  E(RB3LYP) =  -839.749134983     A.U. after   11 cycles
 SCF Done:  E(RB3LYP) =  -839.749134942     A.U. after    8 cycles
 SCF Done:  E(RB3LYP) =  -839.749134996     A.U. after    8 cycles
 Optimization completed.
    -- Stationary point found.

                         Standard orientation:
 ---------------------------------------------------------------------
 Center     Atomic      Atomic             Coordinates (Angstroms)
 Number     Number       Type             X           Y           Z
 ---------------------------------------------------------------------
      1          7           0       -5.998734   -2.231317   -0.992838
      2          6           0       -5.111535   -1.553264   -0.666735
      3          6           0       -4.019873   -0.715455   -0.263286
      4          6           0       -3.961681   -0.216666    1.048521
      5          6           0       -2.897098    0.591485    1.432785
      6          6           0       -1.881937    0.923334    0.526197
      7          6           0       -0.762424    1.855049    0.971185
      8          7           0        0.479561    1.715038    0.235325
      9          6           0        0.953492    2.597515   -0.730920
     10          6           0        2.145302    2.155894   -1.231482
     11          6           0        2.454174    0.926826   -0.551930
     12          6           0        3.514945    0.019654   -0.612563
     13          6           0        3.496233   -1.104443    0.218160
     14          6           0        4.607910   -2.074098    0.167993
     15          8           0        5.582716   -1.984893   -0.556658
     16          6           0        2.420191   -1.329150    1.109284
     17          6           0        1.352372   -0.448707    1.191936
     18          6           0        1.383176    0.678732    0.359569
     19          6           0       -1.944608    0.421124   -0.778522
     20          6           0       -3.001574   -0.392862   -1.174847
     21          1           0       -4.744227   -0.471317    1.755877
     22          1           0       -2.855238    0.968160    2.452212
     23          1           0       -1.085203    2.897283    0.861231
     24          1           0       -0.562576    1.706079    2.039339
     25          1           0        0.382345    3.484818   -0.969566
     26          1           0        2.741782    2.647875   -1.986968
     27          1           0        4.355235    0.160281   -1.286059
     28          1           0        4.500664   -2.935901    0.865393
     29          1           0        2.435304   -2.216774    1.737628
     30          1           0        0.523553   -0.635034    1.867997
     31          1           0       -1.157519    0.660789   -1.486705
     32          1           0       -3.044031   -0.782963   -2.186581
 ---------------------------------------------------------------------

 The electronic state is 1-A.
 Alpha  occ. eigenvalues --  -19.13475 -14.40435 -14.34203 -10.26635 -10.26578
 Alpha  occ. eigenvalues --  -10.24998 -10.23812 -10.23729 -10.23705 -10.23488
 Alpha  occ. eigenvalues --  -10.23087 -10.22964 -10.22557 -10.22237 -10.20659
 Alpha  occ. eigenvalues --  -10.20451 -10.20255 -10.20176 -10.19608 -10.19344
 Alpha  occ. eigenvalues --   -1.02952  -1.00889  -0.91420  -0.89176  -0.86332
 Alpha  occ. eigenvalues --   -0.83087  -0.79461  -0.78168  -0.76808  -0.74189
 Alpha  occ. eigenvalues --   -0.71746  -0.66395  -0.64607  -0.63997  -0.61394
 Alpha  occ. eigenvalues --   -0.58926  -0.57562  -0.56801  -0.54221  -0.51402
 Alpha  occ. eigenvalues --   -0.51184  -0.48547  -0.47451  -0.47326  -0.46972
 Alpha  occ. eigenvalues --   -0.45623  -0.45328  -0.43999  -0.43654  -0.42469
 Alpha  occ. eigenvalues --   -0.41252  -0.41004  -0.40601  -0.39851  -0.38779
 Alpha  occ. eigenvalues --   -0.38548  -0.38108  -0.36340  -0.35298  -0.34876
 Alpha  occ. eigenvalues --   -0.33673  -0.33477  -0.29350  -0.28588  -0.27121
 Alpha  occ. eigenvalues --   -0.24665  -0.24010  -0.22145
 Alpha virt. eigenvalues --   -0.06206  -0.05163  -0.03585  -0.02183   0.03001
 Alpha virt. eigenvalues --    0.04488   0.05739   0.06469   0.07276   0.08125
 Alpha virt. eigenvalues --    0.09926   0.10670   0.11932   0.12823   0.13527

 Mulliken charges:
               1
     1  N   -0.472683
     2  C    0.239442
     3  C    0.129667
     4  C   -0.134003
     5  C   -0.188414
     6  C    0.163217
     7  C   -0.235683
     8  N   -0.502812
     9  C    0.026960
    10  C   -0.226007
    11  C    0.114652
    12  C   -0.248485
    13  C    0.096334
    14  C    0.189084
    15  O   -0.417254
    16  C   -0.208226
    17  C   -0.158845
    18  C    0.312073
    19  C   -0.176790
    20  C   -0.135904
    21  H    0.164215
    22  H    0.141942
    23  H    0.184569
    24  H    0.177509
    25  H    0.158121
    26  H    0.144726
    27  H    0.162582
    28  H    0.095882
    29  H    0.136603
    30  H    0.136672
    31  H    0.164414
    32  H    0.166442
 Sum of Mulliken charges =  -0.00000

 Dipole moment (field-independent basis, Debye):
    X=             -1.4777    Y=              4.8947    Z=              2.7979  Tot=              5.8283
 Quadrupole moment (field-independent basis, Debye-Ang):
   XX=           -167.6413   YY=           -113.3473   ZZ=           -106.1733
   XY=             -8.4185   XZ=             -6.1567   YZ=             -6.5755

 Normal termination of Gaussian 16 at Fri Nov  4 21:56:34 2022.
