 Gaussian 16, Revision B.01,
 Gaussian 16:  ES64L-G16RevB.01 20-Dec-2017

 -------------------------------------------------------------------
 #p b3lyp/6-31g(d) 6D 10F nosymm GFInput td=(50-50,nstate=2) SCF=XQC
 -------------------------------------------------------------------

 ------------------------------
 Gaussian input prepared by ASE
 ------------------------------
 Symbolic Z-matrix:
 Charge =  0 Multiplicity = 1

                          Input orientation:
 ---------------------------------------------------------------------
 Center     Atomic      Atomic             Coordinates (Angstroms)
 Number     Number       Type             X           Y           Z
 ---------------------------------------------------------------------
      1          7           0        5.987035    0.708790   -2.589237
      2          6           0        5.100875    0.424432   -1.891324
      3          6           0        4.010516    0.072837   -1.028816
      4          6           0        4.067579    0.380528    0.340521
      5          6           0        3.003802    0.040020    1.169097
      6          6           0        1.875186   -0.614428    0.658702
      7          6           0        0.755938   -1.018191    1.609319
      8          7           0       -0.549017   -1.161860    0.992818
      9          6           0       -1.182042   -2.367709    0.706088
     10          6           0       -2.392100   -2.138297    0.115217
     11          6           0       -2.545632   -0.711873    0.017531
     12          6           0       -3.547521    0.129155   -0.473146
     13          6           0       -3.365909    1.513561   -0.406223
     14          6           0       -4.413199    2.417980   -0.919822
     15          8           0       -5.466303    2.059662   -1.415711
     16          6           0       -2.185358    2.063670    0.147079
     17          6           0       -1.172349    1.256046    0.640845
     18          6           0       -1.366347   -0.130658    0.575110
     19          6           0        1.823569   -0.915921   -0.706901
     20          6           0        2.878816   -0.576278   -1.548283
     21          1           0        4.938457    0.888689    0.741671
     22          1           0        3.052167    0.287836    2.226979
     23          1           0        0.998416   -1.980439    2.076020
     24          1           0        0.686026   -0.289286    2.425955
     25          1           0       -0.697840   -3.299720    0.965647
     26          1           0       -3.098693   -2.890975   -0.205400
     27          1           0       -4.464742   -0.259278   -0.905910
     28          1           0       -4.175087    3.501781   -0.823649
     29          1           0       -2.074670    3.145181    0.178715
     30          1           0       -0.263351    1.685137    1.051114
     31          1           0        0.949035   -1.411571   -1.116767
     32          1           0        2.832742   -0.808817   -2.607239
 ---------------------------------------------------------------------

 SCF Done:  E(RB3LYP) =  -839.749136404     A.U. after   15 cycles

 Excitation energies and oscillator strengths:

 Excited state symmetry could not be determined.
 Excited State   1:      Triplet-?Sym    2.9894 eV  414.75 nm  f=0.0000  <S**2>=2.000
      63 -> 70        -0.10135
      67 -> 70        -0.20940
      67 -> 72        -0.12130
      68 -> 70         0.55715
      68 -> 72        -0.30413
 This state for optimization and/or second-order correction.
 Total Energy, E(TD-HF/TD-DFT) =  -839.639279184
 Copying the excited state density for this state as the 1-particle RhoCI density.

 Excited state symmetry could not be determined.
 Excited State   2:      Triplet-?Sym    3.2380 eV  382.91 nm  f=0.0000  <S**2>=2.000
      66 -> 70         0.67032
      66 -> 72         0.14282
      66 -> 76         0.10310

 Excited state symmetry could not be determined.
 Excited State   3:      Singlet-?Sym    3.7777 eV  328.20 nm  f=0.0001  <S**2>=0.000
      66 -> 70         0.68429
      66 -> 72         0.11212

 Excited state symmetry could not be determined.
 Excited State   4:      Singlet-?Sym    3.7879 eV  327.31 nm  f=0.0045  <S**2>=0.000
      68 -> 69         0.70545

 Alpha  occ. eigenvalues --  -19.13475 -14.40435 -14.34203 -10.26635 -10.26578
 Alpha  occ. eigenvalues --  -10.24998 -10.23812 -10.23729 -10.23705 -10.23488
 Alpha  occ. eigenvalues --  -10.23087 -10.22964 -10.22557 -10.22237 -10.20659
 Alpha  occ. eigenvalues --  -10.20451 -10.20255 -10.20176 -10.19608 -10.19344
 Alpha  occ. eigenvalues --   -1.02952  -1.00889  -0.91420  -0.89176  -0.86331
 Alpha  occ. eigenvalues --   -0.83087  -0.79461  -0.78168  -0.76808  -0.74189
 Alpha  occ. eigenvalues --   -0.71746  -0.66395  -0.64607  -0.63997  -0.61394
 Alpha  occ. eigenvalues --   -0.58926  -0.57562  -0.56801  -0.54221  -0.51402
 Alpha  occ. eigenvalues --   -0.51184  -0.48547  -0.47451  -0.47326  -0.46972
 Alpha  occ. eigenvalues --   -0.45623  -0.45328  -0.43999  -0.43654  -0.42469
 Alpha  occ. eigenvalues --   -0.41252  -0.41004  -0.40601  -0.39851  -0.38779
 Alpha  occ. eigenvalues --   -0.38547  -0.38108  -0.36340  -0.35298  -0.34876
 Alpha  occ. eigenvalues --   -0.33673  -0.33477  -0.29350  -0.28588  -0.27121
 Alpha  occ. eigenvalues --   -0.24665  -0.24010  -0.22145
 Alpha virt. eigenvalues --   -0.06206  -0.05163  -0.03585  -0.02183   0.03001
 Alpha virt. eigenvalues --    0.04488   0.05739   0.06469   0.07276   0.08125
 Alpha virt. eigenvalues --    0.09926   0.10670   0.11932   0.12823   0.13527

 Mulliken charges:
               1
     1  N   -0.472685
     2  C    0.239444
     3  C    0.129668
     4  C   -0.134003
     5  C   -0.188413
     6  C    0.163206
     7  C   -0.235667
     8  N   -0.502821
     9  C    0.026973
    10  C   -0.226023
    11  C    0.114679
    12  C   -0.248496
    13  C    0.096341
    14  C    0.189081
    15  O   -0.417255
    16  C   -0.208221
    17  C   -0.158837
    18  C    0.312049
    19  C   -0.176784
    20  C   -0.135905
    21  H    0.164216
    22  H    0.141941
    23  H    0.184568
    24  H    0.177507
    25  H    0.158121
    26  H    0.144727
    27  H    0.162581
    28  H    0.095883
    29  H    0.136602
    30  H    0.136668
    31  H    0.164415
    32  H    0.166441
 Sum of Mulliken charges =  -0.00000

 Dipole moment (field-independent basis, Debye):
    X=              1.4699    Y=             -2.7075    Z=              4.9476  Tot=              5.8284
 Quadrupole moment (field-independent basis, Debye-Ang):
   XX=           -166.2378   YY=           -105.5654   ZZ=           -117.5460
   XY=              3.8682   XZ=             13.1991   YZ=              5.4232

 Normal termination of Gaussian 16 at Sat Nov  5 09:36:42 2022.
