 Gaussian 16, Revision B.01,
 Gaussian 16:  ES64L-G16RevB.01 20-Dec-2017

 -------------------------------------------------------------------
 #p b3lyp/6-31g(d) 6D 10F nosymm GFInput td=(50-50,nstate=2) SCF=XQC
 -------------------------------------------------------------------

 ------------------------------
 Gaussian input prepared by ASE
 ------------------------------
 Symbolic Z-matrix:
 Charge =  0 Multiplicity = 1

                          Input orientation:
 ---------------------------------------------------------------------
 Center     Atomic      Atomic             Coordinates (Angstroms)
 Number     Number       Type             X           Y           Z
 ---------------------------------------------------------------------
      1          6           0        1.625256    0.936463    2.233118
      2          7           0        0.843683    1.759978    2.839446
      3          7           0       -0.162283    2.405854    2.094190
      4          6           0       -1.310125    1.747531    1.668792
      5          7           0       -1.268280    0.435362    1.461712
      6          6           0       -2.430786   -0.079478    1.000195
      7          7           0       -2.475505   -1.418802    0.750733
      8          6           0       -3.708719   -2.033076    0.246236
      9          6           0       -3.430019   -3.448679   -0.280780
     10          6           0       -2.149602   -3.465067   -1.126127
     11          6           0       -0.919760   -3.042658   -0.279760
     12          6           0       -1.339314   -2.299496    1.003322
     13          7           0       -3.552195    0.619683    0.756416
     14          6           0       -3.459764    1.939499    1.020197
     15          7           0       -4.569742    2.699312    0.798519
     16          6           0       -5.825479    2.083851    0.355786
     17          6           0       -7.016942    2.924461    0.822591
     18          6           0       -6.973932    4.361580    0.256480
     19          6           0       -5.518432    4.832888    0.032256
     20          6           0       -4.537894    4.152975    0.991944
     21          7           0       -2.363193    2.563623    1.491663
     22          6           0        1.825735    0.501503    0.856854
     23          6           0        2.581090   -0.632324    0.615020
     24          7           0        2.717008   -0.861065   -0.728327
     25          6           0        3.349719   -2.029042   -1.343485
     26          6           0        4.557679   -2.541637   -0.587366
     27          6           0        4.489218   -3.771584    0.035946
     28          6           0        5.597934   -4.314358    0.728041
     29          6           0        6.778253   -3.613936    0.787319
     30          6           0        6.901542   -2.343785    0.161095
     31          6           0        8.118221   -1.612482    0.208912
     32          6           0        8.230737   -0.384520   -0.401833
     33          6           0        7.123468    0.166596   -1.087727
     34          6           0        5.927939   -0.515422   -1.152177
     35          6           0        5.777337   -1.788724   -0.536811
     36          6           0        2.040845    0.145736   -1.410979
     37          6           0        1.909851    0.345061   -2.790154
     38          6           0        1.219674    1.474434   -3.215158
     39          6           0        0.675779    2.379200   -2.285248
     40          6           0        0.800324    2.172623   -0.916364
     41          6           0        1.476834    1.032056   -0.450307
     42          1           0        2.320500    0.464807    2.932471
     43          1           0       -0.419971    3.272300    2.554140
     44          1           0       -4.099509   -1.403054   -0.559067
     45          1           0       -4.479300   -2.050659    1.030869
     46          1           0       -3.338924   -4.159395    0.551113
     47          1           0       -4.293805   -3.774845   -0.871895
     48          1           0       -1.994312   -4.455559   -1.569383
     49          1           0       -2.278849   -2.767130   -1.963262
     50          1           0       -0.263957   -2.396128   -0.874161
     51          1           0       -0.328377   -3.921279    0.010054
     52          1           0       -1.614785   -3.023753    1.784132
     53          1           0       -0.526656   -1.688936    1.392460
     54          1           0       -5.871204    1.073791    0.765797
     55          1           0       -5.838581    1.979560   -0.740979
     56          1           0       -7.007202    2.953505    1.919493
     57          1           0       -7.946738    2.421312    0.532792
     58          1           0       -7.522206    4.411705   -0.692120
     59          1           0       -7.490957    5.038709    0.947139
     60          1           0       -5.440004    5.920013    0.148805
     61          1           0       -5.204651    4.605648   -0.994362
     62          1           0       -3.516096    4.493541    0.819780
     63          1           0       -4.784536    4.409295    2.034582
     64          1           0        3.043158   -1.299560    1.329457
     65          1           0        2.612308   -2.836519   -1.438713
     66          1           0        3.637123   -1.738380   -2.358958
     67          1           0        3.562984   -4.339839   -0.009455
     68          1           0        5.508026   -5.284965    1.207425
     69          1           0        7.637633   -4.021828    1.314099
     70          1           0        8.963278   -2.043867    0.740269
     71          1           0        9.166810    0.165216   -0.357345
     72          1           0        7.215060    1.139092   -1.563431
     73          1           0        5.086868   -0.064965   -1.668561
     74          1           0        2.327046   -0.353127   -3.510029
     75          1           0        1.101347    1.658712   -4.279496
     76          1           0        0.145269    3.256839   -2.644562
     77          1           0        0.377049    2.875611   -0.209579
 ---------------------------------------------------------------------

 SCF Done:  E(RB3LYP) =  -1717.22799333     A.U. after   15 cycles

 Excitation energies and oscillator strengths:

 Excited state symmetry could not be determined.
 Excited State   1:      Triplet-?Sym    2.7136 eV  456.90 nm  f=0.0000  <S**2>=2.000
     134 ->150        -0.13743
     137 ->147        -0.12958
     137 ->148         0.11340
     140 ->146         0.67492
     140 <-146         0.10633
 This state for optimization and/or second-order correction.
 Total Energy, E(TD-HF/TD-DFT) =  -1717.12827122
 Copying the excited state density for this state as the 1-particle RhoCI density.

 Excited state symmetry could not be determined.
 Excited State   2:      Triplet-?Sym    2.8139 eV  440.61 nm  f=0.0000  <S**2>=2.000
     145 ->147         0.43670
     145 ->148         0.46700
     145 ->149         0.11603

 Excited state symmetry could not be determined.
 Excited State   3:      Singlet-?Sym    3.2283 eV  384.06 nm  f=0.0003  <S**2>=0.000
     145 ->146         0.69918

 Excited state symmetry could not be determined.
 Excited State   4:      Singlet-?Sym    3.7960 eV  326.62 nm  f=0.0000  <S**2>=0.000
     143 ->146         0.15719
     144 ->146         0.68516

 Alpha  occ. eigenvalues --  -14.38601 -14.35598 -14.34220 -14.34121 -14.33631
 Alpha  occ. eigenvalues --  -14.29008 -14.28964 -14.28906 -10.26678 -10.26637
 Alpha  occ. eigenvalues --  -10.26558 -10.24429 -10.21943 -10.21511 -10.21475
 Alpha  occ. eigenvalues --  -10.21167 -10.20842 -10.20664 -10.20534 -10.20405
 Alpha  occ. eigenvalues --  -10.20355 -10.20341 -10.20172 -10.20127 -10.20044
 Alpha  occ. eigenvalues --  -10.19806 -10.19759 -10.19719 -10.19605 -10.18577
 Alpha  occ. eigenvalues --  -10.18265 -10.18245 -10.18205 -10.18056 -10.18038
 Alpha  occ. eigenvalues --  -10.18025 -10.18001 -10.17982 -10.17879 -10.17281
 Alpha  occ. eigenvalues --  -10.17220  -1.00838  -0.98991  -0.97295  -0.95088
 Alpha  occ. eigenvalues --   -0.91492  -0.88308  -0.86243  -0.85004  -0.84210
 Alpha  occ. eigenvalues --   -0.82838  -0.81512  -0.80060  -0.78677  -0.78562
 Alpha  occ. eigenvalues --   -0.77643  -0.74976  -0.74822  -0.74817  -0.74452
 Alpha  occ. eigenvalues --   -0.72567  -0.71937  -0.69360  -0.68196  -0.66820
 Alpha  occ. eigenvalues --   -0.64076  -0.63334  -0.63152  -0.62432  -0.62098
 Alpha  occ. eigenvalues --   -0.61412  -0.60240  -0.59619  -0.58918  -0.56694
 Alpha  occ. eigenvalues --   -0.55800  -0.54955  -0.53070  -0.52586  -0.52348
 Alpha  occ. eigenvalues --   -0.52070  -0.51507  -0.50692  -0.50304  -0.49236
 Alpha  occ. eigenvalues --   -0.48936  -0.48136  -0.47969  -0.47302  -0.47050
 Alpha  occ. eigenvalues --   -0.46618  -0.45442  -0.44857  -0.44168  -0.43604
 Alpha  occ. eigenvalues --   -0.43502  -0.43261  -0.42898  -0.42388  -0.42232
 Alpha  occ. eigenvalues --   -0.41520  -0.41201  -0.41179  -0.40937  -0.40586
 Alpha  occ. eigenvalues --   -0.40293  -0.40117  -0.39919  -0.39776  -0.39609
 Alpha  occ. eigenvalues --   -0.38751  -0.38256  -0.37822  -0.37555  -0.37274
 Alpha  occ. eigenvalues --   -0.36610  -0.35983  -0.35731  -0.34976  -0.34832
 Alpha  occ. eigenvalues --   -0.34536  -0.34205  -0.33853  -0.33428  -0.33091
 Alpha  occ. eigenvalues --   -0.32890  -0.32163  -0.32040  -0.31599  -0.31544
 Alpha  occ. eigenvalues --   -0.31326  -0.30612  -0.30222  -0.28867  -0.28170
 Alpha  occ. eigenvalues --   -0.25862  -0.25179  -0.23617  -0.23264  -0.22443
 Alpha  occ. eigenvalues --   -0.21835  -0.20915  -0.20487  -0.20071  -0.18532
 Alpha virt. eigenvalues --   -0.04956  -0.01890  -0.01577   0.00714   0.02145
 Alpha virt. eigenvalues --    0.02621   0.03123   0.03185   0.07357   0.08365
 Alpha virt. eigenvalues --    0.08735   0.09039   0.09683   0.09997   0.10494

 Mulliken charges:
               1
     1  C    0.006699
     2  N   -0.280370
     3  N   -0.522154
     4  C    0.671699
     5  N   -0.565500
     6  C    0.712645
     7  N   -0.498578
     8  C   -0.093750
     9  C   -0.299094
    10  C   -0.260667
    11  C   -0.273150
    12  C   -0.149917
    13  N   -0.604074
    14  C    0.708131
    15  N   -0.496732
    16  C   -0.114547
    17  C   -0.287988
    18  C   -0.261388
    19  C   -0.286436
    20  C   -0.117381
    21  N   -0.590062
    22  C    0.093877
    23  C    0.001533
    24  N   -0.520045
    25  C   -0.235542
    26  C    0.089903
    27  C   -0.203427
    28  C   -0.132340
    29  C   -0.185898
    30  C    0.138153
    31  C   -0.194600
    32  C   -0.129793
    33  C   -0.135467
    34  C   -0.191728
    35  C    0.086743
    36  C    0.294666
    37  C   -0.174232
    38  C   -0.148960
    39  C   -0.141348
    40  C   -0.202363
    41  C    0.064988
    42  H    0.137826
    43  H    0.339815
    44  H    0.164112
    45  H    0.141310
    46  H    0.138802
    47  H    0.140682
    48  H    0.132946
    49  H    0.143785
    50  H    0.152922
    51  H    0.123313
    52  H    0.134842
    53  H    0.202130
    54  H    0.174837
    55  H    0.136576
    56  H    0.146689
    57  H    0.139156
    58  H    0.136215
    59  H    0.136746
    60  H    0.139952
    61  H    0.146012
    62  H    0.177522
    63  H    0.137782
    64  H    0.168857
    65  H    0.169981
    66  H    0.172199
    67  H    0.132216
    68  H    0.136055
    69  H    0.135490
    70  H    0.133702
    71  H    0.135135
    72  H    0.138234
    73  H    0.149085
    74  H    0.125934
    75  H    0.122105
    76  H    0.122213
    77  H    0.163315
 Sum of Mulliken charges =  -0.00000

 Dipole moment (field-independent basis, Debye):
    X=              1.1128    Y=             -3.1792    Z=             -2.4053  Tot=              4.1389
 Quadrupole moment (field-independent basis, Debye-Ang):
   XX=           -202.0216   YY=           -218.0420   ZZ=           -241.2799
   XY=            -13.4434   XZ=              2.2811   YZ=             -5.9071

 Normal termination of Gaussian 16 at Sat Nov  5 09:59:05 2022.
