 Gaussian 16, Revision B.01,
 Gaussian 16:  ES64L-G16RevB.01 20-Dec-2017

 -----------------------------
 #p b3lyp/6-31g(d) opt SCF=XQC
 -----------------------------

 ------------------------------
 Gaussian input prepared by ASE
 ------------------------------
 Symbolic Z-matrix:
 Charge =  0 Multiplicity = 1

 SCF Done:  E(RB3LYP) =  -1717.20435629     A.U. after   16 cycles
 SCF Done:  E(RB3LYP) =  -1717.20744591     A.U. after   15 cycles
 SCF Done:  E(RB3LYP) =  -1717.21749051     A.U. after   15 cycles
 SCF Done:  E(RB3LYP) =  -1717.22260586     A.U. after   15 cycles
 SCF Done:  E(RB3LYP) =  -1717.22420698     A.U. after   13 cycles
 SCF Done:  E(RB3LYP) =  -1717.22568801     A.U. after   13 cycles
 SCF Done:  E(RB3LYP) =  -1717.22670499     A.U. after   12 cycles
 SCF Done:  E(RB3LYP) =  -1717.22720261     A.U. after   12 cycles
 SCF Done:  E(RB3LYP) =  -1717.22740778     A.U. after   11 cycles
 SCF Done:  E(RB3LYP) =  -1717.22748899     A.U. after   11 cycles
 SCF Done:  E(RB3LYP) =  -1717.22799670     A.U. after   10 cycles
 SCF Done:  E(RB3LYP) =  -1717.22799735     A.U. after    8 cycles
 SCF Done:  E(RB3LYP) =  -1717.22799760     A.U. after    7 cycles
 SCF Done:  E(RB3LYP) =  -1717.22799764     A.U. after    6 cycles
 SCF Done:  E(RB3LYP) =  -1717.22799766     A.U. after    6 cycles
 SCF Done:  E(RB3LYP) =  -1717.22799768     A.U. after    6 cycles
 SCF Done:  E(RB3LYP) =  -1717.22799769     A.U. after    6 cycles
 SCF Done:  E(RB3LYP) =  -1717.22799769     A.U. after    6 cycles
 SCF Done:  E(RB3LYP) =  -1717.22799770     A.U. after    6 cycles
 SCF Done:  E(RB3LYP) =  -1717.22799771     A.U. after    6 cycles
 Optimization completed.
    -- Stationary point found.

                         Standard orientation:
 ---------------------------------------------------------------------
 Center     Atomic      Atomic             Coordinates (Angstroms)
 Number     Number       Type             X           Y           Z
 ---------------------------------------------------------------------
      1          6           0       -0.713075   -1.242481    2.210427
      2          7           0        0.358218   -1.717362    2.742862
      3          7           0        1.466072   -1.974385    1.911521
      4          6           0        2.262340   -0.956846    1.399208
      5          7           0        1.734928    0.248062    1.208287
      6          6           0        2.593545    1.136232    0.657459
      7          7           0        2.133449    2.396675    0.417431
      8          6           0        3.018597    3.402110   -0.181135
      9          6           0        2.208191    4.611716   -0.670468
     10          6           0        0.944320    4.149314   -1.407466
     11          6           0        0.020656    3.331312   -0.466724
     12          6           0        0.780653    2.815639    0.770653
     13          7           0        3.868013    0.881521    0.315893
     14          6           0        4.277884   -0.377556    0.574294
     15          7           0        5.565307   -0.692497    0.255138
     16          6           0        6.475909    0.323437   -0.283716
     17          6           0        7.923237   -0.023118    0.075810
     18          6           0        8.354834   -1.391379   -0.497973
     19          6           0        7.153307   -2.358613   -0.606041
     20          6           0        6.074009   -2.056181    0.437217
     21          7           0        3.520664   -1.343799    1.128614
     22          6           0       -1.166017   -0.937652    0.859350
     23          6           0       -2.295376   -0.156142    0.690841
     24          7           0       -2.611496   -0.019841   -0.634628
     25          6           0       -3.668998    0.829716   -1.184954
     26          6           0       -4.915828    0.890063   -0.327395
     27          6           0       -5.244674    2.075372    0.299405
     28          6           0       -6.415222    2.198174    1.085274
     29          6           0       -7.255838    1.121975    1.235008
     30          6           0       -6.963735   -0.120598    0.609449
     31          6           0       -7.827963   -1.238910    0.750469
     32          6           0       -7.539780   -2.437924    0.139835
     33          6           0       -6.367082   -2.568898   -0.639812
     34          6           0       -5.506120   -1.504518   -0.796120
     35          6           0       -5.774834   -0.249424   -0.183598
     36          6           0       -1.675420   -0.730755   -1.379759
     37          6           0       -1.592314   -0.898747   -2.766802
     38          6           0       -0.578507   -1.713561   -3.257443
     39          6           0        0.326945   -2.342799   -2.383731
     40          6           0        0.246401   -2.165943   -1.007410
     41          6           0       -0.755440   -1.334909   -0.476877
     42          1           0       -1.473080   -1.037378    2.968874
     43          1           0        2.054064   -2.680567    2.340773
     44          1           0        3.544049    2.937664   -1.021579
     45          1           0        3.791424    3.711813    0.537596
     46          1           0        1.934453    5.259652    0.172567
     47          1           0        2.846593    5.213825   -1.327610
     48          1           0        0.408242    5.008365   -1.827366
     49          1           0        1.248510    3.526895   -2.258745
     50          1           0       -0.404037    2.480009   -1.011070
     51          1           0       -0.821937    3.944801   -0.121229
     52          1           0        0.838733    3.606790    1.532759
     53          1           0        0.275905    1.962288    1.219702
     54          1           0        6.187943    1.290922    0.130372
     55          1           0        6.362817    0.402339   -1.376842
     56          1           0        8.012402   -0.030601    1.169485
     57          1           0        8.583461    0.774181   -0.284857
     58          1           0        8.806654   -1.261216   -1.488869
     59          1           0        9.134288   -1.822915    0.141600
     60          1           0        7.480723   -3.398654   -0.493389
     61          1           0        6.697722   -2.280921   -1.601253
     62          1           0        5.232813   -2.744561    0.346560
     63          1           0        6.478919   -2.184781    1.453650
     64          1           0       -2.907748    0.315511    1.446934
     65          1           0       -3.281509    1.845966   -1.333111
     66          1           0       -3.912898    0.433894   -2.175969
     67          1           0       -4.591621    2.937288    0.183186
     68          1           0       -6.642372    3.146179    1.564501
     69          1           0       -8.159307    1.204997    1.834389
     70          1           0       -8.726200   -1.128729    1.353448
     71          1           0       -8.208714   -3.286114    0.256122
     72          1           0       -6.140523   -3.519194   -1.115251
     73          1           0       -4.603531   -1.633611   -1.384025
     74          1           0       -2.288874   -0.412321   -3.443509
     75          1           0       -0.487395   -1.865429   -4.329549
     76          1           0        1.107033   -2.978701   -2.793474
     77          1           0        0.949293   -2.654939   -0.344291
 ---------------------------------------------------------------------

 The electronic state is 1-A.
 Alpha  occ. eigenvalues --  -14.38601 -14.35598 -14.34220 -14.34121 -14.33631
 Alpha  occ. eigenvalues --  -14.29008 -14.28964 -14.28906 -10.26678 -10.26637
 Alpha  occ. eigenvalues --  -10.26558 -10.24429 -10.21943 -10.21511 -10.21475
 Alpha  occ. eigenvalues --  -10.21167 -10.20842 -10.20664 -10.20534 -10.20405
 Alpha  occ. eigenvalues --  -10.20355 -10.20341 -10.20172 -10.20127 -10.20044
 Alpha  occ. eigenvalues --  -10.19806 -10.19759 -10.19719 -10.19605 -10.18577
 Alpha  occ. eigenvalues --  -10.18265 -10.18245 -10.18205 -10.18056 -10.18038
 Alpha  occ. eigenvalues --  -10.18025 -10.18001 -10.17982 -10.17879 -10.17281
 Alpha  occ. eigenvalues --  -10.17220  -1.00838  -0.98991  -0.97295  -0.95088
 Alpha  occ. eigenvalues --   -0.91492  -0.88308  -0.86243  -0.85004  -0.84210
 Alpha  occ. eigenvalues --   -0.82838  -0.81512  -0.80060  -0.78677  -0.78562
 Alpha  occ. eigenvalues --   -0.77643  -0.74976  -0.74822  -0.74817  -0.74452
 Alpha  occ. eigenvalues --   -0.72567  -0.71937  -0.69360  -0.68196  -0.66820
 Alpha  occ. eigenvalues --   -0.64076  -0.63334  -0.63152  -0.62432  -0.62098
 Alpha  occ. eigenvalues --   -0.61412  -0.60240  -0.59619  -0.58918  -0.56694
 Alpha  occ. eigenvalues --   -0.55800  -0.54955  -0.53070  -0.52586  -0.52348
 Alpha  occ. eigenvalues --   -0.52070  -0.51507  -0.50692  -0.50303  -0.49236
 Alpha  occ. eigenvalues --   -0.48936  -0.48136  -0.47969  -0.47302  -0.47050
 Alpha  occ. eigenvalues --   -0.46618  -0.45442  -0.44857  -0.44168  -0.43604
 Alpha  occ. eigenvalues --   -0.43502  -0.43261  -0.42898  -0.42389  -0.42233
 Alpha  occ. eigenvalues --   -0.41520  -0.41201  -0.41179  -0.40937  -0.40586
 Alpha  occ. eigenvalues --   -0.40293  -0.40117  -0.39919  -0.39776  -0.39609
 Alpha  occ. eigenvalues --   -0.38751  -0.38256  -0.37822  -0.37555  -0.37274
 Alpha  occ. eigenvalues --   -0.36610  -0.35983  -0.35731  -0.34976  -0.34832
 Alpha  occ. eigenvalues --   -0.34536  -0.34205  -0.33853  -0.33428  -0.33091
 Alpha  occ. eigenvalues --   -0.32890  -0.32163  -0.32040  -0.31599  -0.31544
 Alpha  occ. eigenvalues --   -0.31326  -0.30612  -0.30222  -0.28867  -0.28170
 Alpha  occ. eigenvalues --   -0.25862  -0.25179  -0.23617  -0.23264  -0.22443
 Alpha  occ. eigenvalues --   -0.21835  -0.20915  -0.20487  -0.20071  -0.18532
 Alpha virt. eigenvalues --   -0.04956  -0.01890  -0.01577   0.00715   0.02145
 Alpha virt. eigenvalues --    0.02622   0.03123   0.03185   0.07357   0.08365
 Alpha virt. eigenvalues --    0.08735   0.09039   0.09683   0.09998   0.10495

 Mulliken charges:
               1
     1  C    0.006698
     2  N   -0.280377
     3  N   -0.522154
     4  C    0.671691
     5  N   -0.565513
     6  C    0.712677
     7  N   -0.498587
     8  C   -0.093750
     9  C   -0.299103
    10  C   -0.260658
    11  C   -0.273156
    12  C   -0.149930
    13  N   -0.604046
    14  C    0.708118
    15  N   -0.496745
    16  C   -0.114527
    17  C   -0.288014
    18  C   -0.261393
    19  C   -0.286439
    20  C   -0.117381
    21  N   -0.590056
    22  C    0.093858
    23  C    0.001561
    24  N   -0.520064
    25  C   -0.235534
    26  C    0.089921
    27  C   -0.203430
    28  C   -0.132335
    29  C   -0.185891
    30  C    0.138149
    31  C   -0.194601
    32  C   -0.129795
    33  C   -0.135454
    34  C   -0.191724
    35  C    0.086717
    36  C    0.294649
    37  C   -0.174229
    38  C   -0.148953
    39  C   -0.141356
    40  C   -0.202382
    41  C    0.065028
    42  H    0.137827
    43  H    0.339815
    44  H    0.164110
    45  H    0.141309
    46  H    0.138803
    47  H    0.140683
    48  H    0.132945
    49  H    0.143784
    50  H    0.152926
    51  H    0.123315
    52  H    0.134845
    53  H    0.202130
    54  H    0.174837
    55  H    0.136575
    56  H    0.146696
    57  H    0.139160
    58  H    0.136218
    59  H    0.136750
    60  H    0.139954
    61  H    0.146014
    62  H    0.177523
    63  H    0.137782
    64  H    0.168859
    65  H    0.169982
    66  H    0.172199
    67  H    0.132212
    68  H    0.136053
    69  H    0.135490
    70  H    0.133702
    71  H    0.135134
    72  H    0.138231
    73  H    0.149082
    74  H    0.125933
    75  H    0.122104
    76  H    0.122213
    77  H    0.163315
 Sum of Mulliken charges =  -0.00000

 Dipole moment (field-independent basis, Debye):
    X=             -2.3704    Y=              2.5159    Z=             -2.2764  Tot=              4.1389
 Quadrupole moment (field-independent basis, Debye-Ang):
   XX=           -197.3728   YY=           -223.9529   ZZ=           -239.8728
   XY=             -4.0160   XZ=             -8.1116   YZ=              3.9726

 1\1\GINC-NODE92\FOpt\RB3LYP\6-31G(d)\C33H36N8\WYKGROUP\05-Nov-2022\0\\
 #p b3lyp/6-31g(d) opt SCF=XQC\\Gaussian input prepared by ASE\\0,1\C,1
 .6252560321,0.9364632041,2.2331184967\N,0.8436826292,1.7599781219,2.83
 94460892\N,-0.1622833167,2.4058538642,2.0941899164\C,-1.3101251742,1.7
 475306151,1.6687923328\N,-1.2682798664,0.4353624336,1.4617119021\C,-2.
 4307858277,-0.0794783591,1.000195017\N,-2.4755054658,-1.4188019114,0.7
 507331352\C,-3.7087192666,-2.0330759093,0.246235656\C,-3.4300189486,-3
 .4486789973,-0.2807795564\C,-2.1496020183,-3.4650671089,-1.1261274977\

 Normal termination of Gaussian 16 at Sat Nov  5 01:08:16 2022.
