 Gaussian 16, Revision B.01,
 Gaussian 16:  ES64L-G16RevB.01 20-Dec-2017

 -------------------------------------------------------------------
 #p b3lyp/6-31g(d) 6D 10F nosymm GFInput td=(50-50,nstate=2) SCF=XQC
 -------------------------------------------------------------------

 ------------------------------
 Gaussian input prepared by ASE
 ------------------------------
 Symbolic Z-matrix:
 Charge =  0 Multiplicity = 1

                          Input orientation:
 ---------------------------------------------------------------------
 Center     Atomic      Atomic             Coordinates (Angstroms)
 Number     Number       Type             X           Y           Z
 ---------------------------------------------------------------------
      1          8           0        6.776352    0.239511   -2.508649
      2          6           0        6.174013    0.579577   -1.487123
      3          7           0        6.603738    1.690798   -0.792245
      4          8           0        7.846567    2.192348   -1.215995
      5          6           0        4.971866   -0.115739   -0.957158
      6          6           0        4.726477   -1.425799   -1.381844
      7          6           0        3.619321   -2.107756   -0.894256
      8          6           0        2.721898   -1.522596    0.013164
      9          6           0        2.962801   -0.197069    0.432534
     10          6           0        4.076267    0.486006   -0.065920
     11          6           0        2.075852    0.543350    1.427998
     12          7           0        0.649045    0.249436    1.319131
     13          6           0       -0.067288    0.969015    0.392239
     14          8           0        0.473562    1.807934   -0.325808
     15          6           0       -1.559820    0.733316    0.281292
     16          6           0       -2.333943    1.148140    1.309022
     17          6           0       -3.797887    1.276342    1.415328
     18          6           0       -4.640881    1.520088    0.314880
     19          6           0       -6.014389    1.667627    0.491294
     20          6           0       -6.580447    1.576426    1.765762
     21          6           0       -5.756190    1.351470    2.869399
     22          6           0       -4.380612    1.213900    2.694719
     23          6           0       -2.019593    0.118217   -0.995237
     24          6           0       -1.542646    0.565925   -2.239646
     25          6           0       -1.956156   -0.054617   -3.418934
     26          6           0       -2.838825   -1.135109   -3.379188
     27          6           0       -3.308076   -1.596393   -2.146983
     28          6           0       -2.901402   -0.977528   -0.966696
     29          6           0        0.152036   -0.903135    2.069498
     30          6           0        1.065193   -2.130267    1.911778
     31          6           0        1.525890   -2.350700    0.460741
     32          1           0        6.578771    1.665579    0.220845
     33          1           0        8.021912    1.611137   -1.994845
     34          1           0        5.408439   -1.888402   -2.087471
     35          1           0        3.437650   -3.127963   -1.224357
     36          1           0        4.219319    1.525578    0.218429
     37          1           0        2.205123    1.617189    1.280820
     38          1           0        2.381530    0.311540    2.456550
     39          1           0       -1.804836    1.467564    2.208041
     40          1           0       -4.213989    1.610963   -0.677437
     41          1           0       -6.646141    1.862792   -0.371244
     42          1           0       -7.652852    1.691869    1.897735
     43          1           0       -6.182552    1.291124    3.867279
     44          1           0       -3.741716    1.050931    3.560048
     45          1           0       -0.849408    1.399014   -2.266913
     46          1           0       -1.583388    0.309203   -4.372808
     47          1           0       -3.155966   -1.617362   -4.300013
     48          1           0       -3.988915   -2.442559   -2.103562
     49          1           0       -3.269333   -1.340120   -0.011126
     50          1           0        0.050493   -0.647374    3.134751
     51          1           0       -0.846155   -1.136704    1.697424
     52          1           0        0.506156   -3.007495    2.260052
     53          1           0        1.940809   -2.049531    2.567577
     54          1           0        1.782982   -3.407413    0.325414
     55          1           0        0.679345   -2.162280   -0.216493
 ---------------------------------------------------------------------

 SCF Done:  E(RB3LYP) =  -1340.35015735     A.U. after   15 cycles

 Excitation energies and oscillator strengths:

 Excited state symmetry could not be determined.
 Excited State   1:      Triplet-?Sym    2.7010 eV  459.03 nm  f=0.0000  <S**2>=2.000
      99 ->118        -0.11423
     109 ->110         0.66275
 This state for optimization and/or second-order correction.
 Total Energy, E(TD-HF/TD-DFT) =  -1340.25089655
 Copying the excited state density for this state as the 1-particle RhoCI density.

 Excited state symmetry could not be determined.
 Excited State   2:      Triplet-?Sym    3.3802 eV  366.80 nm  f=0.0000  <S**2>=2.000
     102 ->111        -0.20810
     102 ->112         0.21411
     103 ->111        -0.21538
     104 ->111        -0.14600
     106 ->111         0.17168
     106 ->112         0.11714
     108 ->111         0.49336

 Excited state symmetry could not be determined.
 Excited State   3:      Singlet-?Sym    4.1863 eV  296.16 nm  f=0.3830  <S**2>=0.000
     107 ->110        -0.11208
     109 ->110         0.68926

 Excited state symmetry could not be determined.
 Excited State   4:      Singlet-?Sym    4.3321 eV  286.20 nm  f=0.0012  <S**2>=0.000
     109 ->111         0.70521

 Alpha  occ. eigenvalues --  -19.17983 -19.13184 -19.11596 -14.40950 -14.37143
 Alpha  occ. eigenvalues --  -10.29736 -10.29036 -10.23461 -10.23267 -10.21223
 Alpha  occ. eigenvalues --  -10.21019 -10.20950 -10.20879 -10.20456 -10.20451
 Alpha  occ. eigenvalues --  -10.20420 -10.20418 -10.20377 -10.20300 -10.19906
 Alpha  occ. eigenvalues --  -10.19776 -10.19478 -10.19413 -10.19362 -10.19268
 Alpha  occ. eigenvalues --  -10.19242 -10.19187 -10.19132 -10.19096 -10.18948
 Alpha  occ. eigenvalues --  -10.18568  -1.09677  -1.03688  -1.02178  -0.94380
 Alpha  occ. eigenvalues --   -0.87591  -0.86448  -0.85439  -0.85207  -0.81072
 Alpha  occ. eigenvalues --   -0.80778  -0.78293  -0.76154  -0.75915  -0.74697
 Alpha  occ. eigenvalues --   -0.74354  -0.72793  -0.70235  -0.69845  -0.64979
 Alpha  occ. eigenvalues --   -0.63841  -0.61813  -0.61492  -0.60889  -0.60258
 Alpha  occ. eigenvalues --   -0.59934  -0.58518  -0.57093  -0.55399  -0.53407
 Alpha  occ. eigenvalues --   -0.52519  -0.51745  -0.51402  -0.49453  -0.49027
 Alpha  occ. eigenvalues --   -0.48667  -0.46984  -0.46897  -0.45877  -0.45637
 Alpha  occ. eigenvalues --   -0.45229  -0.44574  -0.44383  -0.43725  -0.43475
 Alpha  occ. eigenvalues --   -0.43126  -0.42638  -0.42307  -0.42083  -0.41509
 Alpha  occ. eigenvalues --   -0.41358  -0.41136  -0.39971  -0.39037  -0.38450
 Alpha  occ. eigenvalues --   -0.38074  -0.37263  -0.36954  -0.36698  -0.35958
 Alpha  occ. eigenvalues --   -0.35826  -0.35197  -0.34834  -0.34587  -0.34367
 Alpha  occ. eigenvalues --   -0.34265  -0.33937  -0.33767  -0.30131  -0.27841
 Alpha  occ. eigenvalues --   -0.26826  -0.26021  -0.25607  -0.25455  -0.24858
 Alpha  occ. eigenvalues --   -0.24583  -0.24108  -0.23200  -0.21829
 Alpha virt. eigenvalues --   -0.04887  -0.04523  -0.01346  -0.00830   0.00163
 Alpha virt. eigenvalues --    0.00505   0.02567   0.04132   0.05087   0.07357
 Alpha virt. eigenvalues --    0.08238   0.09345   0.09559   0.09643   0.09857

 Mulliken charges:
               1
     1  O   -0.535836
     2  C    0.523079
     3  N   -0.336729
     4  O   -0.518775
     5  C    0.086998
     6  C   -0.153411
     7  C   -0.199697
     8  C    0.139136
     9  C    0.139760
    10  C   -0.245632
    11  C   -0.253257
    12  N   -0.415700
    13  C    0.535169
    14  O   -0.508436
    15  C   -0.020098
    16  C   -0.213582
    17  C    0.158194
    18  C   -0.171746
    19  C   -0.134148
    20  C   -0.127292
    21  C   -0.131280
    22  C   -0.186252
    23  C    0.052643
    24  C   -0.165621
    25  C   -0.136656
    26  C   -0.124965
    27  C   -0.136024
    28  C   -0.164527
    29  C   -0.143317
    30  C   -0.290705
    31  C   -0.352510
    32  H    0.344183
    33  H    0.425588
    34  H    0.163241
    35  H    0.132211
    36  H    0.145945
    37  H    0.191744
    38  H    0.158923
    39  H    0.139816
    40  H    0.154391
    41  H    0.134505
    42  H    0.131853
    43  H    0.131201
    44  H    0.124911
    45  H    0.176941
    46  H    0.135971
    47  H    0.130901
    48  H    0.130685
    49  H    0.134923
    50  H    0.145342
    51  H    0.172734
    52  H    0.150500
    53  H    0.149508
    54  H    0.150944
    55  H    0.174255
 Sum of Mulliken charges =  -0.00000

 Dipole moment (field-independent basis, Debye):
    X=             -3.6533    Y=             -3.9594    Z=              4.5771  Tot=              7.0692
 Quadrupole moment (field-independent basis, Debye-Ang):
   XX=           -190.6720   YY=           -181.4797   ZZ=           -169.5717
   XY=             -7.5831   XZ=             17.5610   YZ=              4.3591

 Normal termination of Gaussian 16 at Sat Nov  5 09:47:38 2022.
