 Gaussian 16, Revision B.01,
 Gaussian 16:  ES64L-G16RevB.01 20-Dec-2017

 -----------------------------
 #p b3lyp/6-31g(d) opt SCF=XQC
 -----------------------------

 ------------------------------
 Gaussian input prepared by ASE
 ------------------------------
 Symbolic Z-matrix:
 Charge =  0 Multiplicity = 1

 SCF Done:  E(RB3LYP) =  -1340.33887817     A.U. after   15 cycles
 SCF Done:  E(RB3LYP) =  -1340.34627822     A.U. after   14 cycles
 SCF Done:  E(RB3LYP) =  -1340.34772980     A.U. after   12 cycles
 SCF Done:  E(RB3LYP) =  -1340.34871556     A.U. after   12 cycles
 SCF Done:  E(RB3LYP) =  -1340.34925708     A.U. after   12 cycles
 SCF Done:  E(RB3LYP) =  -1340.34964580     A.U. after   12 cycles
 SCF Done:  E(RB3LYP) =  -1340.34984859     A.U. after   12 cycles
 SCF Done:  E(RB3LYP) =  -1340.35000062     A.U. after   11 cycles
 SCF Done:  E(RB3LYP) =  -1340.35004761     A.U. after   11 cycles
 SCF Done:  E(RB3LYP) =  -1340.35008463     A.U. after   10 cycles
 SCF Done:  E(RB3LYP) =  -1340.35012097     A.U. after   11 cycles
 SCF Done:  E(RB3LYP) =  -1340.35015083     A.U. after   10 cycles
 SCF Done:  E(RB3LYP) =  -1340.35015668     A.U. after   11 cycles
 SCF Done:  E(RB3LYP) =  -1340.35016329     A.U. after   10 cycles
 SCF Done:  E(RB3LYP) =  -1340.35016411     A.U. after    8 cycles
 SCF Done:  E(RB3LYP) =  -1340.35016420     A.U. after    7 cycles
 SCF Done:  E(RB3LYP) =  -1340.35016421     A.U. after    7 cycles
 Optimization completed.
    -- Stationary point found.

                         Standard orientation:
 ---------------------------------------------------------------------
 Center     Atomic      Atomic             Coordinates (Angstroms)
 Number     Number       Type             X           Y           Z
 ---------------------------------------------------------------------
      1          8           0       -6.741252    1.128914   -0.815513
      2          6           0       -5.966910    0.168636   -0.800277
      3          7           0       -6.224787   -0.915377   -1.613141
      4          8           0       -7.493528   -0.895317   -2.217818
      5          6           0       -4.730688    0.106965    0.022788
      6          6           0       -4.620880    0.974620    1.114552
      7          6           0       -3.484452    0.931999    1.911619
      8          6           0       -2.425555    0.046367    1.655521
      9          6           0       -2.531038   -0.820696    0.547369
     10          6           0       -3.675376   -0.769405   -0.254325
     11          6           0       -1.460758   -1.841076    0.174311
     12          7           0       -0.085986   -1.403924    0.404347
     13          6           0        0.506573   -0.659991   -0.588373
     14          8           0       -0.100897   -0.360113   -1.614506
     15          6           0        1.948646   -0.229089   -0.414413
     16          6           0        2.896983   -1.190996   -0.468891
     17          6           0        4.363502   -1.086719   -0.565409
     18          6           0        5.029847   -0.003417   -1.168302
     19          6           0        6.419407    0.014193   -1.259003
     20          6           0        7.177522   -1.044969   -0.752599
     21          6           0        6.531078   -2.134288   -0.166500
     22          6           0        5.140243   -2.157144   -0.084604
     23          6           0        2.167017    1.236775   -0.263354
     24          6           0        1.518977    2.165391   -1.096535
     25          6           0        1.707081    3.534953   -0.907590
     26          6           0        2.530877    4.002206    0.117681
     27          6           0        3.168710    3.088116    0.959652
     28          6           0        2.987424    1.719324    0.772570
     29          6           0        0.468139   -1.637758    1.737297
     30          6           0       -0.517293   -1.239621    2.848601
     31          6           0       -1.215088    0.103998    2.576373
     32          1           0       -6.038821   -1.844124   -1.251953
     33          1           0       -7.819751   -0.009439   -1.928061
     34          1           0       -5.429002    1.668463    1.320717
     35          1           0       -3.408132    1.605526    2.762108
     36          1           0       -3.720022   -1.400339   -1.138609
     37          1           0       -1.559398   -2.080073   -0.886186
     38          1           0       -1.608356   -2.771476    0.737928
     39          1           0        2.535243   -2.220248   -0.466460
     40          1           0        4.454190    0.817030   -1.581428
     41          1           0        6.913312    0.857076   -1.735215
     42          1           0        8.261547   -1.025942   -0.825572
     43          1           0        7.108596   -2.970060    0.219700
     44          1           0        4.641314   -3.014433    0.362237
     45          1           0        0.871852    1.799864   -1.885825
     46          1           0        1.204274    4.238755   -1.565651
     47          1           0        2.672207    5.069887    0.263104
     48          1           0        3.805565    3.440869    1.766749
     49          1           0        3.485795    1.012731    1.430075
     50          1           0        0.751683   -2.694783    1.850376
     51          1           0        1.381073   -1.047786    1.825971
     52          1           0        0.046894   -1.180270    3.787492
     53          1           0       -1.271316   -2.022264    2.997641
     54          1           0       -1.541839    0.535077    3.529503
     55          1           0       -0.480026    0.812936    2.166646
 ---------------------------------------------------------------------

 The electronic state is 1-A.
 Alpha  occ. eigenvalues --  -19.17983 -19.13184 -19.11596 -14.40950 -14.37143
 Alpha  occ. eigenvalues --  -10.29736 -10.29036 -10.23461 -10.23267 -10.21223
 Alpha  occ. eigenvalues --  -10.21019 -10.20950 -10.20879 -10.20456 -10.20451
 Alpha  occ. eigenvalues --  -10.20420 -10.20418 -10.20377 -10.20300 -10.19906
 Alpha  occ. eigenvalues --  -10.19776 -10.19478 -10.19413 -10.19362 -10.19268
 Alpha  occ. eigenvalues --  -10.19242 -10.19187 -10.19132 -10.19096 -10.18948
 Alpha  occ. eigenvalues --  -10.18568  -1.09677  -1.03688  -1.02178  -0.94380
 Alpha  occ. eigenvalues --   -0.87591  -0.86448  -0.85439  -0.85207  -0.81072
 Alpha  occ. eigenvalues --   -0.80778  -0.78293  -0.76154  -0.75915  -0.74697
 Alpha  occ. eigenvalues --   -0.74354  -0.72793  -0.70235  -0.69845  -0.64979
 Alpha  occ. eigenvalues --   -0.63841  -0.61813  -0.61492  -0.60889  -0.60258
 Alpha  occ. eigenvalues --   -0.59934  -0.58518  -0.57093  -0.55399  -0.53407
 Alpha  occ. eigenvalues --   -0.52519  -0.51745  -0.51402  -0.49453  -0.49027
 Alpha  occ. eigenvalues --   -0.48667  -0.46984  -0.46897  -0.45877  -0.45637
 Alpha  occ. eigenvalues --   -0.45229  -0.44574  -0.44383  -0.43725  -0.43475
 Alpha  occ. eigenvalues --   -0.43126  -0.42638  -0.42307  -0.42084  -0.41509
 Alpha  occ. eigenvalues --   -0.41358  -0.41136  -0.39971  -0.39037  -0.38450
 Alpha  occ. eigenvalues --   -0.38074  -0.37263  -0.36954  -0.36697  -0.35958
 Alpha  occ. eigenvalues --   -0.35826  -0.35197  -0.34834  -0.34587  -0.34367
 Alpha  occ. eigenvalues --   -0.34265  -0.33937  -0.33767  -0.30131  -0.27841
 Alpha  occ. eigenvalues --   -0.26826  -0.26021  -0.25607  -0.25455  -0.24858
 Alpha  occ. eigenvalues --   -0.24583  -0.24108  -0.23200  -0.21829
 Alpha virt. eigenvalues --   -0.04887  -0.04523  -0.01346  -0.00830   0.00163
 Alpha virt. eigenvalues --    0.00505   0.02567   0.04132   0.05087   0.07357
 Alpha virt. eigenvalues --    0.08238   0.09345   0.09559   0.09643   0.09857

 Mulliken charges:
               1
     1  O   -0.535835
     2  C    0.523080
     3  N   -0.336734
     4  O   -0.518774
     5  C    0.087011
     6  C   -0.153418
     7  C   -0.199692
     8  C    0.139128
     9  C    0.139755
    10  C   -0.245640
    11  C   -0.253238
    12  N   -0.415684
    13  C    0.535126
    14  O   -0.508429
    15  C   -0.020071
    16  C   -0.213581
    17  C    0.158174
    18  C   -0.171738
    19  C   -0.134139
    20  C   -0.127295
    21  C   -0.131284
    22  C   -0.186244
    23  C    0.052654
    24  C   -0.165633
    25  C   -0.136656
    26  C   -0.124957
    27  C   -0.136019
    28  C   -0.164549
    29  C   -0.143306
    30  C   -0.290725
    31  C   -0.352496
    32  H    0.344183
    33  H    0.425588
    34  H    0.163239
    35  H    0.132211
    36  H    0.145945
    37  H    0.191741
    38  H    0.158919
    39  H    0.139815
    40  H    0.154388
    41  H    0.134504
    42  H    0.131853
    43  H    0.131201
    44  H    0.124913
    45  H    0.176940
    46  H    0.135972
    47  H    0.130901
    48  H    0.130685
    49  H    0.134925
    50  H    0.145339
    51  H    0.172733
    52  H    0.150502
    53  H    0.149512
    54  H    0.150943
    55  H    0.174256
 Sum of Mulliken charges =  -0.00000

 Dipole moment (field-independent basis, Debye):
    X=              4.1429    Y=             -2.3348    Z=              5.2306  Tot=              7.0692
 Quadrupole moment (field-independent basis, Debye-Ang):
   XX=           -192.1307   YY=           -164.2170   ZZ=           -180.6601
   XY=              8.7690   XZ=            -10.1479   YZ=             -3.0079

 Normal termination of Gaussian 16 at Fri Nov  4 22:13:37 2022.
