 Gaussian 16, Revision B.01,
 Gaussian 16:  ES64L-G16RevB.01 20-Dec-2017

 -----------------------------
 #p b3lyp/6-31g(d) opt SCF=XQC
 -----------------------------

 ------------------------------
 Gaussian input prepared by ASE
 ------------------------------
 Symbolic Z-matrix:
 Charge =  0 Multiplicity = 1

 SCF Done:  E(RB3LYP) =  -1458.98032793     A.U. after   16 cycles
 SCF Done:  E(RB3LYP) =  -1458.98563870     A.U. after   12 cycles
 SCF Done:  E(RB3LYP) =  -1458.98602463     A.U. after   11 cycles
 SCF Done:  E(RB3LYP) =  -1458.98610333     A.U. after   11 cycles
 SCF Done:  E(RB3LYP) =  -1458.98611980     A.U. after   10 cycles
 SCF Done:  E(RB3LYP) =  -1458.98612426     A.U. after    9 cycles
 SCF Done:  E(RB3LYP) =  -1458.98612609     A.U. after    8 cycles
 SCF Done:  E(RB3LYP) =  -1458.98612768     A.U. after    9 cycles
 SCF Done:  E(RB3LYP) =  -1458.98612907     A.U. after    9 cycles
 SCF Done:  E(RB3LYP) =  -1458.98612949     A.U. after    8 cycles
 SCF Done:  E(RB3LYP) =  -1458.98613074     A.U. after    9 cycles
 SCF Done:  E(RB3LYP) =  -1458.98613107     A.U. after    9 cycles
 SCF Done:  E(RB3LYP) =  -1458.98613134     A.U. after    9 cycles
 SCF Done:  E(RB3LYP) =  -1458.98613152     A.U. after    9 cycles
 SCF Done:  E(RB3LYP) =  -1458.98613166     A.U. after    9 cycles
 SCF Done:  E(RB3LYP) =  -1458.98613168     A.U. after    9 cycles
 SCF Done:  E(RB3LYP) =  -1458.98613170     A.U. after    7 cycles
 SCF Done:  E(RB3LYP) =  -1458.98613172     A.U. after    8 cycles
 SCF Done:  E(RB3LYP) =  -1458.98613173     A.U. after    8 cycles
 SCF Done:  E(RB3LYP) =  -1458.98613173     A.U. after    6 cycles
 Optimization completed.
    -- Stationary point found.

                         Standard orientation:
 ---------------------------------------------------------------------
 Center     Atomic      Atomic             Coordinates (Angstroms)
 Number     Number       Type             X           Y           Z
 ---------------------------------------------------------------------
      1          6           0       10.868099   -0.991089    0.391947
      2          6           0        9.487282   -0.584653    0.917645
      3          6           0        8.863280    0.570654    0.122323
      4          6           0        7.518190    1.079782    0.672785
      5          6           0        6.360455    0.065131    0.682167
      6          6           0        5.958235   -0.412756   -0.714203
      7          8           0        4.869812   -1.342506   -0.679598
      8          6           0        3.588004   -0.896961   -0.564917
      9          6           0        3.195677    0.450900   -0.522904
     10          6           0        1.847106    0.778902   -0.426084
     11          6           0        0.845008   -0.206324   -0.364366
     12          6           0       -0.579362    0.086627   -0.260183
     13          6           0       -1.170175    1.301749   -0.209114
     14          6           0       -2.605658    1.477479   -0.104761
     15          7           0       -3.502296    0.527898   -0.046202
     16          6           0       -4.786966    1.018613    0.049976
     17          6           0       -5.916388    0.070713    0.126127
     18          6           0       -5.676919   -1.311380    0.082369
     19          6           0       -6.729785   -2.220653    0.149432
     20          6           0       -8.057630   -1.792099    0.265194
     21          6           0       -9.195282   -2.780206    0.368940
     22          6           0       -8.294150   -0.410582    0.305025
     23          6           0       -7.247868    0.503669    0.238585
     24          6           0       -4.872967    2.393047    0.064902
     25         16           0       -3.302583    3.105008   -0.043825
     26          6           0        1.265429   -1.552423   -0.405258
     27          6           0        2.604440   -1.896167   -0.502820
     28          1           0       10.814072   -1.317520   -0.654029
     29          1           0       11.291422   -1.816049    0.975915
     30          1           0       11.573146   -0.152085    0.439647
     31          1           0        8.822652   -1.458692    0.895655
     32          1           0        9.568590   -0.291243    1.974190
     33          1           0        8.754210    0.269036   -0.929492
     34          1           0        9.568646    1.413567    0.114590
     35          1           0        7.670490    1.433450    1.701547
     36          1           0        7.211744    1.963160    0.094026
     37          1           0        6.617991   -0.813402    1.285629
     38          1           0        5.490468    0.524667    1.166559
     39          1           0        6.770596   -0.974289   -1.183062
     40          1           0        5.718985    0.431051   -1.375435
     41          1           0        3.929186    1.247828   -0.562059
     42          1           0        1.575234    1.830146   -0.395317
     43          1           0       -1.237276   -0.779637   -0.219383
     44          1           0       -0.579676    2.213850   -0.245045
     45          1           0       -4.654214   -1.659890   -0.008847
     46          1           0       -6.514623   -3.286440    0.109451
     47          1           0      -10.096809   -2.409478   -0.131512
     48          1           0       -8.931211   -3.743547   -0.079918
     49          1           0       -9.463552   -2.971891    1.416883
     50          1           0       -9.315500   -0.044979    0.388359
     51          1           0       -7.476132    1.565422    0.271632
     52          1           0       -5.754072    3.014207    0.131171
     53          1           0        0.517094   -2.340032   -0.359855
     54          1           0        2.919105   -2.934430   -0.536751
 ---------------------------------------------------------------------

 The electronic state is 1-A.
 Alpha  occ. eigenvalues --  -88.90755 -19.18045 -14.32373 -10.25389 -10.25079
 Alpha  occ. eigenvalues --  -10.24540 -10.22199 -10.21117 -10.19682 -10.19654
 Alpha  occ. eigenvalues --  -10.19558 -10.19530 -10.19390 -10.19337 -10.19139
 Alpha  occ. eigenvalues --  -10.19139 -10.19105 -10.19014 -10.18694 -10.18630
 Alpha  occ. eigenvalues --  -10.18516 -10.18456 -10.18116 -10.18031 -10.17913
 Alpha  occ. eigenvalues --  -10.17766 -10.17731  -7.96912  -5.93289  -5.92946
 Alpha  occ. eigenvalues --   -5.92635  -1.06544  -0.95617  -0.85904  -0.85030
 Alpha  occ. eigenvalues --   -0.81562  -0.80404  -0.79089  -0.78127  -0.77126
 Alpha  occ. eigenvalues --   -0.75143  -0.74784  -0.73574  -0.72092  -0.70318
 Alpha  occ. eigenvalues --   -0.67400  -0.65933  -0.62979  -0.61662  -0.60923
 Alpha  occ. eigenvalues --   -0.60344  -0.58810  -0.57457  -0.56595  -0.56223
 Alpha  occ. eigenvalues --   -0.53697  -0.52326  -0.51188  -0.49635  -0.48302
 Alpha  occ. eigenvalues --   -0.47266  -0.46240  -0.45499  -0.45141  -0.44965
 Alpha  occ. eigenvalues --   -0.44572  -0.44140  -0.42706  -0.42123  -0.41912
 Alpha  occ. eigenvalues --   -0.41589  -0.41396  -0.41114  -0.41092  -0.40695
 Alpha  occ. eigenvalues --   -0.40215  -0.38798  -0.38385  -0.37897  -0.37351
 Alpha  occ. eigenvalues --   -0.36602  -0.36411  -0.36204  -0.35870  -0.35139
 Alpha  occ. eigenvalues --   -0.34973  -0.33565  -0.33540  -0.32942  -0.32885
 Alpha  occ. eigenvalues --   -0.32684  -0.32111  -0.31677  -0.29631  -0.28037
 Alpha  occ. eigenvalues --   -0.26567  -0.25669  -0.25317  -0.24209  -0.21738
 Alpha  occ. eigenvalues --   -0.18940
 Alpha virt. eigenvalues --   -0.05677  -0.02091  -0.00391   0.00762   0.02045
 Alpha virt. eigenvalues --    0.02501   0.06663   0.07165   0.09128   0.09179
 Alpha virt. eigenvalues --    0.10250   0.10354   0.10626   0.11140   0.11414

 Mulliken charges:
               1
     1  C   -0.442217
     2  C   -0.250299
     3  C   -0.254328
     4  C   -0.269260
     5  C   -0.285810
     6  C   -0.040600
     7  O   -0.524616
     8  C    0.382633
     9  C   -0.189841
    10  C   -0.191463
    11  C    0.180434
    12  C   -0.167510
    13  C   -0.170765
    14  C    0.112371
    15  N   -0.503071
    16  C    0.293446
    17  C    0.105593
    18  C   -0.169760
    19  C   -0.184836
    20  C    0.184659
    21  C   -0.530837
    22  C   -0.189104
    23  C   -0.179542
    24  C   -0.409773
    25  S    0.225446
    26  C   -0.196469
    27  C   -0.178478
    28  H    0.142289
    29  H    0.144900
    30  H    0.143017
    31  H    0.136819
    32  H    0.132855
    33  H    0.130041
    34  H    0.133161
    35  H    0.138828
    36  H    0.130114
    37  H    0.154084
    38  H    0.149683
    39  H    0.158952
    40  H    0.141082
    41  H    0.135745
    42  H    0.132028
    43  H    0.158835
    44  H    0.135712
    45  H    0.152954
    46  H    0.120714
    47  H    0.156619
    48  H    0.156312
    49  H    0.165137
    50  H    0.119897
    51  H    0.120359
    52  H    0.176407
    53  H    0.136610
    54  H    0.140843
 Sum of Mulliken charges =  -0.00000

 Dipole moment (field-independent basis, Debye):
    X=              2.5395    Y=              0.8787    Z=              0.2277  Tot=              2.6969
 Quadrupole moment (field-independent basis, Debye-Ang):
   XX=           -132.4022   YY=           -157.5741   ZZ=           -173.4869
   XY=              5.1786   XZ=             -1.1661   YZ=             -0.5015

 Normal termination of Gaussian 16 at Fri Nov  4 22:20:28 2022.
