 Gaussian 16, Revision B.01,
 Gaussian 16:  ES64L-G16RevB.01 20-Dec-2017

 -------------------------------------------------------------------
 #p b3lyp/6-31g(d) 6D 10F nosymm GFInput td=(50-50,nstate=2) SCF=XQC
 -------------------------------------------------------------------

 ------------------------------
 Gaussian input prepared by ASE
 ------------------------------
 Symbolic Z-matrix:
 Charge =  0 Multiplicity = 1

                          Input orientation:
 ---------------------------------------------------------------------
 Center     Atomic      Atomic             Coordinates (Angstroms)
 Number     Number       Type             X           Y           Z
 ---------------------------------------------------------------------
      1          6           0       -9.865346   -1.052085    1.062792
      2          6           0       -8.516421   -1.250761    0.363410
      3          6           0       -7.973642    0.041668   -0.262424
      4          6           0       -6.667505   -0.127504   -1.060467
      5          6           0       -5.442114   -0.609848   -0.263149
      6          6           0       -5.006788    0.364378    0.832924
      7          8           0       -3.856453   -0.099046    1.548651
      8          6           0       -2.608751    0.072641    1.030522
      9          6           0       -2.310993    0.733536   -0.172381
     10          6           0       -0.988515    0.863323   -0.584464
     11          6           0        0.079538    0.345420    0.170332
     12          6           0        1.480060    0.453728   -0.219937
     13          6           0        1.985036    1.046412   -1.325340
     14          6           0        3.404784    1.095521   -1.615659
     15          7           0        4.365159    0.594749   -0.883540
     16          6           0        5.612591    0.805375   -1.431242
     17          6           0        6.805060    0.298392   -0.723503
     18          6           0        6.662169   -0.373047    0.500504
     19          6           0        7.775591   -0.855276    1.184279
     20          6           0        9.070398   -0.691535    0.677430
     21          6           0       10.273851   -1.242385    1.405190
     22          6           0        9.210388   -0.017110   -0.543910
     23          6           0        8.103190    0.467336   -1.232674
     24          6           0        5.602935    1.492428   -2.624789
     25         16           0        3.986973    1.892509   -3.086759
     26          6           0       -0.246369   -0.316522    1.372841
     27          6           0       -1.558216   -0.453321    1.798250
     28          1           0       -9.788114   -0.314922    1.871597
     29          1           0      -10.230735   -1.988016    1.500175
     30          1           0      -10.626982   -0.692236    0.360144
     31          1           0       -7.792689   -1.651920    1.085519
     32          1           0       -8.618583   -2.014717   -0.420759
     33          1           0       -7.843219    0.798354    0.524723
     34          1           0       -8.735833    0.451228   -0.940237
     35          1           0       -6.844654   -0.839446   -1.878015
     36          1           0       -6.422771    0.829501   -1.543659
     37          1           0       -5.638408   -1.583972    0.200383
     38          1           0       -4.606447   -0.763774   -0.956441
     39          1           0       -5.777895    0.455210    1.602484
     40          1           0       -4.826287    1.370010    0.429686
     41          1           0       -3.098045    1.145861   -0.793025
     42          1           0       -0.790318    1.379315   -1.519582
     43          1           0        2.196513    0.002202    0.463983
     44          1           0        1.332649    1.519329   -2.055168
     45          1           0        5.666193   -0.506737    0.907765
     46          1           0        7.634982   -1.368736    2.133164
     47          1           0       11.147778   -0.592088    1.286842
     48          1           0       10.077599   -1.353469    2.476814
     49          1           0       10.554114   -2.232760    1.021124
     50          1           0       10.203832    0.131989   -0.961767
     51          1           0        8.257153    0.985178   -2.175357
     52          1           0        6.438736    1.780933   -3.245092
     53          1           0        0.554822   -0.728988    1.981413
     54          1           0       -1.800002   -0.961492    2.726397
 ---------------------------------------------------------------------

 SCF Done:  E(RB3LYP) =  -1458.98612832     A.U. after   16 cycles

 Excitation energies and oscillator strengths:

 Excited state symmetry could not be determined.
 Excited State   1:      Triplet-?Sym    2.0137 eV  615.71 nm  f=0.0000  <S**2>=2.000
      98 ->102        -0.11199
     100 ->103         0.10386
     101 ->102         0.67005
     101 <-102         0.10063
 This state for optimization and/or second-order correction.
 Total Energy, E(TD-HF/TD-DFT) =  -1458.91212698
 Copying the excited state density for this state as the 1-particle RhoCI density.

 Excited state symmetry could not be determined.
 Excited State   2:      Triplet-?Sym    2.9018 eV  427.26 nm  f=0.0000  <S**2>=2.000
      94 ->102         0.10815
      99 ->105         0.11942
     100 ->102         0.35679
     100 ->103        -0.23603
     101 ->103         0.50400

 Excited state symmetry could not be determined.
 Excited State   3:      Singlet-?Sym    3.4154 eV  363.01 nm  f=0.9077  <S**2>=0.000
     101 ->102         0.69201

 Excited state symmetry could not be determined.
 Excited State   4:      Singlet-?Sym    3.9196 eV  316.32 nm  f=0.2430  <S**2>=0.000
     100 ->102         0.65676
     101 ->102         0.11245
     101 ->103        -0.20704

 Alpha  occ. eigenvalues --  -88.90756 -19.18045 -14.32373 -10.25389 -10.25079
 Alpha  occ. eigenvalues --  -10.24540 -10.22199 -10.21117 -10.19682 -10.19654
 Alpha  occ. eigenvalues --  -10.19558 -10.19530 -10.19390 -10.19337 -10.19139
 Alpha  occ. eigenvalues --  -10.19139 -10.19105 -10.19013 -10.18694 -10.18630
 Alpha  occ. eigenvalues --  -10.18516 -10.18456 -10.18116 -10.18031 -10.17913
 Alpha  occ. eigenvalues --  -10.17766 -10.17731  -7.96912  -5.93289  -5.92946
 Alpha  occ. eigenvalues --   -5.92635  -1.06544  -0.95617  -0.85904  -0.85030
 Alpha  occ. eigenvalues --   -0.81562  -0.80404  -0.79089  -0.78127  -0.77126
 Alpha  occ. eigenvalues --   -0.75143  -0.74784  -0.73574  -0.72092  -0.70318
 Alpha  occ. eigenvalues --   -0.67400  -0.65933  -0.62979  -0.61662  -0.60923
 Alpha  occ. eigenvalues --   -0.60344  -0.58810  -0.57457  -0.56595  -0.56223
 Alpha  occ. eigenvalues --   -0.53697  -0.52326  -0.51188  -0.49635  -0.48302
 Alpha  occ. eigenvalues --   -0.47266  -0.46240  -0.45499  -0.45141  -0.44965
 Alpha  occ. eigenvalues --   -0.44572  -0.44140  -0.42706  -0.42123  -0.41912
 Alpha  occ. eigenvalues --   -0.41589  -0.41395  -0.41114  -0.41092  -0.40695
 Alpha  occ. eigenvalues --   -0.40215  -0.38798  -0.38385  -0.37897  -0.37351
 Alpha  occ. eigenvalues --   -0.36602  -0.36411  -0.36204  -0.35870  -0.35139
 Alpha  occ. eigenvalues --   -0.34973  -0.33565  -0.33541  -0.32942  -0.32885
 Alpha  occ. eigenvalues --   -0.32684  -0.32111  -0.31677  -0.29631  -0.28037
 Alpha  occ. eigenvalues --   -0.26567  -0.25669  -0.25317  -0.24209  -0.21738
 Alpha  occ. eigenvalues --   -0.18940
 Alpha virt. eigenvalues --   -0.05677  -0.02091  -0.00391   0.00762   0.02045
 Alpha virt. eigenvalues --    0.02501   0.06663   0.07165   0.09128   0.09179
 Alpha virt. eigenvalues --    0.10250   0.10354   0.10626   0.11140   0.11414

 Mulliken charges:
               1
     1  C   -0.442217
     2  C   -0.250286
     3  C   -0.254341
     4  C   -0.269234
     5  C   -0.285823
     6  C   -0.040607
     7  O   -0.524615
     8  C    0.382642
     9  C   -0.189850
    10  C   -0.191462
    11  C    0.180436
    12  C   -0.167509
    13  C   -0.170759
    14  C    0.112369
    15  N   -0.503072
    16  C    0.293445
    17  C    0.105583
    18  C   -0.169754
    19  C   -0.184833
    20  C    0.184656
    21  C   -0.530835
    22  C   -0.189109
    23  C   -0.179530
    24  C   -0.409774
    25  S    0.225443
    26  C   -0.196473
    27  C   -0.178480
    28  H    0.142288
    29  H    0.144900
    30  H    0.143016
    31  H    0.136814
    32  H    0.132852
    33  H    0.130041
    34  H    0.133160
    35  H    0.138825
    36  H    0.130110
    37  H    0.154085
    38  H    0.149685
    39  H    0.158956
    40  H    0.141084
    41  H    0.135746
    42  H    0.132027
    43  H    0.158835
    44  H    0.135712
    45  H    0.152953
    46  H    0.120714
    47  H    0.156618
    48  H    0.156311
    49  H    0.165137
    50  H    0.119898
    51  H    0.120359
    52  H    0.176407
    53  H    0.136609
    54  H    0.140843
 Sum of Mulliken charges =  -0.00000

 Dipole moment (field-independent basis, Debye):
    X=             -2.5946    Y=              0.1613    Z=             -0.7180  Tot=              2.6969
 Quadrupole moment (field-independent basis, Debye-Ang):
   XX=           -136.5192   YY=           -169.1069   ZZ=           -162.1465
   XY=             -3.0585   XZ=              2.2709   YZ=             -7.0654

 Normal termination of Gaussian 16 at Sat Nov  5 09:35:08 2022.
