 Gaussian 16, Revision B.01,
 Gaussian 16:  ES64L-G16RevB.01 20-Dec-2017

 -----------------------------
 #p b3lyp/6-31g(d) opt SCF=XQC
 -----------------------------

 ------------------------------
 Gaussian input prepared by ASE
 ------------------------------
 Symbolic Z-matrix:
 Charge =  0 Multiplicity = 1

 SCF Done:  E(RB3LYP) =  -1466.72782420     A.U. after   14 cycles
 SCF Done:  E(RB3LYP) =  -1466.73452666     A.U. after   12 cycles
 SCF Done:  E(RB3LYP) =  -1466.73559675     A.U. after   11 cycles
 SCF Done:  E(RB3LYP) =  -1466.73600356     A.U. after   11 cycles
 SCF Done:  E(RB3LYP) =  -1466.73635679     A.U. after   12 cycles
 SCF Done:  E(RB3LYP) =  -1466.73659930     A.U. after   12 cycles
 SCF Done:  E(RB3LYP) =  -1466.73673371     A.U. after   11 cycles
 SCF Done:  E(RB3LYP) =  -1466.73677732     A.U. after   10 cycles
 SCF Done:  E(RB3LYP) =  -1466.73679009     A.U. after   10 cycles
 SCF Done:  E(RB3LYP) =  -1466.73679666     A.U. after    9 cycles
 SCF Done:  E(RB3LYP) =  -1466.73679721     A.U. after    9 cycles
 SCF Done:  E(RB3LYP) =  -1466.73679805     A.U. after    9 cycles
 SCF Done:  E(RB3LYP) =  -1466.73679826     A.U. after    8 cycles
 SCF Done:  E(RB3LYP) =  -1466.73679830     A.U. after    7 cycles
 Optimization completed on the basis of negligible forces.
    -- Stationary point found.

                         Standard orientation:
 ---------------------------------------------------------------------
 Center     Atomic      Atomic             Coordinates (Angstroms)
 Number     Number       Type             X           Y           Z
 ---------------------------------------------------------------------
      1          6           0      -12.690274    0.898155    0.411250
      2          6           0      -12.574366   -0.132841    1.540508
      3          6           0      -11.282101   -0.966852    1.512318
      4          6           0      -10.001527   -0.157545    1.769984
      5          6           0       -8.726021   -1.013818    1.882311
      6          6           0       -8.270284   -1.699474    0.583459
      7          6           0       -7.693966   -0.816288   -0.496605
      8          6           0       -7.351637    0.471547   -0.404181
      9          6           0       -6.809038    1.281237   -1.550175
     10          8           0       -5.697842    2.107151   -1.180764
     11          6           0       -4.454431    1.559306   -1.043482
     12          6           0       -3.431925    2.467154   -0.724310
     13          6           0       -2.124790    2.028851   -0.580606
     14          6           0       -1.795590    0.671715   -0.750860
     15          6           0       -0.400707    0.204346   -0.599120
     16          7           0       -0.148166   -1.102498   -0.774945
     17          6           0        1.112397   -1.522062   -0.638678
     18          6           0        2.154068   -0.644508   -0.323676
     19          8           0        3.464053   -0.962714   -0.162549
     20          6           0        3.857819   -2.329176   -0.337463
     21          6           0        5.361969   -2.418959   -0.124745
     22          6           0        6.179900   -1.628020   -1.151964
     23          6           0        7.687309   -1.694611   -0.885144
     24          8           0        8.041184   -1.183355    0.395113
     25          6           0        8.250378    0.227093    0.443838
     26          6           0        9.684353    0.628078    0.083333
     27          6           0       10.730759    0.029625    1.032548
     28          6           0       12.189291    0.294646    0.622590
     29          6           0       12.625978    1.770405    0.598994
     30          6           0       12.571562    2.467189    1.963719
     31          6           0        1.789154    0.700169   -0.158548
     32          7           0        0.540633    1.124409   -0.291707
     33          6           0       -2.825322   -0.224912   -1.065442
     34          6           0       -4.143630    0.203047   -1.210311
     35          1           0      -13.652944    1.420531    0.452804
     36          1           0      -11.902447    1.657543    0.467609
     37          1           0      -12.616076    0.415963   -0.571790
     38          1           0      -13.433001   -0.815787    1.487233
     39          1           0      -12.652584    0.377938    2.511087
     40          1           0      -11.356816   -1.758617    2.272042
     41          1           0      -11.214862   -1.480162    0.542433
     42          1           0      -10.125951    0.400618    2.709190
     43          1           0       -9.871196    0.594072    0.982463
     44          1           0       -7.904373   -0.396750    2.268869
     45          1           0       -8.893232   -1.793670    2.637952
     46          1           0       -9.102555   -2.274878    0.153340
     47          1           0       -7.509592   -2.456805    0.830144
     48          1           0       -7.528199   -1.321144   -1.451981
     49          1           0       -7.487900    1.025407    0.522946
     50          1           0       -7.556935    2.007128   -1.889883
     51          1           0       -6.551261    0.643324   -2.406243
     52          1           0       -3.690981    3.514047   -0.599320
     53          1           0       -1.336491    2.732187   -0.336164
     54          1           0        1.284480   -2.585575   -0.786153
     55          1           0        3.581519   -2.663333   -1.348705
     56          1           0        3.323868   -2.959683    0.387506
     57          1           0        5.604829   -2.065433    0.883092
     58          1           0        5.640044   -3.481678   -0.163157
     59          1           0        5.848173   -0.582986   -1.152725
     60          1           0        5.991301   -2.016078   -2.163944
     61          1           0        8.023179   -2.739072   -0.892563
     62          1           0        8.234816   -1.170420   -1.682836
     63          1           0        7.532580    0.748333   -0.207167
     64          1           0        8.028168    0.523666    1.476021
     65          1           0        9.735826    1.725788    0.089188
     66          1           0        9.902094    0.318169   -0.949355
     67          1           0       10.568139   -1.053705    1.081405
     68          1           0       10.551484    0.406824    2.049464
     69          1           0       12.850430   -0.255256    1.307841
     70          1           0       12.358981   -0.138257   -0.374032
     71          1           0       12.013600    2.329701   -0.121404
     72          1           0       13.654302    1.818526    0.215905
     73          1           0       13.181570    1.933799    2.703690
     74          1           0       11.549609    2.520424    2.356394
     75          1           0       12.950964    3.493390    1.897810
     76          1           0        2.553842    1.435384    0.089652
     77          1           0       -2.582243   -1.274230   -1.192820
     78          1           0       -4.916547   -0.522250   -1.430931
 ---------------------------------------------------------------------

 The electronic state is 1-A.
 Alpha  occ. eigenvalues --  -19.18836 -19.17053 -19.14411 -14.33025 -14.32998
 Alpha  occ. eigenvalues --  -10.25600 -10.25086 -10.24810 -10.24285 -10.24030
 Alpha  occ. eigenvalues --  -10.23202 -10.23126 -10.23002 -10.22816 -10.19367
 Alpha  occ. eigenvalues --  -10.19128 -10.18965 -10.18667 -10.18601 -10.18169
 Alpha  occ. eigenvalues --  -10.17954 -10.17891 -10.17848 -10.17835 -10.17726
 Alpha  occ. eigenvalues --  -10.17698 -10.17686 -10.17676 -10.17628 -10.17563
 Alpha  occ. eigenvalues --  -10.17347 -10.17329 -10.17117 -10.17102  -1.07515
 Alpha  occ. eigenvalues --   -1.05468  -1.02461  -0.97653  -0.87974  -0.84331
 Alpha  occ. eigenvalues --   -0.81670  -0.81305  -0.80076  -0.79299  -0.78237
 Alpha  occ. eigenvalues --   -0.76446  -0.75909  -0.74004  -0.73538  -0.72529
 Alpha  occ. eigenvalues --   -0.70955  -0.69904  -0.67676  -0.66761  -0.65279
 Alpha  occ. eigenvalues --   -0.64840  -0.63620  -0.62211  -0.60414  -0.59923
 Alpha  occ. eigenvalues --   -0.59512  -0.57562  -0.57185  -0.56261  -0.54950
 Alpha  occ. eigenvalues --   -0.54291  -0.54188  -0.52520  -0.52219  -0.50932
 Alpha  occ. eigenvalues --   -0.49248  -0.49179  -0.48215  -0.47553  -0.46923
 Alpha  occ. eigenvalues --   -0.45886  -0.45840  -0.45314  -0.44847  -0.44506
 Alpha  occ. eigenvalues --   -0.44272  -0.43818  -0.43388  -0.43271  -0.42265
 Alpha  occ. eigenvalues --   -0.42183  -0.42031  -0.41562  -0.41210  -0.40643
 Alpha  occ. eigenvalues --   -0.40398  -0.40009  -0.39992  -0.39614  -0.38645
 Alpha  occ. eigenvalues --   -0.38480  -0.37766  -0.37314  -0.37019  -0.36638
 Alpha  occ. eigenvalues --   -0.36236  -0.36064  -0.35709  -0.35277  -0.35102
 Alpha  occ. eigenvalues --   -0.34905  -0.34220  -0.34008  -0.33796  -0.33550
 Alpha  occ. eigenvalues --   -0.33183  -0.31866  -0.31700  -0.31489  -0.31412
 Alpha  occ. eigenvalues --   -0.31335  -0.31330  -0.30984  -0.30866  -0.30679
 Alpha  occ. eigenvalues --   -0.30157  -0.29569  -0.25229  -0.24962  -0.24889
 Alpha  occ. eigenvalues --   -0.23872  -0.23645  -0.19754
 Alpha virt. eigenvalues --   -0.03283  -0.02779   0.00931   0.01769   0.05299
 Alpha virt. eigenvalues --    0.07701   0.08566   0.08912   0.09603   0.09760
 Alpha virt. eigenvalues --    0.10485   0.10596   0.11046   0.11104   0.12059

 Mulliken charges:
               1
     1  C   -0.442929
     2  C   -0.249320
     3  C   -0.250663
     4  C   -0.256696
     5  C   -0.267581
     6  C   -0.303478
     7  C   -0.103708
     8  C   -0.105968
     9  C   -0.089679
    10  O   -0.526368
    11  C    0.382458
    12  C   -0.184603
    13  C   -0.174541
    14  C    0.101835
    15  C    0.405843
    16  N   -0.470962
    17  C    0.006342
    18  C    0.346281
    19  O   -0.523542
    20  C   -0.043640
    21  C   -0.276020
    22  C   -0.275618
    23  C   -0.033510
    24  O   -0.469689
    25  C   -0.035892
    26  C   -0.272198
    27  C   -0.254258
    28  C   -0.253955
    29  C   -0.250353
    30  C   -0.443021
    31  C    0.022299
    32  N   -0.459520
    33  C   -0.185440
    34  C   -0.188854
    35  H    0.142157
    36  H    0.146995
    37  H    0.139886
    38  H    0.130225
    39  H    0.129996
    40  H    0.125722
    41  H    0.128814
    42  H    0.128123
    43  H    0.140833
    44  H    0.140064
    45  H    0.131110
    46  H    0.146781
    47  H    0.152600
    48  H    0.120123
    49  H    0.141436
    50  H    0.162558
    51  H    0.146310
    52  H    0.134195
    53  H    0.154767
    54  H    0.148242
    55  H    0.140030
    56  H    0.145837
    57  H    0.172199
    58  H    0.136484
    59  H    0.159088
    60  H    0.127390
    61  H    0.138677
    62  H    0.126164
    63  H    0.124400
    64  H    0.141366
    65  H    0.132916
    66  H    0.131701
    67  H    0.148849
    68  H    0.129063
    69  H    0.127297
    70  H    0.124955
    71  H    0.132220
    72  H    0.130788
    73  H    0.141487
    74  H    0.144215
    75  H    0.141704
    76  H    0.153294
    77  H    0.152613
    78  H    0.133275
 Sum of Mulliken charges =  -0.00000

 Dipole moment (field-independent basis, Debye):
    X=              0.5621    Y=             -2.3689    Z=             -0.8787  Tot=              2.5884
 Quadrupole moment (field-independent basis, Debye-Ang):
   XX=           -174.5994   YY=           -202.0582   ZZ=           -207.5972
   XY=              5.7939   XZ=             -7.5045   YZ=              4.3935

 Normal termination of Gaussian 16 at Fri Nov  4 22:05:00 2022.
