 Gaussian 16, Revision B.01,
 Gaussian 16:  ES64L-G16RevB.01 20-Dec-2017

 -------------------------------------------------------------------
 #p b3lyp/6-31g(d) 6D 10F nosymm GFInput td=(50-50,nstate=2) SCF=XQC
 -------------------------------------------------------------------

 ------------------------------
 Gaussian input prepared by ASE
 ------------------------------
 Symbolic Z-matrix:
 Charge =  0 Multiplicity = 1

                          Input orientation:
 ---------------------------------------------------------------------
 Center     Atomic      Atomic             Coordinates (Angstroms)
 Number     Number       Type             X           Y           Z
 ---------------------------------------------------------------------
      1          6           0       12.745753    1.523245    0.338496
      2          6           0       12.680013    1.004574   -1.103124
      3          6           0       11.428699    0.169296   -1.423816
      4          6           0       10.111476    0.959024   -1.373888
      5          6           0        8.878103    0.158247   -1.832454
      6          6           0        8.454024   -0.994993   -0.907773
      7          6           0        7.835374   -0.623484    0.418104
      8          6           0        7.432490    0.583937    0.823159
      9          6           0        6.850935    0.863721    2.182140
     10          8           0        5.702228    1.719255    2.138669
     11          6           0        4.486322    1.213678    1.776708
     12          6           0        3.422272    2.129135    1.812898
     13          6           0        2.137528    1.724205    1.486051
     14          6           0        1.872841    0.393779    1.113107
     15          6           0        0.501836   -0.038628    0.765943
     16          7           0        0.311333   -1.321549    0.419019
     17          6           0       -0.927787   -1.710070    0.107159
     18          6           0       -2.009550   -0.824965    0.135138
     19          8           0       -3.302814   -1.112636   -0.161496
     20          6           0       -3.631556   -2.456252   -0.534984
     21          6           0       -5.129539   -2.521946   -0.794811
     22          6           0       -5.985104   -2.225479    0.442077
     23          6           0       -7.487385   -2.249046    0.141234
     24          8           0       -7.863762   -1.298741   -0.849184
     25          6           0       -8.139518    0.010534   -0.353949
     26          6           0       -9.591259    0.178599    0.105656
     27          6           0      -10.607139   -0.051407   -1.020934
     28          6           0      -12.077017   -0.028780   -0.568650
     29          6           0      -12.583181    1.302876    0.014108
     30          6           0      -12.560431    2.474434   -0.974770
     31          6           0       -1.708605    0.493547    0.508691
     32          7           0       -0.481732    0.887056    0.819256
     33          6           0        2.943584   -0.509254    1.077152
     34          6           0        4.239977   -0.113820    1.401297
     35          1           0       13.682626    2.062285    0.520270
     36          1           0       11.922880    2.210554    0.564336
     37          1           0       12.693470    0.695997    1.057739
     38          1           0       13.569995    0.391952   -1.300950
     39          1           0       12.734944    1.853520   -1.799765
     40          1           0       11.541644   -0.263462   -2.428613
     41          1           0       11.384855   -0.681238   -0.728579
     42          1           0       10.210283    1.841509   -2.022419
     43          1           0        9.944850    1.341645   -0.360013
     44          1           0        8.028535    0.840527   -1.966742
     45          1           0        9.082872   -0.261106   -2.827107
     46          1           0        9.312183   -1.655254   -0.717025
     47          1           0        7.730337   -1.630407   -1.442172
     48          1           0        7.692727   -1.464892    1.101322
     49          1           0        7.543313    1.458304    0.184336
     50          1           0        7.563234    1.433677    2.789961
     51          1           0        6.622791   -0.065899    2.720647
     52          1           0        3.631549    3.153193    2.106537
     53          1           0        1.317036    2.432509    1.516774
     54          1           0       -1.049425   -2.754361   -0.170477
     55          1           0       -3.340780   -3.142821    0.274142
     56          1           0       -3.067569   -2.733970   -1.436657
     57          1           0       -5.387834   -1.817397   -1.592678
     58          1           0       -5.356974   -3.527964   -1.174778
     59          1           0       -5.703279   -1.248565    0.852387
     60          1           0       -5.779377   -2.965794    1.229397
     61          1           0       -7.773383   -3.228771   -0.261388
     62          1           0       -8.059949   -2.097963    1.068703
     63          1           0       -7.447906    0.270372    0.461460
     64          1           0       -7.930540    0.692158   -1.187287
     65          1           0       -9.694693    1.190004    0.522804
     66          1           0       -9.795141   -0.515313    0.934400
     67          1           0      -10.393307   -1.023613   -1.480857
     68          1           0      -10.444885    0.696743   -1.809909
     69          1           0      -12.710639   -0.299341   -1.425614
     70          1           0      -12.227035   -0.819998    0.180298
     71          1           0      -11.998748    1.566403    0.906175
     72          1           0      -13.613027    1.154678    0.366210
     73          1           0      -13.143705    2.242440   -1.874849
     74          1           0      -11.541742    2.719444   -1.296729
     75          1           0      -12.988112    3.378025   -0.525338
     76          1           0       -2.507020    1.233699    0.548703
     77          1           0        2.750378   -1.535778    0.785088
     78          1           0        5.046170   -0.833822    1.339833
 ---------------------------------------------------------------------

 SCF Done:  E(RB3LYP) =  -1466.73679716     A.U. after   14 cycles

 Excitation energies and oscillator strengths:

 Excited state symmetry could not be determined.
 Excited State   1:      Triplet-?Sym    2.9280 eV  423.44 nm  f=0.0000  <S**2>=2.000
     125 ->133        -0.10962
     128 ->129         0.35325
     128 ->130         0.56214
 This state for optimization and/or second-order correction.
 Total Energy, E(TD-HF/TD-DFT) =  -1466.62919393
 Copying the excited state density for this state as the 1-particle RhoCI density.

 Excited state symmetry could not be determined.
 Excited State   2:      Triplet-?Sym    3.2773 eV  378.32 nm  f=0.0000  <S**2>=2.000
     125 ->129        -0.21197
     128 ->129         0.55830
     128 ->130        -0.34963

 Excited state symmetry could not be determined.
 Excited State   3:      Singlet-?Sym    3.9293 eV  315.54 nm  f=0.0143  <S**2>=0.000
     128 ->129         0.67070
     128 ->130        -0.19754

 Excited state symmetry could not be determined.
 Excited State   4:      Singlet-?Sym    4.1603 eV  298.02 nm  f=0.0036  <S**2>=0.000
     127 ->129         0.68428
     127 ->130        -0.16499

 Alpha  occ. eigenvalues --  -19.18836 -19.17053 -19.14411 -14.33025 -14.32997
 Alpha  occ. eigenvalues --  -10.25600 -10.25086 -10.24810 -10.24285 -10.24030
 Alpha  occ. eigenvalues --  -10.23202 -10.23126 -10.23002 -10.22816 -10.19367
 Alpha  occ. eigenvalues --  -10.19129 -10.18965 -10.18667 -10.18601 -10.18169
 Alpha  occ. eigenvalues --  -10.17954 -10.17891 -10.17848 -10.17835 -10.17726
 Alpha  occ. eigenvalues --  -10.17698 -10.17686 -10.17676 -10.17628 -10.17563
 Alpha  occ. eigenvalues --  -10.17347 -10.17329 -10.17117 -10.17102  -1.07515
 Alpha  occ. eigenvalues --   -1.05468  -1.02461  -0.97653  -0.87974  -0.84331
 Alpha  occ. eigenvalues --   -0.81670  -0.81305  -0.80076  -0.79299  -0.78237
 Alpha  occ. eigenvalues --   -0.76446  -0.75909  -0.74004  -0.73538  -0.72529
 Alpha  occ. eigenvalues --   -0.70955  -0.69904  -0.67676  -0.66761  -0.65279
 Alpha  occ. eigenvalues --   -0.64840  -0.63620  -0.62211  -0.60414  -0.59923
 Alpha  occ. eigenvalues --   -0.59512  -0.57562  -0.57185  -0.56261  -0.54950
 Alpha  occ. eigenvalues --   -0.54291  -0.54188  -0.52520  -0.52219  -0.50932
 Alpha  occ. eigenvalues --   -0.49248  -0.49179  -0.48215  -0.47553  -0.46923
 Alpha  occ. eigenvalues --   -0.45886  -0.45840  -0.45315  -0.44847  -0.44506
 Alpha  occ. eigenvalues --   -0.44272  -0.43818  -0.43388  -0.43271  -0.42265
 Alpha  occ. eigenvalues --   -0.42183  -0.42031  -0.41562  -0.41210  -0.40644
 Alpha  occ. eigenvalues --   -0.40398  -0.40009  -0.39992  -0.39614  -0.38645
 Alpha  occ. eigenvalues --   -0.38480  -0.37766  -0.37314  -0.37019  -0.36638
 Alpha  occ. eigenvalues --   -0.36236  -0.36064  -0.35709  -0.35277  -0.35102
 Alpha  occ. eigenvalues --   -0.34905  -0.34220  -0.34008  -0.33796  -0.33550
 Alpha  occ. eigenvalues --   -0.33183  -0.31866  -0.31700  -0.31489  -0.31412
 Alpha  occ. eigenvalues --   -0.31335  -0.31330  -0.30984  -0.30866  -0.30679
 Alpha  occ. eigenvalues --   -0.30157  -0.29569  -0.25229  -0.24962  -0.24889
 Alpha  occ. eigenvalues --   -0.23872  -0.23645  -0.19754
 Alpha virt. eigenvalues --   -0.03283  -0.02779   0.00931   0.01769   0.05300
 Alpha virt. eigenvalues --    0.07701   0.08566   0.08912   0.09603   0.09760
 Alpha virt. eigenvalues --    0.10485   0.10596   0.11046   0.11104   0.12058

 Mulliken charges:
               1
     1  C   -0.442945
     2  C   -0.249313
     3  C   -0.250658
     4  C   -0.256672
     5  C   -0.267584
     6  C   -0.303494
     7  C   -0.103701
     8  C   -0.105966
     9  C   -0.089683
    10  O   -0.526364
    11  C    0.382459
    12  C   -0.184609
    13  C   -0.174542
    14  C    0.101849
    15  C    0.405847
    16  N   -0.470967
    17  C    0.006338
    18  C    0.346287
    19  O   -0.523542
    20  C   -0.043654
    21  C   -0.276021
    22  C   -0.275617
    23  C   -0.033527
    24  O   -0.469675
    25  C   -0.035904
    26  C   -0.272198
    27  C   -0.254267
    28  C   -0.253946
    29  C   -0.250361
    30  C   -0.443012
    31  C    0.022310
    32  N   -0.459528
    33  C   -0.185451
    34  C   -0.188850
    35  H    0.142159
    36  H    0.146998
    37  H    0.139889
    38  H    0.130223
    39  H    0.129994
    40  H    0.125720
    41  H    0.128812
    42  H    0.128119
    43  H    0.140826
    44  H    0.140062
    45  H    0.131109
    46  H    0.146784
    47  H    0.152602
    48  H    0.120121
    49  H    0.141436
    50  H    0.162560
    51  H    0.146310
    52  H    0.134194
    53  H    0.154767
    54  H    0.148242
    55  H    0.140033
    56  H    0.145838
    57  H    0.172204
    58  H    0.136484
    59  H    0.159089
    60  H    0.127390
    61  H    0.138679
    62  H    0.126166
    63  H    0.124404
    64  H    0.141367
    65  H    0.132918
    66  H    0.131702
    67  H    0.148850
    68  H    0.129065
    69  H    0.127297
    70  H    0.124955
    71  H    0.132220
    72  H    0.130789
    73  H    0.141486
    74  H    0.144212
    75  H    0.141703
    76  H    0.153292
    77  H    0.152614
    78  H    0.133275
 Sum of Mulliken charges =  -0.00000

 Dipole moment (field-independent basis, Debye):
    X=             -0.4501    Y=             -2.5464    Z=             -0.1143  Tot=              2.5884
 Quadrupole moment (field-independent basis, Debye-Ang):
   XX=           -174.1976   YY=           -199.8519   ZZ=           -210.2694
   XY=             -1.5936   XZ=             -8.4836   YZ=             -1.8471

 Normal termination of Gaussian 16 at Sat Nov  5 09:43:33 2022.
