 Gaussian 16, Revision B.01,
 Gaussian 16:  ES64L-G16RevB.01 20-Dec-2017

 -----------------------------
 #p b3lyp/6-31g(d) opt SCF=XQC
 -----------------------------

 ------------------------------
 Gaussian input prepared by ASE
 ------------------------------
 Symbolic Z-matrix:
 Charge =  0 Multiplicity = 1

 SCF Done:  E(RB3LYP) =  -2112.94129929     A.U. after   16 cycles
 SCF Done:  E(RB3LYP) =  -2112.95436603     A.U. after   13 cycles
 SCF Done:  E(RB3LYP) =  -2112.95857382     A.U. after   13 cycles
 SCF Done:  E(RB3LYP) =  -2112.96066082     A.U. after   13 cycles
 SCF Done:  E(RB3LYP) =  -2112.96088523     A.U. after   12 cycles
 SCF Done:  E(RB3LYP) =  -2112.96133407     A.U. after   12 cycles
 SCF Done:  E(RB3LYP) =  -2112.96140472     A.U. after   10 cycles
 SCF Done:  E(RB3LYP) =  -2112.96143820     A.U. after   11 cycles
 SCF Done:  E(RB3LYP) =  -2112.96145678     A.U. after   10 cycles
 SCF Done:  E(RB3LYP) =  -2112.96148535     A.U. after   10 cycles
 SCF Done:  E(RB3LYP) =  -2112.96184432     A.U. after    7 cycles
 SCF Done:  E(RB3LYP) =  -2112.96184465     A.U. after    9 cycles
 SCF Done:  E(RB3LYP) =  -2112.96184520     A.U. after    9 cycles
 SCF Done:  E(RB3LYP) =  -2112.96184590     A.U. after    9 cycles
 SCF Done:  E(RB3LYP) =  -2112.96184659     A.U. after    9 cycles
 SCF Done:  E(RB3LYP) =  -2112.96184739     A.U. after    9 cycles
 SCF Done:  E(RB3LYP) =  -2112.96184787     A.U. after    8 cycles
 SCF Done:  E(RB3LYP) =  -2112.96184816     A.U. after    9 cycles
 SCF Done:  E(RB3LYP) =  -2112.96184821     A.U. after    6 cycles
 SCF Done:  E(RB3LYP) =  -2112.96184822     A.U. after    6 cycles
 Optimization completed.
    -- Stationary point found.

                         Standard orientation:
 ---------------------------------------------------------------------
 Center     Atomic      Atomic             Coordinates (Angstroms)
 Number     Number       Type             X           Y           Z
 ---------------------------------------------------------------------
      1          6           0       -7.629496   -0.483412    0.096614
      2          8           0       -6.542389   -0.220022   -0.770981
      3          6           0       -5.285733   -0.428877   -0.288590
      4          6           0       -4.978544   -0.893190    0.980918
      5          6           0       -3.614082   -1.035258    1.285627
      6          6           0       -2.635893   -0.711977    0.328149
      7          7           0       -2.941053   -0.277753   -0.912216
      8          6           0       -4.213632   -0.135069   -1.203256
      9          8           0       -4.592595    0.312165   -2.419686
     10          6           0       -3.536034    0.633058   -3.331721
     11          6           0       -1.349181   -0.951990    0.928452
     12          6           0       -0.034711   -0.887256    0.303757
     13          6           0        0.893350   -1.899917    0.255561
     14          6           0        1.990171   -1.477585   -0.558372
     15          6           0        3.193026   -2.047667   -1.010933
     16          6           0        3.558742   -3.479868   -0.649516
     17          8           0        3.407107   -3.743308    0.736484
     18          6           0        4.677782   -3.442526    1.311136
     19          6           0        5.642887   -3.948519    0.235783
     20          8           0        4.911987   -3.770234   -0.981725
     21          6           0        3.991858   -1.263900   -1.841939
     22          6           0        3.586953    0.032860   -2.191912
     23          7           0        2.442142    0.598293   -1.789132
     24          6           0        1.691113   -0.164477   -1.005891
     25          7           0        0.450201    0.202082   -0.466330
     26         16           0       -0.128011    1.851448   -0.471161
     27          8           0       -0.316057    2.243387   -1.862988
     28          8           0       -1.214034    1.897867    0.501250
     29          6           0        1.239714    2.784133    0.215592
     30          6           0        1.361305    2.867070    1.604203
     31          6           0        2.390219    3.632768    2.146473
     32          6           0        3.288133    4.327414    1.322652
     33          6           0        4.376680    5.186679    1.920328
     34          6           0        3.133632    4.230074   -0.067262
     35          6           0        2.116634    3.462296   -0.630748
     36          6           0       -1.608415   -1.418278    2.201082
     37          7           0       -2.969082   -1.471876    2.428620
     38          6           0       -3.610869   -1.851077    3.669122
     39          1           0       -7.591458    0.148250    0.995244
     40          1           0       -7.657257   -1.539147    0.401573
     41          1           0       -8.531256   -0.248690   -0.471711
     42          1           0       -5.752937   -1.129707    1.701291
     43          1           0       -2.861424    1.383565   -2.910579
     44          1           0       -2.950330   -0.258315   -3.579111
     45          1           0       -4.037149    1.017057   -4.222212
     46          1           0        0.756235   -2.872203    0.705654
     47          1           0        2.901005   -4.183492   -1.175637
     48          1           0        4.752904   -3.969558    2.264861
     49          1           0        4.787906   -2.361645    1.478222
     50          1           0        5.877882   -5.012378    0.370138
     51          1           0        6.575786   -3.377876    0.185182
     52          1           0        4.925882   -1.663722   -2.219719
     53          1           0        4.216725    0.643272   -2.835747
     54          1           0        0.653266    2.351027    2.243928
     55          1           0        2.492679    3.699677    3.226878
     56          1           0        5.252111    5.238355    1.264809
     57          1           0        4.024521    6.215281    2.075044
     58          1           0        4.700976    4.804466    2.893817
     59          1           0        3.821207    4.762065   -0.720231
     60          1           0        2.001473    3.375983   -1.703922
     61          1           0       -0.913995   -1.706298    2.978278
     62          1           0       -4.137158   -1.001543    4.121925
     63          1           0       -4.330295   -2.661794    3.503568
     64          1           0       -2.850406   -2.202926    4.369717
 ---------------------------------------------------------------------

 The electronic state is 1-A.
 Alpha  occ. eigenvalues --  -89.11226 -19.17285 -19.16444 -19.15849 -19.15612
 Alpha  occ. eigenvalues --  -19.13967 -19.13826 -14.38653 -14.38384 -14.32578
 Alpha  occ. eigenvalues --  -14.30763 -10.29102 -10.25785 -10.24664 -10.24479
 Alpha  occ. eigenvalues --  -10.24353 -10.24292 -10.23781 -10.23713 -10.23254
 Alpha  occ. eigenvalues --  -10.22036 -10.21548 -10.21322 -10.21220 -10.20896
 Alpha  occ. eigenvalues --  -10.20683 -10.20602 -10.20299 -10.20126 -10.19870
 Alpha  occ. eigenvalues --  -10.19858 -10.19686 -10.19504 -10.19312 -10.19132
 Alpha  occ. eigenvalues --  -10.18399 -10.18057 -10.17579  -8.13662  -6.10229
 Alpha  occ. eigenvalues --   -6.10051  -6.09942  -1.10716  -1.09354  -1.06623
 Alpha  occ. eigenvalues --   -1.04362  -0.99911  -0.99845  -0.98838  -0.98392
 Alpha  occ. eigenvalues --   -0.91988  -0.91300  -0.87051  -0.82562  -0.80788
 Alpha  occ. eigenvalues --   -0.79377  -0.79068  -0.77784  -0.75719  -0.75604
 Alpha  occ. eigenvalues --   -0.75011  -0.73660  -0.71156  -0.69936  -0.69174
 Alpha  occ. eigenvalues --   -0.68083  -0.66264  -0.65272  -0.63865  -0.61924
 Alpha  occ. eigenvalues --   -0.61906  -0.60814  -0.60443  -0.59322  -0.58644
 Alpha  occ. eigenvalues --   -0.56891  -0.55770  -0.54466  -0.53218  -0.52305
 Alpha  occ. eigenvalues --   -0.51495  -0.50722  -0.50484  -0.50067  -0.48447
 Alpha  occ. eigenvalues --   -0.47725  -0.47516  -0.47210  -0.47114  -0.46572
 Alpha  occ. eigenvalues --   -0.46471  -0.46095  -0.45559  -0.44969  -0.44549
 Alpha  occ. eigenvalues --   -0.44155  -0.43957  -0.43385  -0.43088  -0.43057
 Alpha  occ. eigenvalues --   -0.43025  -0.42801  -0.41914  -0.41825  -0.41125
 Alpha  occ. eigenvalues --   -0.40954  -0.40545  -0.39921  -0.39653  -0.39502
 Alpha  occ. eigenvalues --   -0.38995  -0.38489  -0.37017  -0.36958  -0.36628
 Alpha  occ. eigenvalues --   -0.36005  -0.35141  -0.35018  -0.34712  -0.34026
 Alpha  occ. eigenvalues --   -0.33745  -0.33547  -0.32488  -0.31719  -0.31192
 Alpha  occ. eigenvalues --   -0.30362  -0.30067  -0.29426  -0.28457  -0.27875
 Alpha  occ. eigenvalues --   -0.26901  -0.26800  -0.26063  -0.25641  -0.24989
 Alpha  occ. eigenvalues --   -0.24743  -0.23490  -0.22556  -0.19075  -0.18359
 Alpha virt. eigenvalues --   -0.03513  -0.02952  -0.00895  -0.00638   0.01026
 Alpha virt. eigenvalues --    0.03911   0.04712   0.05170   0.08204   0.08830
 Alpha virt. eigenvalues --    0.09024   0.09525   0.09941   0.10433   0.10839

 Mulliken charges:
               1
     1  C   -0.212106
     2  O   -0.495407
     3  C    0.305886
     4  C   -0.200157
     5  C    0.317806
     6  C    0.235683
     7  N   -0.618685
     8  C    0.521080
     9  O   -0.494310
    10  C   -0.216115
    11  C    0.053438
    12  C    0.276896
    13  C   -0.266805
    14  C    0.082938
    15  C    0.056888
    16  C    0.298329
    17  O   -0.474363
    18  C   -0.072694
    19  C   -0.032312
    20  O   -0.503616
    21  C   -0.203356
    22  C    0.029630
    23  N   -0.509304
    24  C    0.512510
    25  N   -0.745903
    26  S    1.301147
    27  O   -0.517529
    28  O   -0.533226
    29  C   -0.174760
    30  C   -0.133190
    31  C   -0.179704
    32  C    0.183519
    33  C   -0.530468
    34  C   -0.184124
    35  C   -0.101071
    36  C   -0.017246
    37  N   -0.521938
    38  C   -0.322213
    39  H    0.147897
    40  H    0.145719
    41  H    0.173122
    42  H    0.134076
    43  H    0.192930
    44  H    0.156422
    45  H    0.150330
    46  H    0.145794
    47  H    0.159199
    48  H    0.158977
    49  H    0.150405
    50  H    0.146577
    51  H    0.149143
    52  H    0.147048
    53  H    0.133920
    54  H    0.173494
    55  H    0.131935
    56  H    0.162788
    57  H    0.174072
    58  H    0.160603
    59  H    0.134479
    60  H    0.190274
    61  H    0.152076
    62  H    0.172708
    63  H    0.170089
    64  H    0.170775
 Sum of Mulliken charges =  -0.00000

 Dipole moment (field-independent basis, Debye):
    X=              2.5098    Y=             -1.6017    Z=              7.1524  Tot=              7.7473
 Quadrupole moment (field-independent basis, Debye-Ang):
   XX=           -180.5356   YY=           -212.4021   ZZ=           -207.5599
   XY=             16.2660   XZ=             -9.1637   YZ=             -5.4742

 Normal termination of Gaussian 16 at Fri Nov  4 23:39:11 2022.
