 Gaussian 16, Revision B.01,
 Gaussian 16:  ES64L-G16RevB.01 20-Dec-2017

 -------------------------------------------------------------------
 #p b3lyp/6-31g(d) 6D 10F nosymm GFInput td=(50-50,nstate=2) SCF=XQC
 -------------------------------------------------------------------

 ------------------------------
 Gaussian input prepared by ASE
 ------------------------------
 Symbolic Z-matrix:
 Charge =  0 Multiplicity = 1

                          Input orientation:
 ---------------------------------------------------------------------
 Center     Atomic      Atomic             Coordinates (Angstroms)
 Number     Number       Type             X           Y           Z
 ---------------------------------------------------------------------
      1          6           0        7.532877    1.287991    1.331012
      2          8           0        6.294796    1.285116    2.017338
      3          6           0        5.205542    0.810816    1.350951
      4          6           0        5.207786    0.314836    0.056501
      5          6           0        3.972648   -0.121923   -0.451893
      6          6           0        2.812285   -0.043910    0.339057
      7          7           0        2.819268    0.422867    1.604856
      8          6           0        3.967909    0.840003    2.085628
      9          8           0        4.046695    1.336393    3.338914
     10          6           0        2.818374    1.395496    4.072968
     11          6           0        1.719099   -0.552953   -0.447974
     12          6           0        0.343690   -0.795355   -0.033542
     13          6           0       -0.330864   -1.990241   -0.113090
     14          6           0       -1.605591   -1.839318    0.516321
     15          6           0       -2.705408   -2.672129    0.787416
     16          6           0       -2.682230   -4.142401    0.395838
     17          8           0       -2.265350   -4.337977   -0.946306
     18          6           0       -3.467830   -4.316884   -1.713710
     19          6           0       -4.448383   -5.046501   -0.791746
     20          8           0       -3.970892   -4.733762    0.520702
     21          6           0       -3.776630   -2.102823    1.473979
     22          6           0       -3.730077   -0.755587    1.862315
     23          7           0       -2.692713    0.058764    1.631564
     24          6           0       -1.679507   -0.501681    0.984537
     25          7           0       -0.484278    0.142978    0.636405
     26         16           0       -0.296852    1.879333    0.705005
     27          8           0       -0.416336    2.275789    2.103113
     28          8           0        0.887015    2.185979   -0.089734
     29          6           0       -1.716764    2.496854   -0.197613
     30          6           0       -1.639880    2.577975   -1.589523
     31          6           0       -2.718440    3.105461   -2.294846
     32          6           0       -3.864035    3.565953   -1.629246
     33          6           0       -5.012425    4.172424   -2.399882
     34          6           0       -3.906220    3.478108   -0.230778
     35          6           0       -2.841912    2.945518    0.493709
     36          6           0        2.267527   -0.924469   -1.658518
     37          7           0        3.624155   -0.668749   -1.673624
     38          6           0        4.516477   -0.870702   -2.795010
     39          1           0        7.492646    1.912870    0.427747
     40          1           0        7.842098    0.271269    1.049931
     41          1           0        8.261565    1.706654    2.027428
     42          1           0        6.116305    0.271253   -0.532782
     43          1           0        2.065744    1.984805    3.541948
     44          1           0        2.415818    0.391241    4.240955
     45          1           0        3.078743    1.863932    5.023926
     46          1           0        0.087191   -2.898379   -0.522040
     47          1           0       -1.972379   -4.691853    1.027282
     48          1           0       -3.276493   -4.828466   -2.659580
     49          1           0       -3.789731   -3.284707   -1.912049
     50          1           0       -4.416391   -6.133109   -0.944482
     51          1           0       -5.481652   -4.699406   -0.893606
     52          1           0       -4.644251   -2.708263    1.709886
     53          1           0       -4.571191   -0.313837    2.392525
     54          1           0       -0.745133    2.245572   -2.105082
     55          1           0       -2.666716    3.169145   -3.379060
     56          1           0       -5.966995    4.014605   -1.887393
     57          1           0       -4.879525    5.256507   -2.514236
     58          1           0       -5.090281    3.746802   -3.405724
     59          1           0       -4.786857    3.830356    0.300767
     60          1           0       -2.875968    2.865898    1.573022
     61          1           0        1.782299   -1.344711   -2.528666
     62          1           0        4.902611    0.083578   -3.174441
     63          1           0        5.364804   -1.503653   -2.508726
     64          1           0        3.970211   -1.369395   -3.598648
 ---------------------------------------------------------------------

 SCF Done:  E(RB3LYP) =  -2112.96185212     A.U. after   15 cycles

 Excitation energies and oscillator strengths:

 Excited state symmetry could not be determined.
 Excited State   1:      Triplet-?Sym    2.7611 eV  449.04 nm  f=0.0000  <S**2>=2.000
     138 ->141         0.17406
     138 ->142        -0.12452
     139 ->141         0.43373
     139 ->142        -0.27825
     140 ->141        -0.27920
     140 ->142         0.17454
     140 ->144         0.16233
 This state for optimization and/or second-order correction.
 Total Energy, E(TD-HF/TD-DFT) =  -2112.86038271
 Copying the excited state density for this state as the 1-particle RhoCI density.

 Excited state symmetry could not be determined.
 Excited State   2:      Triplet-?Sym    3.0883 eV  401.47 nm  f=0.0000  <S**2>=2.000
     138 ->141        -0.12390
     139 ->141        -0.22204
     139 ->142         0.13883
     140 ->141        -0.17503
     140 ->142         0.10725
     140 ->143        -0.20266
     140 ->144         0.54179

 Excited state symmetry could not be determined.
 Excited State   3:      Singlet-?Sym    3.5863 eV  345.71 nm  f=0.0121  <S**2>=0.000
     140 ->141         0.69914

 Excited state symmetry could not be determined.
 Excited State   4:      Singlet-?Sym    3.7179 eV  333.48 nm  f=0.0527  <S**2>=0.000
     139 ->141         0.54310
     139 ->142         0.12703
     140 ->142        -0.42989

 Alpha  occ. eigenvalues --  -89.11227 -19.17285 -19.16443 -19.15849 -19.15612
 Alpha  occ. eigenvalues --  -19.13968 -19.13826 -14.38653 -14.38384 -14.32577
 Alpha  occ. eigenvalues --  -14.30763 -10.29101 -10.25785 -10.24663 -10.24479
 Alpha  occ. eigenvalues --  -10.24353 -10.24292 -10.23780 -10.23713 -10.23254
 Alpha  occ. eigenvalues --  -10.22036 -10.21548 -10.21322 -10.21220 -10.20896
 Alpha  occ. eigenvalues --  -10.20683 -10.20602 -10.20299 -10.20126 -10.19870
 Alpha  occ. eigenvalues --  -10.19858 -10.19687 -10.19504 -10.19312 -10.19132
 Alpha  occ. eigenvalues --  -10.18399 -10.18057 -10.17579  -8.13663  -6.10229
 Alpha  occ. eigenvalues --   -6.10051  -6.09943  -1.10716  -1.09354  -1.06623
 Alpha  occ. eigenvalues --   -1.04362  -0.99912  -0.99845  -0.98838  -0.98392
 Alpha  occ. eigenvalues --   -0.91988  -0.91300  -0.87051  -0.82562  -0.80788
 Alpha  occ. eigenvalues --   -0.79377  -0.79068  -0.77784  -0.75719  -0.75604
 Alpha  occ. eigenvalues --   -0.75011  -0.73660  -0.71156  -0.69936  -0.69174
 Alpha  occ. eigenvalues --   -0.68083  -0.66264  -0.65272  -0.63865  -0.61924
 Alpha  occ. eigenvalues --   -0.61906  -0.60814  -0.60443  -0.59322  -0.58644
 Alpha  occ. eigenvalues --   -0.56891  -0.55770  -0.54466  -0.53218  -0.52305
 Alpha  occ. eigenvalues --   -0.51495  -0.50722  -0.50484  -0.50067  -0.48447
 Alpha  occ. eigenvalues --   -0.47725  -0.47516  -0.47210  -0.47114  -0.46572
 Alpha  occ. eigenvalues --   -0.46471  -0.46095  -0.45559  -0.44969  -0.44549
 Alpha  occ. eigenvalues --   -0.44155  -0.43958  -0.43385  -0.43088  -0.43057
 Alpha  occ. eigenvalues --   -0.43025  -0.42801  -0.41914  -0.41825  -0.41125
 Alpha  occ. eigenvalues --   -0.40954  -0.40545  -0.39921  -0.39652  -0.39502
 Alpha  occ. eigenvalues --   -0.38995  -0.38489  -0.37017  -0.36958  -0.36628
 Alpha  occ. eigenvalues --   -0.36005  -0.35141  -0.35018  -0.34712  -0.34026
 Alpha  occ. eigenvalues --   -0.33745  -0.33547  -0.32488  -0.31719  -0.31192
 Alpha  occ. eigenvalues --   -0.30362  -0.30067  -0.29426  -0.28457  -0.27875
 Alpha  occ. eigenvalues --   -0.26901  -0.26800  -0.26063  -0.25641  -0.24989
 Alpha  occ. eigenvalues --   -0.24743  -0.23490  -0.22556  -0.19075  -0.18359
 Alpha virt. eigenvalues --   -0.03513  -0.02952  -0.00896  -0.00638   0.01026
 Alpha virt. eigenvalues --    0.03911   0.04712   0.05170   0.08204   0.08830
 Alpha virt. eigenvalues --    0.09024   0.09525   0.09941   0.10433   0.10838

 Mulliken charges:
               1
     1  C   -0.212108
     2  O   -0.495404
     3  C    0.305888
     4  C   -0.200154
     5  C    0.317791
     6  C    0.235689
     7  N   -0.618686
     8  C    0.521077
     9  O   -0.494313
    10  C   -0.216116
    11  C    0.053442
    12  C    0.276891
    13  C   -0.266789
    14  C    0.082895
    15  C    0.056952
    16  C    0.298302
    17  O   -0.474349
    18  C   -0.072692
    19  C   -0.032324
    20  O   -0.503609
    21  C   -0.203381
    22  C    0.029640
    23  N   -0.509295
    24  C    0.512501
    25  N   -0.745840
    26  S    1.301000
    27  O   -0.517469
    28  O   -0.533214
    29  C   -0.174742
    30  C   -0.133197
    31  C   -0.179691
    32  C    0.183523
    33  C   -0.530472
    34  C   -0.184139
    35  C   -0.101056
    36  C   -0.017254
    37  N   -0.521937
    38  C   -0.322213
    39  H    0.147898
    40  H    0.145719
    41  H    0.173122
    42  H    0.134077
    43  H    0.192932
    44  H    0.156421
    45  H    0.150331
    46  H    0.145793
    47  H    0.159200
    48  H    0.158976
    49  H    0.150403
    50  H    0.146579
    51  H    0.149146
    52  H    0.147048
    53  H    0.133918
    54  H    0.173494
    55  H    0.131934
    56  H    0.162789
    57  H    0.174073
    58  H    0.160603
    59  H    0.134479
    60  H    0.190275
    61  H    0.152075
    62  H    0.172708
    63  H    0.170089
    64  H    0.170775
 Sum of Mulliken charges =  -0.00000

 Dipole moment (field-independent basis, Debye):
    X=             -0.9640    Y=             -1.9794    Z=             -7.4279  Tot=              7.7473
 Quadrupole moment (field-independent basis, Debye-Ang):
   XX=           -172.8164   YY=           -218.2362   ZZ=           -213.4738
   XY=             -8.0834   XZ=             -5.6499   YZ=              0.9953

 Normal termination of Gaussian 16 at Sat Nov  5 10:00:20 2022.
