 Gaussian 16, Revision B.01,
 Gaussian 16:  ES64L-G16RevB.01 20-Dec-2017

 -----------------------------
 #p b3lyp/6-31g(d) opt SCF=XQC
 -----------------------------

 ------------------------------
 Gaussian input prepared by ASE
 ------------------------------
 Symbolic Z-matrix:
 Charge =  0 Multiplicity = 1

 SCF Done:  E(RB3LYP) =  -1508.44172087     A.U. after   15 cycles
 SCF Done:  E(RB3LYP) =  -1508.44938021     A.U. after   12 cycles
 SCF Done:  E(RB3LYP) =  -1508.45020235     A.U. after   12 cycles
 SCF Done:  E(RB3LYP) =  -1508.45074592     A.U. after   12 cycles
 SCF Done:  E(RB3LYP) =  -1508.45085084     A.U. after   12 cycles
 SCF Done:  E(RB3LYP) =  -1508.45103471     A.U. after   11 cycles
 SCF Done:  E(RB3LYP) =  -1508.45105465     A.U. after   10 cycles
 SCF Done:  E(RB3LYP) =  -1508.45106014     A.U. after    9 cycles
 SCF Done:  E(RB3LYP) =  -1508.45106611     A.U. after    9 cycles
 SCF Done:  E(RB3LYP) =  -1508.45107331     A.U. after   10 cycles
 SCF Done:  E(RB3LYP) =  -1508.45107914     A.U. after   10 cycles
 SCF Done:  E(RB3LYP) =  -1508.45108239     A.U. after    9 cycles
 SCF Done:  E(RB3LYP) =  -1508.45108288     A.U. after    8 cycles
 SCF Done:  E(RB3LYP) =  -1508.45108288     A.U. after    6 cycles
 Optimization completed.
    -- Stationary point found.

                         Standard orientation:
 ---------------------------------------------------------------------
 Center     Atomic      Atomic             Coordinates (Angstroms)
 Number     Number       Type             X           Y           Z
 ---------------------------------------------------------------------
      1          6           0        9.711751    2.830946   -0.733964
      2          7           0        9.163592    1.981364    0.316828
      3          6           0        7.728304    2.145854    0.534885
      4          6           0        6.839734    1.449788   -0.519153
      5          7           0        7.221065    0.039498   -0.649255
      6          6           0        6.477619   -1.031963   -0.202776
      7          8           0        6.986128   -2.123782    0.049072
      8          6           0        4.984993   -0.870256   -0.080384
      9          6           0        4.344119   -1.480044    1.006388
     10          6           0        2.959937   -1.442237    1.127054
     11          6           0        2.163791   -0.818125    0.149519
     12          6           0        0.688607   -0.778461    0.280675
     13          6           0       -0.149210   -0.865430   -0.878359
     14          6           0       -1.509893   -0.841725   -0.780554
     15          7           0       -2.104119   -0.738001    0.454810
     16          6           0       -3.435284   -0.642686    0.851623
     17          6           0       -4.601185   -0.759672   -0.019949
     18          6           0       -4.672179   -1.656397   -1.100289
     19          6           0       -5.840504   -1.695150   -1.857894
     20          7           0       -6.921528   -0.953306   -1.612925
     21          6           0       -6.884179   -0.108555   -0.561444
     22          6           0       -8.111393    0.695240   -0.312366
     23          6           0       -8.366525    1.297492    0.930491
     24          6           0       -9.521582    2.050671    1.134883
     25          6           0      -10.444907    2.214971    0.101076
     26          6           0      -10.206956    1.612441   -1.136425
     27          6           0       -9.054703    0.857462   -1.340617
     28          6           0       -5.737382    0.024528    0.233685
     29          6           0       -3.366293   -0.458529    2.230179
     30          7           0       -2.097406   -0.443466    2.700254
     31          6           0       -1.327405   -0.607774    1.622067
     32          6           0        0.076851   -0.643328    1.513711
     33          6           0        2.810427   -0.239677   -0.955709
     34          6           0        4.198634   -0.259639   -1.066287
     35          6           0        8.654872   -0.162398   -0.893097
     36          6           0        9.493394    0.560335    0.174940
     37          1           0        9.492700    3.878463   -0.498053
     38          1           0        9.335094    2.632378   -1.754144
     39          1           0       10.800965    2.713500   -0.755628
     40          1           0        7.484257    1.721915    1.519124
     41          1           0        7.491028    3.216054    0.567339
     42          1           0        5.793495    1.524028   -0.222108
     43          1           0        6.946169    1.941030   -1.496864
     44          1           0        4.946689   -2.001678    1.743099
     45          1           0        2.483563   -1.934022    1.970201
     46          1           0        0.292888   -0.979088   -1.861406
     47          1           0       -2.170051   -0.894506   -1.635614
     48          1           0       -3.856842   -2.334544   -1.329384
     49          1           0       -5.912912   -2.374672   -2.706261
     50          1           0       -7.674984    1.159711    1.756373
     51          1           0       -9.703302    2.502720    2.106313
     52          1           0      -11.344973    2.802772    0.260445
     53          1           0      -10.921959    1.731696   -1.946302
     54          1           0       -8.864917    0.380589   -2.295716
     55          1           0       -5.701266    0.761768    1.027638
     56          1           0       -4.213656   -0.371649    2.899206
     57          1           0        0.647347   -0.525725    2.427839
     58          1           0        2.224633    0.253659   -1.726130
     59          1           0        4.672093    0.190368   -1.934374
     60          1           0        8.845482   -1.235716   -0.880679
     61          1           0        8.888964    0.226411   -1.893872
     62          1           0       10.560863    0.464523   -0.055568
     63          1           0        9.317674    0.071544    1.142528
 ---------------------------------------------------------------------

 The electronic state is 1-A.
 Alpha  occ. eigenvalues --  -19.11029 -14.42547 -14.36477 -14.33052 -14.32954
 Alpha  occ. eigenvalues --  -14.31952 -10.28692 -10.25873 -10.25273 -10.23568
 Alpha  occ. eigenvalues --  -10.23230 -10.22941 -10.22830 -10.22805 -10.22314
 Alpha  occ. eigenvalues --  -10.21866 -10.21826 -10.21603 -10.21544 -10.21362
 Alpha  occ. eigenvalues --  -10.21315 -10.21059 -10.21015 -10.20837 -10.20642
 Alpha  occ. eigenvalues --  -10.20484 -10.20402 -10.20190 -10.20186 -10.20061
 Alpha  occ. eigenvalues --  -10.19777 -10.19233 -10.19116 -10.19047 -10.18857
 Alpha  occ. eigenvalues --  -10.18512  -1.04033  -1.03031  -0.95067  -0.94579
 Alpha  occ. eigenvalues --   -0.91515  -0.90888  -0.87686  -0.85399  -0.84958
 Alpha  occ. eigenvalues --   -0.82257  -0.78497  -0.78069  -0.77115  -0.76960
 Alpha  occ. eigenvalues --   -0.75746  -0.74434  -0.74040  -0.73218  -0.72641
 Alpha  occ. eigenvalues --   -0.68312  -0.66677  -0.65886  -0.64921  -0.64771
 Alpha  occ. eigenvalues --   -0.63693  -0.61756  -0.61162  -0.60439  -0.59477
 Alpha  occ. eigenvalues --   -0.58815  -0.58417  -0.55085  -0.54496  -0.52964
 Alpha  occ. eigenvalues --   -0.51764  -0.51135  -0.50490  -0.49631  -0.48945
 Alpha  occ. eigenvalues --   -0.48131  -0.48022  -0.47387  -0.47243  -0.46954
 Alpha  occ. eigenvalues --   -0.46567  -0.46259  -0.45835  -0.45747  -0.44695
 Alpha  occ. eigenvalues --   -0.44370  -0.43923  -0.43327  -0.43202  -0.42673
 Alpha  occ. eigenvalues --   -0.42086  -0.41888  -0.41606  -0.40684  -0.40622
 Alpha  occ. eigenvalues --   -0.40264  -0.39474  -0.39053  -0.38906  -0.38324
 Alpha  occ. eigenvalues --   -0.37720  -0.36912  -0.36630  -0.36314  -0.35937
 Alpha  occ. eigenvalues --   -0.35416  -0.35231  -0.34876  -0.34764  -0.34567
 Alpha  occ. eigenvalues --   -0.34086  -0.33248  -0.30538  -0.28458  -0.27763
 Alpha  occ. eigenvalues --   -0.26741  -0.26354  -0.25853  -0.25761  -0.25237
 Alpha  occ. eigenvalues --   -0.24894  -0.24280  -0.23044  -0.20767  -0.20306
 Alpha virt. eigenvalues --   -0.06278  -0.04608  -0.03352  -0.02431  -0.01455
 Alpha virt. eigenvalues --    0.00146   0.00852   0.02716   0.04819   0.06890
 Alpha virt. eigenvalues --    0.07470   0.09043   0.09322   0.09776   0.10238

 Mulliken charges:
               1
     1  C   -0.307329
     2  N   -0.360330
     3  C   -0.141403
     4  C   -0.166950
     5  N   -0.426608
     6  C    0.515135
     7  O   -0.514868
     8  C    0.068811
     9  C   -0.157836
    10  C   -0.181210
    11  C    0.102861
    12  C    0.100042
    13  C   -0.225359
    14  C    0.063121
    15  N   -0.553900
    16  C    0.210650
    17  C    0.149072
    18  C   -0.207041
    19  C    0.042881
    20  N   -0.482732
    21  C    0.246528
    22  C    0.101453
    23  C   -0.178523
    24  C   -0.137472
    25  C   -0.122606
    26  C   -0.134210
    27  C   -0.159672
    28  C   -0.217829
    29  C   -0.045588
    30  N   -0.512404
    31  C    0.530646
    32  C   -0.239955
    33  C   -0.182158
    34  C   -0.172997
    35  C   -0.160296
    36  C   -0.149240
    37  H    0.151824
    38  H    0.122536
    39  H    0.154017
    40  H    0.148768
    41  H    0.142142
    42  H    0.168878
    43  H    0.146001
    44  H    0.158900
    45  H    0.144181
    46  H    0.151676
    47  H    0.178139
    48  H    0.142646
    49  H    0.141151
    50  H    0.128560
    51  H    0.131088
    52  H    0.130845
    53  H    0.131760
    54  H    0.156866
    55  H    0.148213
    56  H    0.148608
    57  H    0.163344
    58  H    0.135347
    59  H    0.144744
    60  H    0.192933
    61  H    0.143757
    62  H    0.142402
    63  H    0.157991
 Sum of Mulliken charges =  -0.00000

 Dipole moment (field-independent basis, Debye):
    X=              1.2345    Y=              3.1970    Z=             -2.8021  Tot=              4.4268
 Quadrupole moment (field-independent basis, Debye-Ang):
   XX=           -206.7477   YY=           -212.0154   ZZ=           -205.3430
   XY=             13.7802   XZ=            -12.5815   YZ=              0.3310

 Normal termination of Gaussian 16 at Fri Nov  4 22:08:40 2022.
