 Gaussian 16, Revision B.01,
 Gaussian 16:  ES64L-G16RevB.01 20-Dec-2017

 -------------------------------------------------------------------
 #p b3lyp/6-31g(d) 6D 10F nosymm GFInput td=(50-50,nstate=2) SCF=XQC
 -------------------------------------------------------------------

 ------------------------------
 Gaussian input prepared by ASE
 ------------------------------
 Symbolic Z-matrix:
 Charge =  0 Multiplicity = 1

                          Input orientation:
 ---------------------------------------------------------------------
 Center     Atomic      Atomic             Coordinates (Angstroms)
 Number     Number       Type             X           Y           Z
 ---------------------------------------------------------------------
      1          6           0        9.324516   -1.377266    1.936599
      2          7           0        8.709866   -1.578134    0.629583
      3          6           0        7.272015   -1.833497    0.674662
      4          6           0        6.408358   -0.574958    0.909684
      5          7           0        6.754883    0.464621   -0.065228
      6          6           0        5.963825    0.862602   -1.121601
      7          8           0        6.430605    1.403875   -2.123209
      8          6           0        4.472569    0.680613   -1.011629
      9          6           0        3.770586    0.293044   -2.160822
     10          6           0        2.384222    0.194332   -2.146645
     11          6           0        1.646878    0.508043   -0.990423
     12          6           0        0.169247    0.401371   -0.977494
     13          6           0       -0.622256    1.327783   -0.223739
     14          6           0       -1.984605    1.255203   -0.205802
     15          7           0       -2.626036    0.277610   -0.928897
     16          6           0       -3.969200   -0.064846   -1.059971
     17          6           0       -5.101057    0.672674   -0.505345
     18          6           0       -5.152719    2.076049   -0.440835
     19          6           0       -6.289488    2.676636    0.095356
     20          7           0       -7.358375    2.009279    0.532470
     21          6           0       -7.340591    0.662589    0.450488
     22          6           0       -8.553913   -0.047745    0.937784
     23          6           0       -8.842950   -1.369808    0.562151
     24          6           0       -9.983788   -2.013877    1.038465
     25          6           0      -10.858776   -1.348047    1.898318
     26          6           0      -10.587126   -0.029564    2.270985
     27          6           0       -9.449147    0.615599    1.793341
     28          6           0       -6.224214   -0.028921   -0.040021
     29          6           0       -3.951870   -1.210208   -1.851764
     30          7           0       -2.703492   -1.583127   -2.217491
     31          6           0       -1.894682   -0.683251   -1.653191
     32          6           0       -0.488713   -0.595401   -1.674933
     33          6           0        2.354494    0.930272    0.147678
     34          6           0        3.744964    1.009476    0.139745
     35          6           0        8.191263    0.764231   -0.120621
     36          6           0        9.005107   -0.522014   -0.342872
     37          1           0        9.125504   -2.253308    2.564193
     38          1           0        8.984743   -0.484031    2.492252
     39          1           0       10.409961   -1.294931    1.811381
     40          1           0        6.975817   -2.274624   -0.287462
     41          1           0        7.063816   -2.573911    1.456405
     42          1           0        5.353281   -0.832677    0.816117
     43          1           0        6.568741   -0.182295    1.923913
     44          1           0        4.327394    0.091045   -3.070271
     45          1           0        1.859886   -0.094033   -3.053065
     46          1           0       -0.143431    2.126975    0.330129
     47          1           0       -2.610222    1.931491    0.360731
     48          1           0       -4.348048    2.691930   -0.828571
     49          1           0       -6.346000    3.762300    0.165070
     50          1           0       -8.190150   -1.896804   -0.127357
     51          1           0      -10.192556   -3.034869    0.730185
     52          1           0      -11.747741   -1.850605    2.270074
     53          1           0      -11.264539    0.498301    2.937185
     54          1           0       -9.233694    1.641086    2.071903
     55          1           0       -6.200084   -1.112655   -0.028759
     56          1           0       -4.823279   -1.754178   -2.195148
     57          1           0        0.046746   -1.357947   -2.228768
     58          1           0        1.815033    1.176053    1.057983
     59          1           0        4.266240    1.344416    1.032118
     60          1           0        8.350918    1.474054   -0.932508
     61          1           0        8.477210    1.241324    0.827081
     62          1           0       10.078042   -0.299316   -0.310931
     63          1           0        8.776012   -0.908024   -1.345135
 ---------------------------------------------------------------------

 SCF Done:  E(RB3LYP) =  -1508.45108525     A.U. after   16 cycles

 Excitation energies and oscillator strengths:

 Excited state symmetry could not be determined.
 Excited State   1:      Triplet-?Sym    2.5058 eV  494.79 nm  f=0.0000  <S**2>=2.000
     124 ->126         0.60161
     124 ->127         0.10790
     124 ->129        -0.10117
     125 ->126        -0.22541
 This state for optimization and/or second-order correction.
 Total Energy, E(TD-HF/TD-DFT) =  -1508.35899885
 Copying the excited state density for this state as the 1-particle RhoCI density.

 Excited state symmetry could not be determined.
 Excited State   2:      Triplet-?Sym    3.0381 eV  408.10 nm  f=0.0000  <S**2>=2.000
     121 ->131         0.11648
     123 ->126         0.19284
     123 ->127        -0.36604
     123 ->128         0.22608
     124 ->127         0.35535
     124 ->128         0.21014
     125 ->127        -0.12378

 Excited state symmetry could not be determined.
 Excited State   3:      Singlet-?Sym    3.4229 eV  362.22 nm  f=0.3156  <S**2>=0.000
     124 ->126        -0.12990
     125 ->126         0.68443

 Excited state symmetry could not be determined.
 Excited State   4:      Singlet-?Sym    3.5326 eV  350.97 nm  f=0.5288  <S**2>=0.000
     124 ->126         0.68286
     125 ->126         0.13033

 Alpha  occ. eigenvalues --  -19.11029 -14.42547 -14.36477 -14.33052 -14.32954
 Alpha  occ. eigenvalues --  -14.31952 -10.28693 -10.25873 -10.25273 -10.23568
 Alpha  occ. eigenvalues --  -10.23230 -10.22941 -10.22830 -10.22805 -10.22314
 Alpha  occ. eigenvalues --  -10.21866 -10.21826 -10.21603 -10.21544 -10.21362
 Alpha  occ. eigenvalues --  -10.21315 -10.21059 -10.21015 -10.20837 -10.20642
 Alpha  occ. eigenvalues --  -10.20484 -10.20402 -10.20190 -10.20186 -10.20061
 Alpha  occ. eigenvalues --  -10.19777 -10.19233 -10.19116 -10.19047 -10.18857
 Alpha  occ. eigenvalues --  -10.18512  -1.04033  -1.03031  -0.95067  -0.94579
 Alpha  occ. eigenvalues --   -0.91515  -0.90888  -0.87686  -0.85399  -0.84958
 Alpha  occ. eigenvalues --   -0.82257  -0.78497  -0.78069  -0.77115  -0.76960
 Alpha  occ. eigenvalues --   -0.75746  -0.74434  -0.74040  -0.73218  -0.72641
 Alpha  occ. eigenvalues --   -0.68312  -0.66677  -0.65886  -0.64921  -0.64771
 Alpha  occ. eigenvalues --   -0.63693  -0.61756  -0.61162  -0.60439  -0.59477
 Alpha  occ. eigenvalues --   -0.58815  -0.58417  -0.55085  -0.54496  -0.52964
 Alpha  occ. eigenvalues --   -0.51764  -0.51135  -0.50490  -0.49631  -0.48945
 Alpha  occ. eigenvalues --   -0.48131  -0.48022  -0.47387  -0.47243  -0.46954
 Alpha  occ. eigenvalues --   -0.46567  -0.46259  -0.45835  -0.45747  -0.44695
 Alpha  occ. eigenvalues --   -0.44370  -0.43923  -0.43327  -0.43202  -0.42673
 Alpha  occ. eigenvalues --   -0.42086  -0.41888  -0.41606  -0.40684  -0.40622
 Alpha  occ. eigenvalues --   -0.40264  -0.39474  -0.39053  -0.38906  -0.38324
 Alpha  occ. eigenvalues --   -0.37720  -0.36912  -0.36630  -0.36314  -0.35937
 Alpha  occ. eigenvalues --   -0.35416  -0.35231  -0.34876  -0.34764  -0.34567
 Alpha  occ. eigenvalues --   -0.34086  -0.33248  -0.30538  -0.28458  -0.27763
 Alpha  occ. eigenvalues --   -0.26741  -0.26354  -0.25853  -0.25761  -0.25237
 Alpha  occ. eigenvalues --   -0.24894  -0.24280  -0.23044  -0.20767  -0.20306
 Alpha virt. eigenvalues --   -0.06278  -0.04608  -0.03352  -0.02431  -0.01455
 Alpha virt. eigenvalues --    0.00146   0.00852   0.02716   0.04819   0.06890
 Alpha virt. eigenvalues --    0.07470   0.09043   0.09322   0.09776   0.10238

 Mulliken charges:
               1
     1  C   -0.307335
     2  N   -0.360333
     3  C   -0.141418
     4  C   -0.166940
     5  N   -0.426602
     6  C    0.515125
     7  O   -0.514855
     8  C    0.068805
     9  C   -0.157831
    10  C   -0.181218
    11  C    0.102867
    12  C    0.100083
    13  C   -0.225386
    14  C    0.063132
    15  N   -0.553906
    16  C    0.210650
    17  C    0.149078
    18  C   -0.207043
    19  C    0.042881
    20  N   -0.482740
    21  C    0.246546
    22  C    0.101462
    23  C   -0.178528
    24  C   -0.137472
    25  C   -0.122603
    26  C   -0.134213
    27  C   -0.159678
    28  C   -0.217842
    29  C   -0.045589
    30  N   -0.512403
    31  C    0.530668
    32  C   -0.239999
    33  C   -0.182155
    34  C   -0.173004
    35  C   -0.160308
    36  C   -0.149224
    37  H    0.151825
    38  H    0.122539
    39  H    0.154019
    40  H    0.148772
    41  H    0.142144
    42  H    0.168877
    43  H    0.145998
    44  H    0.158900
    45  H    0.144181
    46  H    0.151676
    47  H    0.178138
    48  H    0.142645
    49  H    0.141150
    50  H    0.128560
    51  H    0.131088
    52  H    0.130845
    53  H    0.131760
    54  H    0.156867
    55  H    0.148215
    56  H    0.148607
    57  H    0.163345
    58  H    0.135347
    59  H    0.144746
    60  H    0.192934
    61  H    0.143760
    62  H    0.142399
    63  H    0.157992
 Sum of Mulliken charges =  -0.00000

 Dipole moment (field-independent basis, Debye):
    X=              1.4383    Y=             -0.0876    Z=              4.1857  Tot=              4.4268
 Quadrupole moment (field-independent basis, Debye-Ang):
   XX=           -206.3367   YY=           -208.0444   ZZ=           -212.6418
   XY=              0.3688   XZ=             16.1945   YZ=              3.4759

 Normal termination of Gaussian 16 at Sat Nov  5 09:45:54 2022.
