 Gaussian 16, Revision B.01,
 Gaussian 16:  ES64L-G16RevB.01 20-Dec-2017

 -----------------------------
 #p b3lyp/6-31g(d) opt SCF=XQC
 -----------------------------

 ------------------------------
 Gaussian input prepared by ASE
 ------------------------------
 Symbolic Z-matrix:
 Charge =  0 Multiplicity = 1

 SCF Done:  E(RB3LYP) =  -1191.54474846     A.U. after   15 cycles
 SCF Done:  E(RB3LYP) =  -1191.54637781     A.U. after   14 cycles
 SCF Done:  E(RB3LYP) =  -1191.54831226     A.U. after   14 cycles
 SCF Done:  E(RB3LYP) =  -1191.55563756     A.U. after   15 cycles
 SCF Done:  E(RB3LYP) =  -1191.55764117     A.U. after   12 cycles
 SCF Done:  E(RB3LYP) =  -1191.55886234     A.U. after   14 cycles
 SCF Done:  E(RB3LYP) =  -1191.55958379     A.U. after   11 cycles
 SCF Done:  E(RB3LYP) =  -1191.55985040     A.U. after   12 cycles
 SCF Done:  E(RB3LYP) =  -1191.56000347     A.U. after   11 cycles
 SCF Done:  E(RB3LYP) =  -1191.56013027     A.U. after   11 cycles
 SCF Done:  E(RB3LYP) =  -1191.56065142     A.U. after   14 cycles
 SCF Done:  E(RB3LYP) =  -1191.56068176     A.U. after   10 cycles
 SCF Done:  E(RB3LYP) =  -1191.56077001     A.U. after   12 cycles
 SCF Done:  E(RB3LYP) =  -1191.56077365     A.U. after   11 cycles
 SCF Done:  E(RB3LYP) =  -1191.56077748     A.U. after   10 cycles
 SCF Done:  E(RB3LYP) =  -1191.56077871     A.U. after    9 cycles
 SCF Done:  E(RB3LYP) =  -1191.56077931     A.U. after    8 cycles
 SCF Done:  E(RB3LYP) =  -1191.56077942     A.U. after    9 cycles
 SCF Done:  E(RB3LYP) =  -1191.56077943     A.U. after    7 cycles
 SCF Done:  E(RB3LYP) =  -1191.56077945     A.U. after    7 cycles
 Optimization completed.
    -- Stationary point found.

                         Standard orientation:
 ---------------------------------------------------------------------
 Center     Atomic      Atomic             Coordinates (Angstroms)
 Number     Number       Type             X           Y           Z
 ---------------------------------------------------------------------
      1          6           0        6.909226   -0.237590    0.216936
      2          6           0        5.439793   -0.583854    0.229994
      3          6           0        4.970975   -1.654301    1.040853
      4          6           0        3.639301   -1.996382    1.067948
      5          6           0        2.685383   -1.293535    0.283201
      6          6           0        1.302705   -1.635245    0.244546
      7          8           0        0.820334   -2.731156    0.917514
      8          6           0        0.387591   -0.880283   -0.477832
      9          8           0       -0.936758   -1.240838   -0.563426
     10          6           0       -1.682768   -1.274759    0.668240
     11          6           0       -3.147176   -1.465051    0.351890
     12          6           0       -4.116685   -0.975827    1.236898
     13          6           0       -5.474545   -1.186771    0.993162
     14          6           0       -5.880174   -1.883026   -0.146684
     15          6           0       -4.919525   -2.367870   -1.036296
     16          6           0       -3.561235   -2.164819   -0.788082
     17          6           0        0.850932    0.231322   -1.247823
     18          8           0        0.045769    0.952224   -2.091322
     19          6           0       -1.224822    1.470321   -1.657780
     20          6           0       -1.128436    2.489169   -0.541416
     21          6           0       -0.095192    3.434869   -0.513984
     22          6           0       -0.042207    4.397143    0.493428
     23          6           0       -1.028096    4.434926    1.482880
     24          6           0       -2.064837    3.501814    1.459441
     25          6           0       -2.110410    2.531600    0.455508
     26          6           0        2.196085    0.541262   -1.271840
     27          6           0        3.136242   -0.198588   -0.519467
     28          6           0        4.522198    0.119368   -0.521634
     29          1           0        7.113287    0.615837   -0.436974
     30          1           0        7.515463   -1.082136   -0.135220
     31          1           0        7.269046    0.016081    1.222329
     32          1           0        5.679533   -2.202401    1.657559
     33          1           0        3.321972   -2.795820    1.735096
     34          1           0        1.557117   -3.334588    1.095679
     35          1           0       -1.525452   -0.337167    1.217320
     36          1           0       -1.312577   -2.095892    1.291179
     37          1           0       -3.806559   -0.428284    2.124812
     38          1           0       -6.214326   -0.800253    1.689384
     39          1           0       -6.937168   -2.043155   -0.341987
     40          1           0       -5.227652   -2.908099   -1.927805
     41          1           0       -2.813878   -2.537356   -1.480807
     42          1           0       -1.613627    1.943717   -2.566276
     43          1           0       -1.899776    0.656941   -1.387696
     44          1           0        0.670078    3.407630   -1.284011
     45          1           0        0.768225    5.121474    0.505707
     46          1           0       -0.986608    5.186569    2.266775
     47          1           0       -2.835826    3.523212    2.225458
     48          1           0       -2.919620    1.804466    0.442088
     49          1           0        2.522654    1.373535   -1.887099
     50          1           0        4.854997    0.950487   -1.140160
 ---------------------------------------------------------------------

 The electronic state is 1-A.
 Alpha  occ. eigenvalues --  -19.18261 -19.16592 -19.16310 -10.24920 -10.24304
 Alpha  occ. eigenvalues --  -10.23884 -10.23546 -10.23231 -10.19653 -10.19605
 Alpha  occ. eigenvalues --  -10.19601 -10.19593 -10.19563 -10.19233 -10.18959
 Alpha  occ. eigenvalues --  -10.18903 -10.18815 -10.18793 -10.18770 -10.18746
 Alpha  occ. eigenvalues --  -10.18706 -10.18689 -10.18667 -10.18442 -10.18422
 Alpha  occ. eigenvalues --  -10.18411 -10.18388 -10.17508  -1.06916  -1.05155
 Alpha  occ. eigenvalues --   -1.03619  -0.86820  -0.85275  -0.85062  -0.82017
 Alpha  occ. eigenvalues --   -0.77537  -0.77271  -0.76208  -0.74486  -0.74040
 Alpha  occ. eigenvalues --   -0.74023  -0.72283  -0.69376  -0.67448  -0.67056
 Alpha  occ. eigenvalues --   -0.62594  -0.60702  -0.60163  -0.60001  -0.59469
 Alpha  occ. eigenvalues --   -0.58098  -0.57738  -0.54468  -0.52626  -0.51489
 Alpha  occ. eigenvalues --   -0.51397  -0.50922  -0.48710  -0.46839  -0.46479
 Alpha  occ. eigenvalues --   -0.46406  -0.46273  -0.45572  -0.44800  -0.44102
 Alpha  occ. eigenvalues --   -0.43467  -0.43244  -0.42838  -0.42167  -0.41916
 Alpha  occ. eigenvalues --   -0.41689  -0.41530  -0.41119  -0.40881  -0.39614
 Alpha  occ. eigenvalues --   -0.38714  -0.37761  -0.36634  -0.36325  -0.35756
 Alpha  occ. eigenvalues --   -0.35570  -0.35304  -0.34433  -0.34175  -0.34014
 Alpha  occ. eigenvalues --   -0.33693  -0.33332  -0.32605  -0.31161  -0.28051
 Alpha  occ. eigenvalues --   -0.27547  -0.26073  -0.24772  -0.24688  -0.24248
 Alpha  occ. eigenvalues --   -0.23788  -0.21679  -0.19369
 Alpha virt. eigenvalues --   -0.02995  -0.00613  -0.00173  -0.00004   0.00072
 Alpha virt. eigenvalues --    0.00411   0.04399   0.05898   0.09123   0.09484
 Alpha virt. eigenvalues --    0.09851   0.10257   0.11067   0.12340   0.12613

 Mulliken charges:
               1
     1  C   -0.532709
     2  C    0.183630
     3  C   -0.184074
     4  C   -0.217422
     5  C    0.121315
     6  C    0.193200
     7  O   -0.651649
     8  C    0.295413
     9  O   -0.549281
    10  C   -0.101495
    11  C    0.109707
    12  C   -0.184496
    13  C   -0.130542
    14  C   -0.127743
    15  C   -0.132522
    16  C   -0.163115
    17  C    0.356240
    18  O   -0.543955
    19  C   -0.118957
    20  C    0.123385
    21  C   -0.163506
    22  C   -0.129067
    23  C   -0.127966
    24  C   -0.131518
    25  C   -0.195594
    26  C   -0.285723
    27  C    0.164780
    28  C   -0.271644
    29  H    0.157166
    30  H    0.161549
    31  H    0.161113
    32  H    0.121539
    33  H    0.114258
    34  H    0.417049
    35  H    0.147620
    36  H    0.188641
    37  H    0.125391
    38  H    0.129304
    39  H    0.128782
    40  H    0.131124
    41  H    0.152312
    42  H    0.162635
    43  H    0.178166
    44  H    0.139354
    45  H    0.129512
    46  H    0.128445
    47  H    0.127869
    48  H    0.138617
    49  H    0.131232
    50  H    0.123629
 Sum of Mulliken charges =  -0.00000

 Dipole moment (field-independent basis, Debye):
    X=              0.7912    Y=             -0.2625    Z=              1.9018  Tot=              2.0765
 Quadrupole moment (field-independent basis, Debye-Ang):
   XX=           -140.1088   YY=           -152.6826   ZZ=           -159.2342
   XY=             -2.1002   XZ=              0.7111   YZ=             -1.0838

 1\1\GINC-NODE29\FOpt\RB3LYP\6-31G(d)\C25H22O3\WYKGROUP\04-Nov-2022\0\\
 #p b3lyp/6-31g(d) opt SCF=XQC\\Gaussian input prepared by ASE\\0,1\C,-
 4.0351099006,5.3833102006,-1.3903295927\C,-2.8590069368,4.502721689,-1
 .0429835093\C,-1.8871124773,4.9543917742,-0.1078067108\C,-0.8022456388
 ,4.176728316,0.2229691202\C,-0.6129810132,2.8951807654,-0.361493119\C,
 0.5145004063,2.06954425,-0.0837006301\O,1.5377519095,2.5077503607,0.72
 09871235\C,0.6291850597,0.792543078,-0.6178768125\O,1.7427951294,0.016
 213231,-0.3978516512\C,2.0229822694,-0.3475234973,0.9673856717\C,3.132

 Normal termination of Gaussian 16 at Fri Nov  4 22:28:06 2022.
