 Gaussian 16, Revision B.01,
 Gaussian 16:  ES64L-G16RevB.01 20-Dec-2017

 -------------------------------------------------------------------
 #p b3lyp/6-31g(d) 6D 10F nosymm GFInput td=(50-50,nstate=2) SCF=XQC
 -------------------------------------------------------------------

 ------------------------------
 Gaussian input prepared by ASE
 ------------------------------
 Symbolic Z-matrix:
 Charge =  0 Multiplicity = 1

                          Input orientation:
 ---------------------------------------------------------------------
 Center     Atomic      Atomic             Coordinates (Angstroms)
 Number     Number       Type             X           Y           Z
 ---------------------------------------------------------------------
      1          6           0       -4.035110    5.383310   -1.390330
      2          6           0       -2.859007    4.502722   -1.042984
      3          6           0       -1.887112    4.954392   -0.107807
      4          6           0       -0.802246    4.176728    0.222969
      5          6           0       -0.612981    2.895181   -0.361493
      6          6           0        0.514500    2.069544   -0.083701
      7          8           0        1.537752    2.507750    0.720987
      8          6           0        0.629185    0.792543   -0.617877
      9          8           0        1.742795    0.016213   -0.397852
     10          6           0        2.022982   -0.347523    0.967386
     11          6           0        3.132765   -1.371635    0.986305
     12          6           0        3.210936   -2.289473    2.041761
     13          6           0        4.257908   -3.209807    2.109019
     14          6           0        5.236348   -3.229398    1.113617
     15          6           0        5.161120   -2.321697    0.055435
     16          6           0        4.119153   -1.395324   -0.007241
     17          6           0       -0.377723    0.316097   -1.513628
     18          8           0       -0.284751   -0.873554   -2.188582
     19          6           0        0.035356   -2.100777   -1.508698
     20          6           0       -0.993452   -2.524684   -0.481339
     21          6           0       -2.363532   -2.352077   -0.717518
     22          6           0       -3.303566   -2.787759    0.215315
     23          6           0       -2.887845   -3.412577    1.393957
     24          6           0       -1.525894   -3.595344    1.634299
     25          6           0       -0.584990   -3.148483    0.703552
     26          6           0       -1.446922    1.125017   -1.843083
     27          6           0       -1.593834    2.415407   -1.285724
     28          6           0       -2.698247    3.252974   -1.603102
     29          1           0       -4.703184    4.894502   -2.106096
     30          1           0       -3.706434    6.332474   -1.832886
     31          1           0       -4.623826    5.634038   -0.498600
     32          1           0       -2.013545    5.927877    0.360312
     33          1           0       -0.107278    4.547492    0.974260
     34          1           0        1.510691    3.475560    0.757517
     35          1           0        1.114937   -0.754178    1.431501
     36          1           0        2.314604    0.548016    1.526243
     37          1           0        2.448433   -2.281942    2.818231
     38          1           0        4.303892   -3.915683    2.934260
     39          1           0        6.049171   -3.949227    1.160380
     40          1           0        5.917400   -2.332943   -0.725265
     41          1           0        4.057176   -0.692246   -0.831277
     42          1           0        0.069747   -2.827285   -2.328235
     43          1           0        1.030891   -2.046625   -1.065897
     44          1           0       -2.687483   -1.868707   -1.634431
     45          1           0       -4.363296   -2.642473    0.021746
     46          1           0       -3.621667   -3.753245    2.119650
     47          1           0       -1.193239   -4.079829    2.548781
     48          1           0        0.476318   -3.291210    0.895852
     49          1           0       -2.181567    0.747473   -2.547090
     50          1           0       -3.435327    2.880393   -2.311610
 ---------------------------------------------------------------------

 SCF Done:  E(RB3LYP) =  -1191.56077618     A.U. after   14 cycles

 Excitation energies and oscillator strengths:

 Excited state symmetry could not be determined.
 Excited State   1:      Triplet-?Sym    2.5936 eV  478.04 nm  f=0.0000  <S**2>=2.000
      92 ->105        -0.10032
      97 ->100         0.13292
      98 -> 99         0.66981
 This state for optimization and/or second-order correction.
 Total Energy, E(TD-HF/TD-DFT) =  -1191.46546262
 Copying the excited state density for this state as the 1-particle RhoCI density.

 Excited state symmetry could not be determined.
 Excited State   2:      Triplet-?Sym    3.6637 eV  338.41 nm  f=0.0000  <S**2>=2.000
      97 -> 99         0.57129
      98 ->100         0.33656
      98 ->102         0.12488
      98 ->104         0.13543

 Excited state symmetry could not be determined.
 Excited State   3:      Singlet-?Sym    4.0189 eV  308.51 nm  f=0.0351  <S**2>=0.000
      97 ->100         0.10146
      98 -> 99         0.68688

 Excited state symmetry could not be determined.
 Excited State   4:      Singlet-?Sym    4.1494 eV  298.80 nm  f=0.0000  <S**2>=0.000
      97 -> 99         0.49832
      98 ->100        -0.43890
      98 ->102        -0.13822
      98 ->104        -0.14735

 Alpha  occ. eigenvalues --  -19.18261 -19.16592 -19.16310 -10.24920 -10.24304
 Alpha  occ. eigenvalues --  -10.23884 -10.23546 -10.23231 -10.19653 -10.19605
 Alpha  occ. eigenvalues --  -10.19601 -10.19593 -10.19563 -10.19232 -10.18959
 Alpha  occ. eigenvalues --  -10.18903 -10.18815 -10.18793 -10.18770 -10.18746
 Alpha  occ. eigenvalues --  -10.18706 -10.18689 -10.18667 -10.18442 -10.18422
 Alpha  occ. eigenvalues --  -10.18411 -10.18388 -10.17508  -1.06916  -1.05155
 Alpha  occ. eigenvalues --   -1.03619  -0.86820  -0.85274  -0.85062  -0.82017
 Alpha  occ. eigenvalues --   -0.77537  -0.77271  -0.76208  -0.74486  -0.74040
 Alpha  occ. eigenvalues --   -0.74023  -0.72283  -0.69376  -0.67448  -0.67056
 Alpha  occ. eigenvalues --   -0.62594  -0.60702  -0.60163  -0.60001  -0.59469
 Alpha  occ. eigenvalues --   -0.58098  -0.57738  -0.54468  -0.52626  -0.51489
 Alpha  occ. eigenvalues --   -0.51397  -0.50921  -0.48710  -0.46839  -0.46479
 Alpha  occ. eigenvalues --   -0.46406  -0.46273  -0.45572  -0.44800  -0.44102
 Alpha  occ. eigenvalues --   -0.43466  -0.43244  -0.42838  -0.42167  -0.41916
 Alpha  occ. eigenvalues --   -0.41689  -0.41530  -0.41119  -0.40881  -0.39614
 Alpha  occ. eigenvalues --   -0.38714  -0.37761  -0.36634  -0.36325  -0.35756
 Alpha  occ. eigenvalues --   -0.35570  -0.35303  -0.34433  -0.34174  -0.34014
 Alpha  occ. eigenvalues --   -0.33693  -0.33332  -0.32605  -0.31161  -0.28051
 Alpha  occ. eigenvalues --   -0.27547  -0.26073  -0.24772  -0.24688  -0.24248
 Alpha  occ. eigenvalues --   -0.23788  -0.21679  -0.19369
 Alpha virt. eigenvalues --   -0.02995  -0.00613  -0.00173  -0.00004   0.00072
 Alpha virt. eigenvalues --    0.00411   0.04399   0.05898   0.09123   0.09484
 Alpha virt. eigenvalues --    0.09851   0.10257   0.11068   0.12340   0.12613

 Mulliken charges:
               1
     1  C   -0.532713
     2  C    0.183631
     3  C   -0.184071
     4  C   -0.217426
     5  C    0.121319
     6  C    0.193209
     7  O   -0.651650
     8  C    0.295423
     9  O   -0.549286
    10  C   -0.101489
    11  C    0.109741
    12  C   -0.184529
    13  C   -0.130522
    14  C   -0.127747
    15  C   -0.132516
    16  C   -0.163132
    17  C    0.356223
    18  O   -0.543954
    19  C   -0.118954
    20  C    0.123393
    21  C   -0.163512
    22  C   -0.129072
    23  C   -0.127965
    24  C   -0.131517
    25  C   -0.195588
    26  C   -0.285730
    27  C    0.164780
    28  C   -0.271643
    29  H    0.157167
    30  H    0.161549
    31  H    0.161114
    32  H    0.121537
    33  H    0.114258
    34  H    0.417048
    35  H    0.147618
    36  H    0.188641
    37  H    0.125390
    38  H    0.129304
    39  H    0.128781
    40  H    0.131123
    41  H    0.152311
    42  H    0.162635
    43  H    0.178161
    44  H    0.139352
    45  H    0.129513
    46  H    0.128445
    47  H    0.127871
    48  H    0.138615
    49  H    0.131235
    50  H    0.123629
 Sum of Mulliken charges =  -0.00000

 Dipole moment (field-independent basis, Debye):
    X=             -0.6148    Y=              1.0350    Z=              1.6919  Tot=              2.0765
 Quadrupole moment (field-independent basis, Debye-Ang):
   XX=           -150.2823   YY=           -143.3130   ZZ=           -158.9122
   XY=             -5.3900   XZ=              3.0473   YZ=             -2.1249

 Normal termination of Gaussian 16 at Sat Nov  5 09:42:21 2022.
