 Gaussian 16, Revision B.01,
 Gaussian 16:  ES64L-G16RevB.01 20-Dec-2017

 -----------------------------
 #p b3lyp/6-31g(d) opt SCF=XQC
 -----------------------------

 ------------------------------
 Gaussian input prepared by ASE
 ------------------------------
 Symbolic Z-matrix:
 Charge =  0 Multiplicity = 1

 SCF Done:  E(RB3LYP) =  -1110.34999749     A.U. after   15 cycles
 SCF Done:  E(RB3LYP) =  -1110.35335718     A.U. after   15 cycles
 SCF Done:  E(RB3LYP) =  -1110.35526746     A.U. after   15 cycles
 SCF Done:  E(RB3LYP) =  -1110.35692175     A.U. after   12 cycles
 SCF Done:  E(RB3LYP) =  -1110.35677808     A.U. after   12 cycles
 SCF Done:  E(RB3LYP) =  -1110.35734283     A.U. after   12 cycles
 SCF Done:  E(RB3LYP) =  -1110.35750998     A.U. after   12 cycles
 SCF Done:  E(RB3LYP) =  -1110.35769169     A.U. after   12 cycles
 SCF Done:  E(RB3LYP) =  -1110.35775196     A.U. after   12 cycles
 SCF Done:  E(RB3LYP) =  -1110.35779497     A.U. after   10 cycles
 SCF Done:  E(RB3LYP) =  -1110.35781515     A.U. after   11 cycles
 SCF Done:  E(RB3LYP) =  -1110.35782244     A.U. after    9 cycles
 SCF Done:  E(RB3LYP) =  -1110.35782732     A.U. after    9 cycles
 SCF Done:  E(RB3LYP) =  -1110.35782914     A.U. after    9 cycles
 SCF Done:  E(RB3LYP) =  -1110.35783109     A.U. after    8 cycles
 SCF Done:  E(RB3LYP) =  -1110.35783164     A.U. after    8 cycles
 SCF Done:  E(RB3LYP) =  -1110.35783176     A.U. after    7 cycles
 SCF Done:  E(RB3LYP) =  -1110.35783188     A.U. after    7 cycles
 SCF Done:  E(RB3LYP) =  -1110.35783192     A.U. after    6 cycles
 Optimization completed.
    -- Stationary point found.

                         Standard orientation:
 ---------------------------------------------------------------------
 Center     Atomic      Atomic             Coordinates (Angstroms)
 Number     Number       Type             X           Y           Z
 ---------------------------------------------------------------------
      1          6           0        1.634210   -3.005821    1.921299
      2          7           0        2.009260   -3.263789    0.537754
      3          6           0        3.167589   -4.131320    0.360867
      4          6           0        1.726752   -2.392651   -0.481314
      5          8           0        2.329779   -2.377258   -1.547569
      6          6           0        0.498659   -1.502320   -0.345021
      7          6           0       -0.737841   -2.040700   -0.404745
      8          6           0       -2.031904   -1.339644   -0.571543
      9          6           0       -2.862197   -1.763554   -1.600784
     10          6           0       -4.098126   -1.138825   -1.869838
     11          6           0       -4.519551   -0.080860   -1.097999
     12          6           0       -3.733544    0.371308   -0.006387
     13          6           0       -4.175241    1.437093    0.824771
     14          6           0       -3.435553    1.846442    1.909519
     15          6           0       -2.219669    1.191662    2.219479
     16          6           0       -1.757703    0.162219    1.429023
     17          6           0       -2.479877   -0.269657    0.280982
     18          7           0        0.735577   -0.125652   -0.441516
     19          6           0        1.870693    0.489445    0.043767
     20          8           0        2.742079   -0.141295    0.634010
     21          6           0        1.981259    1.963960   -0.202984
     22          6           0        3.270662    2.513555   -0.219260
     23          6           0        3.451977    3.876207   -0.440840
     24          6           0        2.345528    4.708376   -0.629692
     25          6           0        1.057210    4.172379   -0.590571
     26          6           0        0.873427    2.805790   -0.380139
     27          1           0        1.458377   -3.957584    2.435270
     28          1           0        2.427057   -2.456736    2.447324
     29          1           0        0.718258   -2.417958    1.961213
     30          1           0        3.296773   -4.338787   -0.700661
     31          1           0        3.005571   -5.065740    0.908736
     32          1           0        4.082979   -3.653494    0.737986
     33          1           0       -0.778656   -3.125836   -0.469403
     34          1           0       -2.535049   -2.585367   -2.232677
     35          1           0       -4.707580   -1.493538   -2.696407
     36          1           0       -5.465570    0.414225   -1.303373
     37          1           0       -5.121627    1.918469    0.589403
     38          1           0       -3.787443    2.660163    2.537727
     39          1           0       -1.650715    1.497654    3.093216
     40          1           0       -0.834990   -0.343270    1.689085
     41          1           0        0.031654    0.433502   -0.904057
     42          1           0        4.115482    1.852183   -0.058512
     43          1           0        4.455969    4.290944   -0.464235
     44          1           0        2.486517    5.772536   -0.798863
     45          1           0        0.192794    4.818381   -0.716623
     46          1           0       -0.139090    2.416257   -0.311862
 ---------------------------------------------------------------------

 The electronic state is 1-A.
 Alpha  occ. eigenvalues --  -19.12134 -19.10262 -14.37677 -14.35664 -10.29601
 Alpha  occ. eigenvalues --  -10.28077 -10.23934 -10.21165 -10.20952 -10.20718
 Alpha  occ. eigenvalues --  -10.20675 -10.20490 -10.20484 -10.20387 -10.20121
 Alpha  occ. eigenvalues --  -10.20003 -10.19769 -10.19741 -10.19724 -10.19698
 Alpha  occ. eigenvalues --  -10.19668 -10.19662 -10.19638 -10.19637 -10.19567
 Alpha  occ. eigenvalues --  -10.19476  -1.04328  -1.02223  -0.93987  -0.92407
 Alpha  occ. eigenvalues --   -0.87915  -0.86258  -0.82888  -0.80076  -0.77285
 Alpha  occ. eigenvalues --   -0.75497  -0.75246  -0.74543  -0.72690  -0.71249
 Alpha  occ. eigenvalues --   -0.68681  -0.65545  -0.63112  -0.62016  -0.61741
 Alpha  occ. eigenvalues --   -0.61165  -0.59316  -0.58051  -0.54631  -0.53363
 Alpha  occ. eigenvalues --   -0.51902  -0.51616  -0.50549  -0.49544  -0.48942
 Alpha  occ. eigenvalues --   -0.46672  -0.46514  -0.45948  -0.45540  -0.44779
 Alpha  occ. eigenvalues --   -0.44351  -0.43257  -0.42963  -0.42328  -0.41872
 Alpha  occ. eigenvalues --   -0.41652  -0.41530  -0.40561  -0.39714  -0.39350
 Alpha  occ. eigenvalues --   -0.39216  -0.38989  -0.37801  -0.37122  -0.36624
 Alpha  occ. eigenvalues --   -0.36399  -0.36072  -0.35095  -0.34445  -0.33695
 Alpha  occ. eigenvalues --   -0.33231  -0.31434  -0.29325  -0.26627  -0.26056
 Alpha  occ. eigenvalues --   -0.25292  -0.25045  -0.24951  -0.23637  -0.22856
 Alpha  occ. eigenvalues --   -0.20885
 Alpha virt. eigenvalues --   -0.05408  -0.03905  -0.01554  -0.00979  -0.00063
 Alpha virt. eigenvalues --    0.03488   0.04149   0.07108   0.08181   0.08648
 Alpha virt. eigenvalues --    0.09324   0.09767   0.10782   0.11019   0.12123

 Mulliken charges:
               1
     1  C   -0.313785
     2  N   -0.401786
     3  C   -0.314028
     4  C    0.562173
     5  O   -0.508078
     6  C    0.267828
     7  C   -0.276359
     8  C    0.078384
     9  C   -0.186097
    10  C   -0.132590
    11  C   -0.190045
    12  C    0.136545
    13  C   -0.195545
    14  C   -0.133278
    15  C   -0.140896
    16  C   -0.199075
    17  C    0.054830
    18  N   -0.683145
    19  C    0.570936
    20  O   -0.517773
    21  C    0.064752
    22  C   -0.148539
    23  C   -0.136792
    24  C   -0.118818
    25  C   -0.135659
    26  C   -0.189572
    27  H    0.149645
    28  H    0.170944
    29  H    0.173934
    30  H    0.194204
    31  H    0.145443
    32  H    0.162129
    33  H    0.155106
    34  H    0.138544
    35  H    0.135552
    36  H    0.132549
    37  H    0.132261
    38  H    0.133246
    39  H    0.136440
    40  H    0.153891
    41  H    0.346967
    42  H    0.166247
    43  H    0.139291
    44  H    0.136902
    45  H    0.137504
    46  H    0.145616
 Sum of Mulliken charges =  -0.00000

 Dipole moment (field-independent basis, Debye):
    X=             -2.9913    Y=              1.8685    Z=              1.4368  Tot=              3.8084
 Quadrupole moment (field-independent basis, Debye-Ang):
   XX=           -144.9241   YY=           -130.2409   ZZ=           -150.5548
   XY=              0.8956   XZ=              8.2508   YZ=             -5.4442

 Normal termination of Gaussian 16 at Fri Nov  4 09:12:41 2022.
