 Gaussian 16, Revision B.01,
 Gaussian 16:  ES64L-G16RevB.01 20-Dec-2017

 -------------------------------------------------------------------
 #p b3lyp/6-31g(d) 6D 10F nosymm GFInput td=(50-50,nstate=2) SCF=XQC
 -------------------------------------------------------------------

 ------------------------------
 Gaussian input prepared by ASE
 ------------------------------
 Symbolic Z-matrix:
 Charge =  0 Multiplicity = 1

                          Input orientation:
 ---------------------------------------------------------------------
 Center     Atomic      Atomic             Coordinates (Angstroms)
 Number     Number       Type             X           Y           Z
 ---------------------------------------------------------------------
      1          6           0       -1.182061    3.654202    0.363394
      2          7           0       -0.417454    3.474138    1.589917
      3          6           0        0.045075    4.705601    2.218561
      4          6           0        0.297257    2.336192    1.857234
      5          8           0        1.224935    2.289536    2.655993
      6          6           0       -0.185225    1.025893    1.249119
      7          6           0       -1.331316    0.459671    1.682962
      8          6           0       -1.822525   -0.915033    1.432362
      9          6           0       -2.175099   -1.680535    2.536047
     10          6           0       -2.617783   -3.014118    2.410410
     11          6           0       -2.719705   -3.593587    1.166846
     12          6           0       -2.412659   -2.848596   -0.001311
     13          6           0       -2.552080   -3.421352   -1.295270
     14          6           0       -2.297700   -2.686330   -2.429472
     15          6           0       -1.903772   -1.331635   -2.316293
     16          6           0       -1.749240   -0.748715   -1.077621
     17          6           0       -1.973990   -1.485470    0.119346
     18          7           0        0.748974    0.345448    0.458598
     19          6           0        1.668589    0.978252   -0.351464
     20          8           0        1.699191    2.200251   -0.457834
     21          6           0        2.631086    0.089318   -1.079958
     22          6           0        3.855742    0.653171   -1.463580
     23          6           0        4.799369   -0.110865   -2.145205
     24          6           0        4.522029   -1.441754   -2.468029
     25          6           0        3.294876   -2.003050   -2.110774
     26          6           0        2.352480   -1.243177   -1.417878
     27          1           0       -2.039910    4.306983    0.560646
     28          1           0       -0.562340    4.106262   -0.422985
     29          1           0       -1.553657    2.695056    0.005485
     30          1           0        0.512357    4.463386    3.172265
     31          1           0       -0.809154    5.372267    2.377934
     32          1           0        0.783632    5.220467    1.587749
     33          1           0       -1.898458    1.036917    2.409945
     34          1           0       -2.081378   -1.244343    3.527331
     35          1           0       -2.867030   -3.580911    3.303211
     36          1           0       -3.049978   -4.623968    1.059729
     37          1           0       -2.876148   -4.456777   -1.370391
     38          1           0       -2.411821   -3.136477   -3.411796
     39          1           0       -1.730641   -0.744310   -3.213974
     40          1           0       -1.466074    0.294939   -1.005817
     41          1           0        0.743704   -0.664577    0.502508
     42          1           0        4.046403    1.691570   -1.213884
     43          1           0        5.750918    0.331310   -2.427317
     44          1           0        5.256753   -2.037197   -3.003345
     45          1           0        3.066277   -3.031239   -2.377218
     46          1           0        1.387551   -1.686815   -1.186176
 ---------------------------------------------------------------------

 SCF Done:  E(RB3LYP) =  -1110.35783149     A.U. after   16 cycles

 Excitation energies and oscillator strengths:

 Excited state symmetry could not be determined.
 Excited State   1:      Triplet-?Sym    2.4855 eV  498.83 nm  f=0.0000  <S**2>=2.000
      88 -> 94         0.12953
      89 -> 93         0.10074
      90 -> 92        -0.16200
      90 -> 93         0.10472
      91 -> 92         0.61385
      91 -> 93        -0.16060
 This state for optimization and/or second-order correction.
 Total Energy, E(TD-HF/TD-DFT) =  -1110.26649173
 Copying the excited state density for this state as the 1-particle RhoCI density.

 Excited state symmetry could not be determined.
 Excited State   2:      Triplet-?Sym    3.1428 eV  394.50 nm  f=0.0000  <S**2>=2.000
      89 -> 92         0.34760
      90 -> 92         0.28999
      91 -> 92         0.19361
      91 -> 93         0.32288
      91 -> 95         0.11195
      91 -> 96        -0.26528

 Excited state symmetry could not be determined.
 Excited State   3:      Singlet-?Sym    3.7238 eV  332.95 nm  f=0.2214  <S**2>=0.000
      91 -> 92         0.68774

 Excited state symmetry could not be determined.
 Excited State   4:      Singlet-?Sym    4.0620 eV  305.23 nm  f=0.0167  <S**2>=0.000
      89 -> 92        -0.17427
      90 -> 92        -0.23168
      91 -> 93         0.63648

 Alpha  occ. eigenvalues --  -19.12134 -19.10262 -14.37677 -14.35664 -10.29601
 Alpha  occ. eigenvalues --  -10.28077 -10.23934 -10.21165 -10.20952 -10.20718
 Alpha  occ. eigenvalues --  -10.20675 -10.20490 -10.20484 -10.20387 -10.20121
 Alpha  occ. eigenvalues --  -10.20003 -10.19769 -10.19741 -10.19724 -10.19698
 Alpha  occ. eigenvalues --  -10.19668 -10.19662 -10.19638 -10.19637 -10.19567
 Alpha  occ. eigenvalues --  -10.19476  -1.04328  -1.02223  -0.93987  -0.92407
 Alpha  occ. eigenvalues --   -0.87915  -0.86258  -0.82888  -0.80076  -0.77285
 Alpha  occ. eigenvalues --   -0.75497  -0.75246  -0.74543  -0.72690  -0.71249
 Alpha  occ. eigenvalues --   -0.68681  -0.65545  -0.63112  -0.62016  -0.61742
 Alpha  occ. eigenvalues --   -0.61165  -0.59316  -0.58051  -0.54631  -0.53363
 Alpha  occ. eigenvalues --   -0.51902  -0.51616  -0.50549  -0.49544  -0.48942
 Alpha  occ. eigenvalues --   -0.46672  -0.46514  -0.45948  -0.45540  -0.44779
 Alpha  occ. eigenvalues --   -0.44351  -0.43257  -0.42963  -0.42328  -0.41872
 Alpha  occ. eigenvalues --   -0.41652  -0.41530  -0.40561  -0.39714  -0.39350
 Alpha  occ. eigenvalues --   -0.39216  -0.38989  -0.37801  -0.37122  -0.36624
 Alpha  occ. eigenvalues --   -0.36399  -0.36072  -0.35095  -0.34445  -0.33695
 Alpha  occ. eigenvalues --   -0.33231  -0.31434  -0.29325  -0.26627  -0.26056
 Alpha  occ. eigenvalues --   -0.25292  -0.25045  -0.24951  -0.23637  -0.22856
 Alpha  occ. eigenvalues --   -0.20885
 Alpha virt. eigenvalues --   -0.05408  -0.03905  -0.01554  -0.00979  -0.00063
 Alpha virt. eigenvalues --    0.03488   0.04149   0.07108   0.08181   0.08648
 Alpha virt. eigenvalues --    0.09324   0.09767   0.10783   0.11019   0.12123

 Mulliken charges:
               1
     1  C   -0.313796
     2  N   -0.401777
     3  C   -0.314025
     4  C    0.562160
     5  O   -0.508073
     6  C    0.267829
     7  C   -0.276354
     8  C    0.078378
     9  C   -0.186100
    10  C   -0.132590
    11  C   -0.190042
    12  C    0.136519
    13  C   -0.195550
    14  C   -0.133272
    15  C   -0.140893
    16  C   -0.199088
    17  C    0.054862
    18  N   -0.683151
    19  C    0.570938
    20  O   -0.517770
    21  C    0.064757
    22  C   -0.148540
    23  C   -0.136792
    24  C   -0.118823
    25  C   -0.135648
    26  C   -0.189583
    27  H    0.149647
    28  H    0.170947
    29  H    0.173935
    30  H    0.194203
    31  H    0.145442
    32  H    0.162129
    33  H    0.155105
    34  H    0.138545
    35  H    0.135552
    36  H    0.132548
    37  H    0.132264
    38  H    0.133245
    39  H    0.136439
    40  H    0.153894
    41  H    0.346969
    42  H    0.166248
    43  H    0.139290
    44  H    0.136901
    45  H    0.137502
    46  H    0.145615
 Sum of Mulliken charges =  -0.00000

 Dipole moment (field-independent basis, Debye):
    X=             -1.8343    Y=             -2.5454    Z=             -2.1586  Tot=              3.8083
 Quadrupole moment (field-independent basis, Debye-Ang):
   XX=           -144.5320   YY=           -133.8564   ZZ=           -147.6787
   XY=             -6.2746   XZ=            -11.3046   YZ=              1.1245

 Normal termination of Gaussian 16 at Sat Nov  5 09:49:46 2022.
