 Gaussian 16, Revision B.01,
 Gaussian 16:  ES64L-G16RevB.01 20-Dec-2017

 -------------------------------------------------------------------
 #p b3lyp/6-31g(d) 6D 10F nosymm GFInput td=(50-50,nstate=2) SCF=XQC
 -------------------------------------------------------------------

 ------------------------------
 Gaussian input prepared by ASE
 ------------------------------
 Symbolic Z-matrix:
 Charge =  0 Multiplicity = 1

                          Input orientation:
 ---------------------------------------------------------------------
 Center     Atomic      Atomic             Coordinates (Angstroms)
 Number     Number       Type             X           Y           Z
 ---------------------------------------------------------------------
      1          7           0        0.039401    3.634384   -0.289743
      2          6           0        0.274854    2.501832   -0.153517
      3          6           0        0.625797    1.136358   -0.012247
      4          6           0       -0.238136    0.047547    0.068101
      5          6           0       -1.700581   -0.041000    0.069825
      6          6           0       -2.353086   -1.058744   -0.650795
      7          6           0       -3.736751   -1.149667   -0.624611
      8          9           0       -4.336197   -2.128754   -1.332167
      9          6           0       -4.522593   -0.257260    0.097020
     10          6           0       -3.889472    0.752742    0.819166
     11          6           0       -2.503267    0.845112    0.804075
     12          9           0       -1.919389    1.806062    1.541360
     13          7           0        0.526363   -1.101854    0.087201
     14          6           0        1.873297   -0.788679    0.055622
     15          6           0        2.999155   -1.617232    0.084559
     16          6           0        4.243215   -1.000703    0.022972
     17          6           0        4.363438    0.402110   -0.066955
     18          6           0        3.242349    1.220643   -0.091423
     19          6           0        1.974995    0.621582   -0.022299
     20          1           0       -1.788836   -1.754280   -1.263130
     21          1           0       -5.602443   -0.356598    0.086507
     22          1           0       -4.454994    1.468227    1.406143
     23          1           0        0.146671   -2.019414    0.268757
     24          1           0        2.906657   -2.697824    0.149364
     25          1           0        5.140794   -1.612116    0.042010
     26          1           0        5.353039    0.847001   -0.116584
     27          1           0        3.335723    2.300526   -0.159249
 ---------------------------------------------------------------------

 SCF Done:  E(RB3LYP) =  -885.587722849     A.U. after   16 cycles

 Excitation energies and oscillator strengths:

 Excited state symmetry could not be determined.
 Excited State   1:      Triplet-?Sym    2.7087 eV  457.73 nm  f=0.0000  <S**2>=2.000
      65 -> 66         0.66132
      65 -> 67         0.12640
 This state for optimization and/or second-order correction.
 Total Energy, E(TD-HF/TD-DFT) =  -885.488181036
 Copying the excited state density for this state as the 1-particle RhoCI density.

 Excited state symmetry could not be determined.
 Excited State   2:      Triplet-?Sym    3.4187 eV  362.67 nm  f=0.0000  <S**2>=2.000
      61 -> 66         0.13991
      62 -> 66         0.13274
      63 -> 67         0.11096
      63 -> 68        -0.11054
      64 -> 66         0.57603
      64 -> 67         0.11612
      65 -> 68        -0.19925

 Excited state symmetry could not be determined.
 Excited State   3:      Singlet-?Sym    3.9014 eV  317.80 nm  f=0.2599  <S**2>=0.000
      65 -> 66         0.69124

 Excited state symmetry could not be determined.
 Excited State   4:      Singlet-?Sym    4.2255 eV  293.42 nm  f=0.2740  <S**2>=0.000
      64 -> 66         0.68185
      65 -> 69         0.13684

 Alpha  occ. eigenvalues --  -24.72087 -24.72069 -14.40666 -14.32143 -10.29378
 Alpha  occ. eigenvalues --  -10.29188 -10.26317 -10.23992 -10.23948 -10.22480
 Alpha  occ. eigenvalues --  -10.22403 -10.22216 -10.22134 -10.21805 -10.20729
 Alpha  occ. eigenvalues --  -10.20569 -10.19997 -10.19882 -10.19461  -1.23363
 Alpha  occ. eigenvalues --   -1.23261  -1.00897  -0.89130  -0.88982  -0.85648
 Alpha  occ. eigenvalues --   -0.81815  -0.79676  -0.76906  -0.75094  -0.73543
 Alpha  occ. eigenvalues --   -0.67074  -0.65727  -0.64557  -0.61784  -0.60562
 Alpha  occ. eigenvalues --   -0.56956  -0.55113  -0.54040  -0.53468  -0.51103
 Alpha  occ. eigenvalues --   -0.49758  -0.48634  -0.47861  -0.46897  -0.46529
 Alpha  occ. eigenvalues --   -0.45038  -0.44917  -0.44584  -0.44162  -0.43600
 Alpha  occ. eigenvalues --   -0.42436  -0.39139  -0.37724  -0.37134  -0.36804
 Alpha  occ. eigenvalues --   -0.35972  -0.35287  -0.34882  -0.34603  -0.31634
 Alpha  occ. eigenvalues --   -0.29506  -0.28087  -0.25914  -0.23681  -0.21957
 Alpha virt. eigenvalues --   -0.06301  -0.02098  -0.00573   0.00716   0.01635
 Alpha virt. eigenvalues --    0.03928   0.06435   0.07531   0.09727   0.12171
 Alpha virt. eigenvalues --    0.12744   0.13131   0.13437   0.14917   0.15799

 Mulliken charges:
               1
     1  N   -0.495082
     2  C    0.196219
     3  C    0.041160
     4  C    0.293696
     5  C    0.025093
     6  C   -0.258657
     7  C    0.389213
     8  F   -0.294515
     9  C   -0.191011
    10  C   -0.195125
    11  C    0.349218
    12  F   -0.272055
    13  N   -0.762303
    14  C    0.321175
    15  C   -0.166773
    16  C   -0.144849
    17  C   -0.139583
    18  C   -0.196046
    19  C    0.122134
    20  H    0.157688
    21  H    0.163324
    22  H    0.167785
    23  H    0.335599
    24  H    0.132012
    25  H    0.134087
    26  H    0.134605
    27  H    0.152992
 Sum of Mulliken charges =  -0.00000

 Dipole moment (field-independent basis, Debye):
    X=             -0.3585    Y=             -5.4719    Z=              0.8567  Tot=              5.5502
 Quadrupole moment (field-independent basis, Debye-Ang):
   XX=            -88.0685   YY=           -116.4700   ZZ=           -108.5093
   XY=             -3.4177   XZ=             -3.8316   YZ=              0.1803

 Normal termination of Gaussian 16 at Sat Nov  5 09:39:19 2022.
