 Gaussian 16, Revision B.01,
 Gaussian 16:  ES64L-G16RevB.01 20-Dec-2017

 -----------------------------
 #p b3lyp/6-31g(d) opt SCF=XQC
 -----------------------------

 ------------------------------
 Gaussian input prepared by ASE
 ------------------------------
 Symbolic Z-matrix:
 Charge =  0 Multiplicity = 1

 SCF Done:  E(RB3LYP) =  -885.584426394     A.U. after   16 cycles
 SCF Done:  E(RB3LYP) =  -885.587363064     A.U. after   13 cycles
 SCF Done:  E(RB3LYP) =  -885.586809671     A.U. after   13 cycles
 SCF Done:  E(RB3LYP) =  -885.587669601     A.U. after   12 cycles
 SCF Done:  E(RB3LYP) =  -885.587655019     A.U. after   11 cycles
 SCF Done:  E(RB3LYP) =  -885.587698279     A.U. after   11 cycles
 SCF Done:  E(RB3LYP) =  -885.587712256     A.U. after   10 cycles
 SCF Done:  E(RB3LYP) =  -885.587718495     A.U. after    9 cycles
 SCF Done:  E(RB3LYP) =  -885.587720021     A.U. after    9 cycles
 SCF Done:  E(RB3LYP) =  -885.587720335     A.U. after    8 cycles
 Optimization completed.
    -- Stationary point found.

                         Standard orientation:
 ---------------------------------------------------------------------
 Center     Atomic      Atomic             Coordinates (Angstroms)
 Number     Number       Type             X           Y           Z
 ---------------------------------------------------------------------
      1          7           0        0.608539    3.291539   -1.054158
      2          6           0        0.766805    2.201027   -0.676795
      3          6           0        1.024239    0.876599   -0.244066
      4          6           0        0.088167   -0.106186    0.066177
      5          6           0       -1.376769   -0.089482    0.082733
      6          6           0       -2.106881   -1.189921   -0.403918
      7          6           0       -3.493094   -1.175803   -0.362739
      8          9           0       -4.167445   -2.239501   -0.844797
      9          6           0       -4.206430   -0.096342    0.147756
     10          6           0       -3.496170    0.998242    0.637508
     11          6           0       -2.107187    0.987739    0.606858
     12          9           0       -1.449252    2.041246    1.121806
     13          7           0        0.771567   -1.275384    0.334293
     14          6           0        2.136436   -1.071580    0.239926
     15          6           0        3.202601   -1.951466    0.449654
     16          6           0        4.485448   -1.451383    0.260424
     17          6           0        4.701231   -0.112605   -0.128852
     18          6           0        3.639185    0.758145   -0.332046
     19          6           0        2.334401    0.278331   -0.139281
     20          1           0       -1.599637   -2.038580   -0.850664
     21          1           0       -5.290611   -0.119618    0.155776
     22          1           0       -4.003616    1.860978    1.055195
     23          1           0        0.331625   -2.103576    0.707915
     24          1           0        3.036438   -2.983699    0.745153
     25          1           0        5.338786   -2.105858    0.413118
     26          1           0        5.718530    0.240697   -0.270205
     27          1           0        3.806135    1.788976   -0.630341
 ---------------------------------------------------------------------

 The electronic state is 1-A.
 Alpha  occ. eigenvalues --  -24.72087 -24.72069 -14.40666 -14.32144 -10.29378
 Alpha  occ. eigenvalues --  -10.29188 -10.26317 -10.23992 -10.23948 -10.22480
 Alpha  occ. eigenvalues --  -10.22403 -10.22216 -10.22134 -10.21805 -10.20729
 Alpha  occ. eigenvalues --  -10.20569 -10.19997 -10.19882 -10.19462  -1.23363
 Alpha  occ. eigenvalues --   -1.23261  -1.00897  -0.89130  -0.88982  -0.85648
 Alpha  occ. eigenvalues --   -0.81815  -0.79676  -0.76906  -0.75094  -0.73543
 Alpha  occ. eigenvalues --   -0.67074  -0.65727  -0.64557  -0.61784  -0.60562
 Alpha  occ. eigenvalues --   -0.56956  -0.55113  -0.54040  -0.53468  -0.51103
 Alpha  occ. eigenvalues --   -0.49758  -0.48634  -0.47861  -0.46897  -0.46529
 Alpha  occ. eigenvalues --   -0.45038  -0.44917  -0.44584  -0.44162  -0.43600
 Alpha  occ. eigenvalues --   -0.42436  -0.39139  -0.37724  -0.37134  -0.36804
 Alpha  occ. eigenvalues --   -0.35972  -0.35287  -0.34882  -0.34603  -0.31634
 Alpha  occ. eigenvalues --   -0.29506  -0.28087  -0.25914  -0.23681  -0.21957
 Alpha virt. eigenvalues --   -0.06301  -0.02098  -0.00573   0.00716   0.01635
 Alpha virt. eigenvalues --    0.03928   0.06435   0.07531   0.09727   0.12171
 Alpha virt. eigenvalues --    0.12744   0.13131   0.13437   0.14917   0.15799

 Mulliken charges:
               1
     1  N   -0.495078
     2  C    0.196212
     3  C    0.041147
     4  C    0.293722
     5  C    0.025078
     6  C   -0.258659
     7  C    0.389211
     8  F   -0.294516
     9  C   -0.191011
    10  C   -0.195120
    11  C    0.349228
    12  F   -0.272061
    13  N   -0.762296
    14  C    0.321150
    15  C   -0.166771
    16  C   -0.144842
    17  C   -0.139588
    18  C   -0.196049
    19  C    0.122153
    20  H    0.157687
    21  H    0.163324
    22  H    0.167785
    23  H    0.335598
    24  H    0.132012
    25  H    0.134087
    26  H    0.134605
    27  H    0.152992
 Sum of Mulliken charges =  -0.00000

 Dipole moment (field-independent basis, Debye):
    X=             -0.7253    Y=             -5.1212    Z=              2.0128  Tot=              5.5502
 Quadrupole moment (field-independent basis, Debye-Ang):
   XX=            -89.2388   YY=           -113.4220   ZZ=           -108.9280
   XY=             -7.5974   XZ=             -2.1720   YZ=              1.6023

 Normal termination of Gaussian 16 at Fri Nov  4 21:52:42 2022.
