 Gaussian 16, Revision B.01,
 Gaussian 16:  ES64L-G16RevB.01 20-Dec-2017

 -------------------------------------------------------------------
 #p b3lyp/6-31g(d) 6D 10F nosymm GFInput td=(50-50,nstate=2) SCF=XQC
 -------------------------------------------------------------------

 ------------------------------
 Gaussian input prepared by ASE
 ------------------------------
 Symbolic Z-matrix:
 Charge =  0 Multiplicity = 1

                          Input orientation:
 ---------------------------------------------------------------------
 Center     Atomic      Atomic             Coordinates (Angstroms)
 Number     Number       Type             X           Y           Z
 ---------------------------------------------------------------------
      1          6           0       -1.593231   -2.567570   -0.036684
      2          6           0       -2.419745   -1.308997    0.048045
      3          6           0       -3.807751   -1.386973    0.208789
      4          6           0       -4.587912   -0.238260    0.311226
      5          6           0       -3.985676    1.016696    0.251337
      6          6           0       -2.604685    1.143157    0.073794
      7          6           0       -1.965605    2.511959    0.004081
      8          6           0       -1.832359   -0.032248   -0.024908
      9          7           0       -0.398345    0.066157   -0.136440
     10         16           0        0.324457    0.009997   -1.693755
     11          8           0        0.729286    1.366355   -2.094050
     12          8           0       -0.531660   -0.803730   -2.559507
     13          6           0        1.849683   -0.944882   -1.351132
     14          6           0        2.755656   -0.315069   -0.328825
     15          6           0        2.769608   -0.785284    0.991294
     16          6           0        3.609762   -0.205121    1.942011
     17          6           0        4.441992    0.856838    1.584001
     18          6           0        4.430135    1.335588    0.272007
     19          6           0        3.592607    0.754136   -0.678959
     20          1           0       -0.689046   -2.485692    0.576932
     21          1           0       -1.274720   -2.759860   -1.067365
     22          1           0       -2.167910   -3.432546    0.308476
     23          1           0       -4.275528   -2.366718    0.264617
     24          1           0       -5.663654   -0.320194    0.441308
     25          1           0       -4.591986    1.915403    0.332074
     26          1           0       -1.321716    2.619673   -0.875255
     27          1           0       -2.732025    3.291030   -0.038026
     28          1           0       -1.345713    2.722368    0.888395
     29          1           0       -0.025000    0.888474    0.333322
     30          1           0        1.504679   -1.937333   -1.053061
     31          1           0        2.320050   -1.017856   -2.337349
     32          1           0        2.121178   -1.610990    1.272656
     33          1           0        3.614940   -0.584084    2.960374
     34          1           0        5.098522    1.307995    2.323051
     35          1           0        5.075172    2.162277   -0.012628
     36          1           0        3.576536    1.135307   -1.695806
 ---------------------------------------------------------------------

 SCF Done:  E(RB3LYP) =  -1185.17141933     A.U. after   15 cycles

 Excitation energies and oscillator strengths:

 Excited state symmetry could not be determined.
 Excited State   1:      Triplet-?Sym    3.5843 eV  345.91 nm  f=0.0000  <S**2>=2.000
      72 -> 77        -0.40982
      73 -> 74         0.21648
      73 -> 76         0.49457
 This state for optimization and/or second-order correction.
 Total Energy, E(TD-HF/TD-DFT) =  -1185.03969806
 Copying the excited state density for this state as the 1-particle RhoCI density.

 Excited state symmetry could not be determined.
 Excited State   2:      Triplet-?Sym    3.6954 eV  335.51 nm  f=0.0000  <S**2>=2.000
      70 -> 75         0.42785
      71 -> 74         0.50974
      71 -> 76        -0.13751
      73 -> 74        -0.11121

 Excited state symmetry could not be determined.
 Excited State   3:      Singlet-?Sym    5.0433 eV  245.84 nm  f=0.0563  <S**2>=0.000
      73 -> 74         0.69218

 Excited state symmetry could not be determined.
 Excited State   4:      Singlet-?Sym    5.1067 eV  242.79 nm  f=0.0058  <S**2>=0.000
      72 -> 74         0.36342
      72 -> 76         0.40073
      73 -> 77         0.42323

 Alpha  occ. eigenvalues --  -89.10781 -19.14400 -19.14382 -14.37011 -10.23407
 Alpha  occ. eigenvalues --  -10.22682 -10.21509 -10.20330 -10.20161 -10.20101
 Alpha  occ. eigenvalues --  -10.20060 -10.20018 -10.19994 -10.19808 -10.18752
 Alpha  occ. eigenvalues --  -10.18552 -10.18551 -10.18448 -10.17837  -8.13434
 Alpha  occ. eigenvalues --   -6.09928  -6.09840  -6.09702  -1.10761  -0.99973
 Alpha  occ. eigenvalues --   -0.93248  -0.86967  -0.84733  -0.80138  -0.78276
 Alpha  occ. eigenvalues --   -0.75521  -0.75202  -0.72570  -0.69289  -0.67814
 Alpha  occ. eigenvalues --   -0.63532  -0.61710  -0.60080  -0.58722  -0.57315
 Alpha  occ. eigenvalues --   -0.53282  -0.52528  -0.51252  -0.49023  -0.47787
 Alpha  occ. eigenvalues --   -0.47501  -0.46902  -0.45878  -0.44379  -0.43215
 Alpha  occ. eigenvalues --   -0.42809  -0.42261  -0.41926  -0.41339  -0.41104
 Alpha  occ. eigenvalues --   -0.40394  -0.40225  -0.37646  -0.37356  -0.36088
 Alpha  occ. eigenvalues --   -0.35701  -0.35304  -0.34802  -0.34356  -0.33740
 Alpha  occ. eigenvalues --   -0.31824  -0.31139  -0.30262  -0.29016  -0.26060
 Alpha  occ. eigenvalues --   -0.25544  -0.23742  -0.23041
 Alpha virt. eigenvalues --   -0.02438  -0.01142  -0.00864   0.00408   0.06120
 Alpha virt. eigenvalues --    0.07146   0.07524   0.08989   0.09977   0.10259
 Alpha virt. eigenvalues --    0.10567   0.11418   0.11895   0.13954   0.14202

 Mulliken charges:
               1
     1  C   -0.545468
     2  C    0.206233
     3  C   -0.208189
     4  C   -0.107207
     5  C   -0.207508
     6  C    0.193512
     7  C   -0.568406
     8  C    0.126766
     9  N   -0.792516
    10  S    1.232098
    11  O   -0.534257
    12  O   -0.534498
    13  C   -0.563729
    14  C    0.138307
    15  C   -0.171055
    16  C   -0.131392
    17  C   -0.125905
    18  C   -0.132129
    19  C   -0.153303
    20  H    0.157865
    21  H    0.192824
    22  H    0.149692
    23  H    0.124486
    24  H    0.129223
    25  H    0.124563
    26  H    0.201538
    27  H    0.162351
    28  H    0.153365
    29  H    0.357080
    30  H    0.208431
    31  H    0.213329
    32  H    0.139237
    33  H    0.136525
    34  H    0.136351
    35  H    0.138929
    36  H    0.152858
 Sum of Mulliken charges =  -0.00000

 Dipole moment (field-independent basis, Debye):
    X=              1.5989    Y=             -0.4643    Z=              3.4317  Tot=              3.8143
 Quadrupole moment (field-independent basis, Debye-Ang):
   XX=           -105.8040   YY=           -112.8805   ZZ=           -125.7762
   XY=             -0.0271   XZ=             -1.9259   YZ=              2.3249

 Normal termination of Gaussian 16 at Sat Nov  5 09:31:11 2022.
