 Gaussian 16, Revision B.01,
 Gaussian 16:  ES64L-G16RevB.01 20-Dec-2017

 -------------------------------------------------------------------
 #p b3lyp/6-31g(d) 6D 10F nosymm GFInput td=(50-50,nstate=2) SCF=XQC
 -------------------------------------------------------------------

 ------------------------------
 Gaussian input prepared by ASE
 ------------------------------
 Symbolic Z-matrix:
 Charge =  0 Multiplicity = 1

                          Input orientation:
 ---------------------------------------------------------------------
 Center     Atomic      Atomic             Coordinates (Angstroms)
 Number     Number       Type             X           Y           Z
 ---------------------------------------------------------------------
      1          6           0       12.430711    1.131021    0.329698
      2          6           0       10.926502    0.901428    0.502524
      3          6           0       10.372141   -0.152843   -0.478612
      4          6           0        8.891476   -0.342180   -0.346704
      5          6           0        8.292655   -1.497892   -0.024236
      6          6           0        6.840240   -1.689926    0.125004
      7          8           0        6.312904   -2.735594    0.427818
      8          8           0        6.133911   -0.527036   -0.122504
      9          6           0        4.752608   -0.523622   -0.047048
     10          6           0        4.052272    0.168065   -1.032189
     11          7           0        2.727946    0.292310   -1.005736
     12          6           0        2.077163   -0.287438    0.021828
     13          6           0        0.602138   -0.162813    0.061124
     14          6           0       -0.141955   -0.746634    1.094285
     15          6           0       -1.530062   -0.628352    1.127652
     16          6           0       -2.233396    0.071525    0.135346
     17          6           0       -3.754436    0.237227    0.153351
     18          6           0       -4.123299    1.741750    0.289707
     19          6           0       -5.655998    1.912274    0.460651
     20          6           0       -6.407547    0.597693    0.132646
     21          6           0       -7.929025    0.883812    0.146449
     22          6           0       -8.927672   -0.283845    0.287530
     23          6           0       -9.041035   -1.256694   -0.893410
     24          6           0       -5.987741   -0.444445    1.192106
     25          6           0       -4.439311   -0.511787    1.321695
     26          6           0       -5.890122    0.118937   -1.245497
     27          6           0       -4.394073   -0.290957   -1.160374
     28          6           0       -1.471981    0.656820   -0.893477
     29          6           0       -0.087712    0.545173   -0.935784
     30          7           0        2.675036   -0.968392    1.018190
     31          6           0        4.001055   -1.086053    0.986834
     32          1           0       12.799290    1.879955    1.039090
     33          1           0       12.995577    0.206190    0.497660
     34          1           0       12.664981    1.484557   -0.681765
     35          1           0       10.388309    1.848056    0.357819
     36          1           0       10.713344    0.579935    1.530014
     37          1           0       10.890478   -1.108797   -0.331859
     38          1           0       10.596541    0.175902   -1.505229
     39          1           0        8.271845    0.537546   -0.514588
     40          1           0        8.865871   -2.403190    0.156815
     41          1           0        4.589355    0.634802   -1.856752
     42          1           0        0.379465   -1.295003    1.871176
     43          1           0       -2.064183   -1.093964    1.948427
     44          1           0       -3.771422    2.281688   -0.597134
     45          1           0       -3.586554    2.171407    1.143651
     46          1           0       -5.896184    2.208766    1.490382
     47          1           0       -6.026722    2.718055   -0.186381
     48          1           0       -8.122681    1.563234    0.989623
     49          1           0       -8.180239    1.458178   -0.758428
     50          1           0       -8.708180   -0.848786    1.202945
     51          1           0       -9.916197    0.166558    0.452130
     52          1           0       -9.185611   -0.720735   -1.839731
     53          1           0       -9.898718   -1.926336   -0.757989
     54          1           0       -8.152846   -1.887638   -1.001284
     55          1           0       -6.437518   -0.192067    2.161057
     56          1           0       -6.384571   -1.429059    0.916058
     57          1           0       -4.117677   -0.070998    2.273683
     58          1           0       -4.113890   -1.558279    1.335997
     59          1           0       -6.484739   -0.720163   -1.616760
     60          1           0       -6.023226    0.933674   -1.970334
     61          1           0       -4.287901   -1.383104   -1.184415
     62          1           0       -3.848679    0.086555   -2.031267
     63          1           0       -1.969676    1.215703   -1.681125
     64          1           0        0.476746    1.004092   -1.740089
     65          1           0        4.472219   -1.638268    1.793543
 ---------------------------------------------------------------------

 SCF Done:  E(RB3LYP) =  -1309.31472128     A.U. after   15 cycles

 Excitation energies and oscillator strengths:

 Excited state symmetry could not be determined.
 Excited State   1:      Triplet-?Sym    2.9844 eV  415.44 nm  f=0.0000  <S**2>=2.000
     112 ->117         0.16440
     113 ->114         0.40483
     113 ->115         0.51685
 This state for optimization and/or second-order correction.
 Total Energy, E(TD-HF/TD-DFT) =  -1309.20504652
 Copying the excited state density for this state as the 1-particle RhoCI density.

 Excited state symmetry could not be determined.
 Excited State   2:      Triplet-?Sym    3.4688 eV  357.42 nm  f=0.0000  <S**2>=2.000
     105 ->114         0.15501
     106 ->114        -0.20242
     107 ->114         0.37693
     107 ->115        -0.16337
     108 ->114         0.38169
     108 ->115        -0.15929
     110 ->114        -0.16708
     113 ->114         0.10547
     113 ->115        -0.10101

 Excited state symmetry could not be determined.
 Excited State   3:      Singlet-?Sym    3.9293 eV  315.54 nm  f=0.3566  <S**2>=0.000
     113 ->114         0.69560

 Excited state symmetry could not be determined.
 Excited State   4:      Singlet-?Sym    4.0991 eV  302.47 nm  f=0.0000  <S**2>=0.000
     111 ->114         0.57569
     111 ->115         0.36846

 Alpha  occ. eigenvalues --  -19.21326 -19.14830 -14.33765 -14.33655 -10.33067
 Alpha  occ. eigenvalues --  -10.26376 -10.25907 -10.24024 -10.23945 -10.22270
 Alpha  occ. eigenvalues --  -10.20911 -10.20595 -10.19988 -10.19267 -10.18949
 Alpha  occ. eigenvalues --  -10.18681 -10.18679 -10.18507 -10.17955 -10.17903
 Alpha  occ. eigenvalues --  -10.17856 -10.17790 -10.17708 -10.17464 -10.17437
 Alpha  occ. eigenvalues --  -10.17392 -10.17347 -10.17343 -10.17214 -10.17120
 Alpha  occ. eigenvalues --  -10.17028  -1.11818  -1.03396  -0.98524  -0.88804
 Alpha  occ. eigenvalues --   -0.86254  -0.84375  -0.83373  -0.80647  -0.79020
 Alpha  occ. eigenvalues --   -0.77736  -0.75567  -0.73880  -0.73194  -0.72906
 Alpha  occ. eigenvalues --   -0.72709  -0.70933  -0.67736  -0.66881  -0.65851
 Alpha  occ. eigenvalues --   -0.62530  -0.61693  -0.60611  -0.60485  -0.59407
 Alpha  occ. eigenvalues --   -0.58672  -0.58435  -0.57308  -0.55180  -0.53410
 Alpha  occ. eigenvalues --   -0.52947  -0.51260  -0.49596  -0.48687  -0.47455
 Alpha  occ. eigenvalues --   -0.47372  -0.47148  -0.47046  -0.45938  -0.45329
 Alpha  occ. eigenvalues --   -0.44780  -0.43884  -0.43761  -0.43053  -0.43032
 Alpha  occ. eigenvalues --   -0.42518  -0.42441  -0.41991  -0.40926  -0.40726
 Alpha  occ. eigenvalues --   -0.40178  -0.40072  -0.39695  -0.38386  -0.38093
 Alpha  occ. eigenvalues --   -0.37902  -0.37180  -0.36869  -0.36392  -0.36262
 Alpha  occ. eigenvalues --   -0.36073  -0.35684  -0.35656  -0.35242  -0.34573
 Alpha  occ. eigenvalues --   -0.34164  -0.34040  -0.33223  -0.32366  -0.32077
 Alpha  occ. eigenvalues --   -0.31838  -0.31683  -0.31644  -0.30951  -0.28664
 Alpha  occ. eigenvalues --   -0.28345  -0.28176  -0.27852  -0.27385  -0.27006
 Alpha  occ. eigenvalues --   -0.24265  -0.24055  -0.21955
 Alpha virt. eigenvalues --   -0.05889  -0.03947  -0.03734   0.01077   0.03651
 Alpha virt. eigenvalues --    0.06866   0.07722   0.08440   0.09516   0.10018
 Alpha virt. eigenvalues --    0.10502   0.10818   0.10914   0.12196   0.12432

 Mulliken charges:
               1
     1  C   -0.443377
     2  C   -0.254752
     3  C   -0.308099
     4  C   -0.058899
     5  C   -0.204070
     6  C    0.612438
     7  O   -0.466959
     8  O   -0.545927
     9  C    0.307036
    10  C    0.035270
    11  N   -0.465131
    12  C    0.418276
    13  C    0.103918
    14  C   -0.177037
    15  C   -0.199053
    16  C    0.173202
    17  C    0.007563
    18  C   -0.274308
    19  C   -0.283656
    20  C    0.118265
    21  C   -0.277243
    22  C   -0.255041
    23  C   -0.443944
    24  C   -0.287956
    25  C   -0.296362
    26  C   -0.286291
    27  C   -0.281067
    28  C   -0.193340
    29  C   -0.176117
    30  N   -0.469032
    31  C    0.065788
    32  H    0.151457
    33  H    0.147889
    34  H    0.146311
    35  H    0.140986
    36  H    0.147980
    37  H    0.149747
    38  H    0.155553
    39  H    0.163636
    40  H    0.156098
    41  H    0.157106
    42  H    0.155819
    43  H    0.128056
    44  H    0.133131
    45  H    0.139064
    46  H    0.128758
    47  H    0.129711
    48  H    0.124080
    49  H    0.122385
    50  H    0.136272
    51  H    0.130734
    52  H    0.141149
    53  H    0.140005
    54  H    0.148983
    55  H    0.129868
    56  H    0.135219
    57  H    0.135713
    58  H    0.138609
    59  H    0.140134
    60  H    0.126125
    61  H    0.136016
    62  H    0.136321
    63  H    0.124635
    64  H    0.153456
    65  H    0.174901
 Sum of Mulliken charges =  -0.00000

 Dipole moment (field-independent basis, Debye):
    X=              2.9788    Y=              2.0896    Z=             -0.4046  Tot=              3.6611
 Quadrupole moment (field-independent basis, Debye-Ang):
   XX=           -121.3928   YY=           -192.3269   ZZ=           -183.2337
   XY=             11.1554   XZ=             -4.2222   YZ=             -1.3346

 Normal termination of Gaussian 16 at Sat Nov  5 09:43:20 2022.
