 Gaussian 16, Revision B.01,
 Gaussian 16:  ES64L-G16RevB.01 20-Dec-2017

 -----------------------------
 #p b3lyp/6-31g(d) opt SCF=XQC
 -----------------------------

 ------------------------------
 Gaussian input prepared by ASE
 ------------------------------
 Symbolic Z-matrix:
 Charge =  0 Multiplicity = 1

 SCF Done:  E(RB3LYP) =  -1309.30714576     A.U. after   15 cycles
 SCF Done:  E(RB3LYP) =  -1309.31376487     A.U. after   12 cycles
 SCF Done:  E(RB3LYP) =  -1309.31412837     A.U. after   12 cycles
 SCF Done:  E(RB3LYP) =  -1309.31440503     A.U. after   11 cycles
 SCF Done:  E(RB3LYP) =  -1309.31456562     A.U. after   11 cycles
 SCF Done:  E(RB3LYP) =  -1309.31462658     A.U. after   11 cycles
 SCF Done:  E(RB3LYP) =  -1309.31465076     A.U. after   10 cycles
 SCF Done:  E(RB3LYP) =  -1309.31466369     A.U. after   11 cycles
 SCF Done:  E(RB3LYP) =  -1309.31467810     A.U. after   10 cycles
 SCF Done:  E(RB3LYP) =  -1309.31469593     A.U. after   11 cycles
 SCF Done:  E(RB3LYP) =  -1309.31470088     A.U. after   10 cycles
 SCF Done:  E(RB3LYP) =  -1309.31470645     A.U. after    9 cycles
 SCF Done:  E(RB3LYP) =  -1309.31471828     A.U. after   10 cycles
 SCF Done:  E(RB3LYP) =  -1309.31472205     A.U. after    9 cycles
 SCF Done:  E(RB3LYP) =  -1309.31472245     A.U. after    8 cycles
 SCF Done:  E(RB3LYP) =  -1309.31472249     A.U. after    6 cycles
 SCF Done:  E(RB3LYP) =  -1309.31472250     A.U. after    6 cycles
 Optimization completed.
    -- Stationary point found.

                         Standard orientation:
 ---------------------------------------------------------------------
 Center     Atomic      Atomic             Coordinates (Angstroms)
 Number     Number       Type             X           Y           Z
 ---------------------------------------------------------------------
      1          6           0       11.834465   -1.462901   -0.711715
      2          6           0       10.337803   -1.150897   -0.800504
      3          6           0        9.811209   -0.416052    0.450149
      4          6           0        8.336841   -0.155180    0.388521
      5          6           0        7.771851    1.060483    0.423037
      6          6           0        6.325838    1.328233    0.345461
      7          8           0        5.829134    2.430985    0.366040
      8          8           0        5.586187    0.164059    0.245026
      9          6           0        4.205530    0.221412    0.180196
     10          6           0        3.483453   -0.709194    0.923151
     11          7           0        2.156202   -0.783271    0.869361
     12          6           0        1.524635    0.090448    0.061122
     13          6           0        0.046766    0.023974   -0.004151
     14          6           0       -0.677944    0.905828   -0.815984
     15          6           0       -2.068764    0.841254   -0.874249
     16          6           0       -2.794088   -0.099197   -0.126831
     17          6           0       -4.319171   -0.209890   -0.183529
     18          6           0       -4.730259   -1.597230   -0.753208
     19          6           0       -6.266761   -1.667314   -0.957454
     20          6           0       -6.981487   -0.486527   -0.253576
     21          6           0       -8.510436   -0.713505   -0.341595
     22          6           0       -9.475191    0.471464   -0.127774
     23          6           0       -9.563761    1.057577    1.287335
     24          6           0       -6.529697    0.808577   -0.963040
     25          6           0       -4.979670    0.867844   -1.076465
     26          6           0       -6.454030   -0.447992    1.201248
     27          6           0       -4.946746   -0.072996    1.231178
     28          6           0       -2.052094   -0.981667    0.680319
     29          6           0       -0.665321   -0.925951    0.745207
     30          7           0        2.144013    1.016945   -0.695094
     31          6           0        3.472758    1.083245   -0.638560
     32          1           0       12.183358   -1.980575   -1.611869
     33          1           0       12.425761   -0.545612   -0.604254
     34          1           0       12.056148   -2.104141    0.150025
     35          1           0        9.772606   -2.082929   -0.936755
     36          1           0       10.136352   -0.536159   -1.687096
     37          1           0       10.356828    0.526046    0.587300
     38          1           0       10.023694   -1.037776    1.333711
     39          1           0        7.692082   -1.027821    0.294551
     40          1           0        8.370970    1.962716    0.512204
     41          1           0        4.005067   -1.412173    1.571182
     42          1           0       -0.139283    1.643340   -1.400849
     43          1           0       -2.587459    1.541964   -1.519008
     44          1           0       -4.396005   -2.383280   -0.066013
     45          1           0       -4.203854   -1.772074   -1.698856
     46          1           0       -6.512765   -1.641678   -2.027392
     47          1           0       -6.661778   -2.616875   -0.573178
     48          1           0       -8.721251   -1.109831   -1.345857
     49          1           0       -8.780049   -1.520951    0.356363
     50          1           0       -9.237528    1.273881   -0.838381
     51          1           0      -10.475700    0.116928   -0.411364
     52          1           0       -9.725789    0.271695    2.035542
     53          1           0      -10.401759    1.761084    1.359562
     54          1           0       -8.658285    1.604073    1.570287
     55          1           0       -6.984103    0.864362   -1.960670
     56          1           0       -6.899089    1.679440   -0.407803
     57          1           0       -4.668366    0.717133   -2.117811
     58          1           0       -4.624641    1.862948   -0.784969
     59          1           0       -7.025488    0.261386    1.805990
     60          1           0       -6.611966   -1.435565    1.655845
     61          1           0       -4.809675    0.960586    1.574046
     62          1           0       -4.414404   -0.704547    1.949634
     63          1           0       -2.567365   -1.733045    1.272238
     64          1           0       -0.116072   -1.616276    1.376002
     65          1           0        3.961364    1.834584   -1.250498
 ---------------------------------------------------------------------

 The electronic state is 1-A.
 Alpha  occ. eigenvalues --  -19.21326 -19.14830 -14.33765 -14.33655 -10.33068
 Alpha  occ. eigenvalues --  -10.26376 -10.25906 -10.24024 -10.23945 -10.22270
 Alpha  occ. eigenvalues --  -10.20911 -10.20595 -10.19988 -10.19267 -10.18949
 Alpha  occ. eigenvalues --  -10.18681 -10.18679 -10.18507 -10.17955 -10.17903
 Alpha  occ. eigenvalues --  -10.17856 -10.17790 -10.17708 -10.17464 -10.17437
 Alpha  occ. eigenvalues --  -10.17392 -10.17347 -10.17343 -10.17214 -10.17120
 Alpha  occ. eigenvalues --  -10.17028  -1.11818  -1.03396  -0.98524  -0.88804
 Alpha  occ. eigenvalues --   -0.86254  -0.84375  -0.83373  -0.80647  -0.79020
 Alpha  occ. eigenvalues --   -0.77736  -0.75567  -0.73880  -0.73194  -0.72906
 Alpha  occ. eigenvalues --   -0.72709  -0.70933  -0.67736  -0.66880  -0.65851
 Alpha  occ. eigenvalues --   -0.62530  -0.61693  -0.60611  -0.60485  -0.59407
 Alpha  occ. eigenvalues --   -0.58672  -0.58435  -0.57308  -0.55180  -0.53410
 Alpha  occ. eigenvalues --   -0.52947  -0.51260  -0.49596  -0.48687  -0.47455
 Alpha  occ. eigenvalues --   -0.47372  -0.47147  -0.47046  -0.45938  -0.45329
 Alpha  occ. eigenvalues --   -0.44780  -0.43884  -0.43761  -0.43053  -0.43032
 Alpha  occ. eigenvalues --   -0.42518  -0.42441  -0.41991  -0.40926  -0.40726
 Alpha  occ. eigenvalues --   -0.40178  -0.40072  -0.39695  -0.38386  -0.38093
 Alpha  occ. eigenvalues --   -0.37902  -0.37180  -0.36869  -0.36392  -0.36261
 Alpha  occ. eigenvalues --   -0.36073  -0.35684  -0.35656  -0.35242  -0.34573
 Alpha  occ. eigenvalues --   -0.34164  -0.34040  -0.33223  -0.32366  -0.32077
 Alpha  occ. eigenvalues --   -0.31838  -0.31683  -0.31644  -0.30951  -0.28664
 Alpha  occ. eigenvalues --   -0.28345  -0.28176  -0.27851  -0.27385  -0.27006
 Alpha  occ. eigenvalues --   -0.24265  -0.24055  -0.21955
 Alpha virt. eigenvalues --   -0.05889  -0.03947  -0.03734   0.01077   0.03652
 Alpha virt. eigenvalues --    0.06866   0.07722   0.08440   0.09516   0.10018
 Alpha virt. eigenvalues --    0.10502   0.10818   0.10914   0.12196   0.12431

 Mulliken charges:
               1
     1  C   -0.443377
     2  C   -0.254751
     3  C   -0.308098
     4  C   -0.058900
     5  C   -0.204071
     6  C    0.612415
     7  O   -0.466945
     8  O   -0.545925
     9  C    0.307055
    10  C    0.035265
    11  N   -0.465137
    12  C    0.418281
    13  C    0.103913
    14  C   -0.177034
    15  C   -0.199059
    16  C    0.173228
    17  C    0.007535
    18  C   -0.274304
    19  C   -0.283667
    20  C    0.118256
    21  C   -0.277285
    22  C   -0.255013
    23  C   -0.443949
    24  C   -0.287932
    25  C   -0.296370
    26  C   -0.286265
    27  C   -0.281065
    28  C   -0.193346
    29  C   -0.176119
    30  N   -0.469027
    31  C    0.065783
    32  H    0.151457
    33  H    0.147889
    34  H    0.146311
    35  H    0.140986
    36  H    0.147979
    37  H    0.149747
    38  H    0.155553
    39  H    0.163635
    40  H    0.156098
    41  H    0.157106
    42  H    0.155818
    43  H    0.128055
    44  H    0.133133
    45  H    0.139065
    46  H    0.128760
    47  H    0.129712
    48  H    0.124085
    49  H    0.122390
    50  H    0.136269
    51  H    0.130733
    52  H    0.141150
    53  H    0.140005
    54  H    0.148982
    55  H    0.129864
    56  H    0.135218
    57  H    0.135714
    58  H    0.138609
    59  H    0.140129
    60  H    0.126125
    61  H    0.136016
    62  H    0.136322
    63  H    0.124635
    64  H    0.153456
    65  H    0.174902
 Sum of Mulliken charges =  -0.00000

 Dipole moment (field-independent basis, Debye):
    X=              2.9173    Y=             -2.1984    Z=             -0.2444  Tot=              3.6611
 Quadrupole moment (field-independent basis, Debye-Ang):
   XX=           -125.3701   YY=           -189.4932   ZZ=           -184.7776
   XY=            -12.9953   XZ=              0.4480   YZ=             -3.5832

 Normal termination of Gaussian 16 at Fri Nov  4 22:14:42 2022.
