 Gaussian 16, Revision B.01,
 Gaussian 16:  ES64L-G16RevB.01 20-Dec-2017

 -----------------------------
 #p b3lyp/6-31g(d) opt SCF=XQC
 -----------------------------

 ------------------------------
 Gaussian input prepared by ASE
 ------------------------------
 Symbolic Z-matrix:
 Charge =  0 Multiplicity = 1

 SCF Done:  E(RB3LYP) =  -1185.16003597     A.U. after   15 cycles
 SCF Done:  E(RB3LYP) =  -1185.17005168     A.U. after   13 cycles
 SCF Done:  E(RB3LYP) =  -1185.17094295     A.U. after   12 cycles
 SCF Done:  E(RB3LYP) =  -1185.17129436     A.U. after   12 cycles
 SCF Done:  E(RB3LYP) =  -1185.17137807     A.U. after   11 cycles
 SCF Done:  E(RB3LYP) =  -1185.17139378     A.U. after   10 cycles
 SCF Done:  E(RB3LYP) =  -1185.17140137     A.U. after   10 cycles
 SCF Done:  E(RB3LYP) =  -1185.17141506     A.U. after   11 cycles
 SCF Done:  E(RB3LYP) =  -1185.17141906     A.U. after   10 cycles
 SCF Done:  E(RB3LYP) =  -1185.17142108     A.U. after    8 cycles
 SCF Done:  E(RB3LYP) =  -1185.17142141     A.U. after    8 cycles
 SCF Done:  E(RB3LYP) =  -1185.17142135     A.U. after    8 cycles
 SCF Done:  E(RB3LYP) =  -1185.17142138     A.U. after    7 cycles
 Optimization completed.
    -- Stationary point found.

                         Standard orientation:
 ---------------------------------------------------------------------
 Center     Atomic      Atomic             Coordinates (Angstroms)
 Number     Number       Type             X           Y           Z
 ---------------------------------------------------------------------
      1          6           0        1.829639   -2.435038   -0.455568
      2          6           0        2.545480   -1.109720   -0.529147
      3          6           0        3.924106   -1.065646   -0.765636
      4          6           0        4.601728    0.147103   -0.859191
      5          6           0        3.904106    1.344333   -0.713750
      6          6           0        2.529471    1.348475   -0.458777
      7          6           0        1.786510    2.655624   -0.296695
      8          6           0        1.861599    0.109942   -0.370511
      9          7           0        0.432788    0.084287   -0.179826
     10         16           0       -0.195088   -0.092008    1.409362
     11          8           0       -0.685484    1.209458    1.888448
     12          8           0        0.771083   -0.864541    2.193149
     13          6           0       -1.654691   -1.156531    1.106295
     14          6           0       -2.664313   -0.565232    0.160995
     15          6           0       -2.713753   -0.983572   -1.175627
     16          6           0       -3.649860   -0.439005   -2.055094
     17          6           0       -4.544099    0.535375   -1.608488
     18          6           0       -4.497888    0.962354   -0.279494
     19          6           0       -3.564277    0.416275    0.600303
     20          1           0        0.888975   -2.405017   -1.016843
     21          1           0        1.585742   -2.692880    0.581139
     22          1           0        2.452337   -3.235194   -0.867358
     23          1           0        4.465857   -2.000172   -0.888108
     24          1           0        5.671636    0.160063   -1.048892
     25          1           0        4.430181    2.292825   -0.787323
     26          1           0        1.186071    2.675297    0.619009
     27          1           0        2.488461    3.493558   -0.261259
     28          1           0        1.103251    2.847759   -1.137403
     29          1           0       -0.031557    0.890234   -0.593472
     30          1           0       -1.247602   -2.104558    0.748026
     31          1           0       -2.061852   -1.306478    2.111745
     32          1           0       -2.017283   -1.740955   -1.525939
     33          1           0       -3.681127   -0.777418   -3.087180
     34          1           0       -5.275216    0.958575   -2.291964
     35          1           0       -5.190878    1.720871    0.073947
     36          1           0       -3.522433    0.757851    1.630400
 ---------------------------------------------------------------------

 The electronic state is 1-A.
 Alpha  occ. eigenvalues --  -89.10781 -19.14400 -19.14382 -14.37011 -10.23407
 Alpha  occ. eigenvalues --  -10.22682 -10.21509 -10.20330 -10.20161 -10.20101
 Alpha  occ. eigenvalues --  -10.20060 -10.20019 -10.19994 -10.19808 -10.18752
 Alpha  occ. eigenvalues --  -10.18553 -10.18551 -10.18448 -10.17837  -8.13434
 Alpha  occ. eigenvalues --   -6.09928  -6.09840  -6.09702  -1.10761  -0.99973
 Alpha  occ. eigenvalues --   -0.93248  -0.86967  -0.84733  -0.80138  -0.78276
 Alpha  occ. eigenvalues --   -0.75521  -0.75202  -0.72570  -0.69289  -0.67814
 Alpha  occ. eigenvalues --   -0.63532  -0.61710  -0.60080  -0.58722  -0.57315
 Alpha  occ. eigenvalues --   -0.53282  -0.52528  -0.51252  -0.49023  -0.47786
 Alpha  occ. eigenvalues --   -0.47501  -0.46902  -0.45878  -0.44379  -0.43215
 Alpha  occ. eigenvalues --   -0.42809  -0.42261  -0.41926  -0.41339  -0.41104
 Alpha  occ. eigenvalues --   -0.40394  -0.40225  -0.37646  -0.37356  -0.36088
 Alpha  occ. eigenvalues --   -0.35701  -0.35304  -0.34802  -0.34356  -0.33740
 Alpha  occ. eigenvalues --   -0.31824  -0.31139  -0.30262  -0.29016  -0.26060
 Alpha  occ. eigenvalues --   -0.25544  -0.23742  -0.23041
 Alpha virt. eigenvalues --   -0.02437  -0.01142  -0.00864   0.00408   0.06120
 Alpha virt. eigenvalues --    0.07146   0.07524   0.08989   0.09977   0.10259
 Alpha virt. eigenvalues --    0.10567   0.11418   0.11895   0.13954   0.14202

 Mulliken charges:
               1
     1  C   -0.545473
     2  C    0.206223
     3  C   -0.208193
     4  C   -0.107200
     5  C   -0.207516
     6  C    0.193512
     7  C   -0.568407
     8  C    0.126759
     9  N   -0.792504
    10  S    1.232108
    11  O   -0.534250
    12  O   -0.534507
    13  C   -0.563744
    14  C    0.138319
    15  C   -0.171052
    16  C   -0.131391
    17  C   -0.125904
    18  C   -0.132129
    19  C   -0.153306
    20  H    0.157868
    21  H    0.192825
    22  H    0.149692
    23  H    0.124488
    24  H    0.129224
    25  H    0.124564
    26  H    0.201537
    27  H    0.162351
    28  H    0.153367
    29  H    0.357079
    30  H    0.208432
    31  H    0.213330
    32  H    0.139236
    33  H    0.136524
    34  H    0.136351
    35  H    0.138928
    36  H    0.152858
 Sum of Mulliken charges =  -0.00000

 Dipole moment (field-independent basis, Debye):
    X=             -1.7449    Y=             -0.4627    Z=             -3.3600  Tot=              3.8142
 Quadrupole moment (field-independent basis, Debye-Ang):
   XX=           -106.2288   YY=           -112.6459   ZZ=           -123.6942
   XY=              0.5700   XZ=             -2.4046   YZ=             -1.8347

 Normal termination of Gaussian 16 at Fri Nov  4 21:38:18 2022.
