 Gaussian 16, Revision B.01,
 Gaussian 16:  ES64L-G16RevB.01 20-Dec-2017

 -----------------------------
 #p b3lyp/6-31g(d) opt SCF=XQC
 -----------------------------

 ------------------------------
 Gaussian input prepared by ASE
 ------------------------------
 Symbolic Z-matrix:
 Charge =  0 Multiplicity = 1

 SCF Done:  E(RB3LYP) =  -2153.10385745     A.U. after   17 cycles
 SCF Done:  E(RB3LYP) =  -2153.11881483     A.U. after   15 cycles
 SCF Done:  E(RB3LYP) =  -2153.12541122     A.U. after   16 cycles
 SCF Done:  E(RB3LYP) =  -2153.12294735     A.U. after   16 cycles
 SCF Done:  E(RB3LYP) =  -2153.13070281     A.U. after   14 cycles
 SCF Done:  E(RB3LYP) =  -2153.13166153     A.U. after   15 cycles
 SCF Done:  E(RB3LYP) =  -2153.13217767     A.U. after   13 cycles
 SCF Done:  E(RB3LYP) =  -2153.13237705     A.U. after   12 cycles
 SCF Done:  E(RB3LYP) =  -2153.13253126     A.U. after   12 cycles
 SCF Done:  E(RB3LYP) =  -2153.13260489     A.U. after   10 cycles
 SCF Done:  E(RB3LYP) =  -2153.13401762     A.U. after   11 cycles
 SCF Done:  E(RB3LYP) =  -2153.13406520     A.U. after   12 cycles
 SCF Done:  E(RB3LYP) =  -2153.13412268     A.U. after   12 cycles
 SCF Done:  E(RB3LYP) =  -2153.13413399     A.U. after   11 cycles
 SCF Done:  E(RB3LYP) =  -2153.13414014     A.U. after   10 cycles
 SCF Done:  E(RB3LYP) =  -2153.13414439     A.U. after   10 cycles
 SCF Done:  E(RB3LYP) =  -2153.13414521     A.U. after   10 cycles
 SCF Done:  E(RB3LYP) =  -2153.13414613     A.U. after    9 cycles
 SCF Done:  E(RB3LYP) =  -2153.13414628     A.U. after    8 cycles
 SCF Done:  E(RB3LYP) =  -2153.13414630     A.U. after    6 cycles
 Optimization completed.
    -- Stationary point found.

                         Standard orientation:
 ---------------------------------------------------------------------
 Center     Atomic      Atomic             Coordinates (Angstroms)
 Number     Number       Type             X           Y           Z
 ---------------------------------------------------------------------
      1          6           0       -5.749711    1.117167   -2.964256
      2          8           0       -6.090462    1.055928   -1.583007
      3          6           0       -5.130884    0.659827   -0.702780
      4          6           0       -3.870618    0.186716   -1.071812
      5          6           0       -2.938790   -0.193801   -0.091427
      6          6           0       -1.599174   -0.706904   -0.469975
      7          6           0       -1.056635   -1.803010    0.209363
      8          6           0        0.206398   -2.307223   -0.123448
      9          6           0        0.803447   -3.476452    0.565356
     10          6           0        2.191435   -3.694324    0.502513
     11          6           0        2.764450   -4.782583    1.156250
     12          6           0        1.967155   -5.677053    1.873353
     13          6           0        0.586293   -5.477702    1.931226
     14          6           0        0.009483   -4.387594    1.284170
     15          7           0        0.944217   -1.736784   -1.101527
     16          6           0        0.459991   -0.698228   -1.757119
     17         16           0        1.466519    0.021189   -3.057704
     18          6           0        2.992407   -0.972943   -2.879261
     19          6           0        3.880931   -0.720254   -1.650266
     20          8           0        4.617385   -1.615719   -1.257801
     21          7           0        3.811273    0.539950   -1.122248
     22          6           0        4.528827    1.086230   -0.036508
     23          6           0        5.618374    0.444422    0.527378
     24          6           0        6.325710    1.043184    1.593796
     25          6           0        5.964685    2.271373    2.093783
     26          6           0        4.849369    2.955332    1.546737
     27          7           0        4.527497    4.169920    2.082038
     28          6           0        3.483612    4.807911    1.595543
     29          6           0        2.666482    4.304866    0.556233
     30          6           0        2.977256    3.084770    0.002312
     31          6           0        4.102805    2.359869    0.474868
     32          6           0       -0.810882   -0.126593   -1.493303
     33          6           0       -1.218617    1.030988   -2.223893
     34          7           0       -1.508483    1.974096   -2.843389
     35          6           0       -3.287272   -0.101586    1.260840
     36          6           0       -4.552266    0.357929    1.636096
     37          8           0       -4.866170    0.375190    2.970575
     38          6           0       -5.081855    1.668627    3.548690
     39          6           0       -5.487435    0.736309    0.661897
     40          8           0       -6.708947    1.224351    1.045413
     41          6           0       -7.813368    0.334575    0.841032
     42          1           0       -4.876331    1.758878   -3.131174
     43          1           0       -6.620538    1.544604   -3.463792
     44          1           0       -5.551684    0.118007   -3.373735
     45          1           0       -3.614271    0.099451   -2.118709
     46          1           0       -1.635909   -2.259754    1.001633
     47          1           0        2.818929   -3.005354   -0.051839
     48          1           0        3.839567   -4.929794    1.103962
     49          1           0        2.417188   -6.526569    2.380005
     50          1           0       -0.044670   -6.175466    2.474900
     51          1           0       -1.068825   -4.266233    1.319095
     52          1           0        3.571030   -0.749842   -3.783371
     53          1           0        2.742783   -2.033321   -2.880433
     54          1           0        3.134163    1.144862   -1.568055
     55          1           0        5.919443   -0.519602    0.143077
     56          1           0        7.176865    0.513131    2.012267
     57          1           0        6.501872    2.749878    2.905695
     58          1           0        3.255544    5.775237    2.042669
     59          1           0        1.808266    4.873412    0.211568
     60          1           0        2.334906    2.690805   -0.780819
     61          1           0       -2.585328   -0.362280    2.045458
     62          1           0       -5.927705    2.177886    3.079416
     63          1           0       -5.293914    1.491035    4.605328
     64          1           0       -4.179231    2.287079    3.459047
     65          1           0       -8.694824    0.858983    1.216137
     66          1           0       -7.671981   -0.594476    1.406777
     67          1           0       -7.945216    0.109060   -0.221737
 ---------------------------------------------------------------------

 The electronic state is 1-A.
 Alpha  occ. eigenvalues --  -88.91090 -19.18999 -19.17150 -19.16816 -19.13137
 Alpha  occ. eigenvalues --  -14.38484 -14.35311 -14.34528 -14.32798 -10.30825
 Alpha  occ. eigenvalues --  -10.28630 -10.26142 -10.25931 -10.25206 -10.24985
 Alpha  occ. eigenvalues --  -10.24964 -10.24772 -10.24691 -10.24491 -10.23938
 Alpha  occ. eigenvalues --  -10.23848 -10.23572 -10.23178 -10.22585 -10.22479
 Alpha  occ. eigenvalues --  -10.21948 -10.21456 -10.21426 -10.21163 -10.20847
 Alpha  occ. eigenvalues --  -10.20196 -10.20152 -10.20097 -10.19915 -10.19807
 Alpha  occ. eigenvalues --  -10.19752 -10.19426 -10.19421 -10.19236 -10.18805
 Alpha  occ. eigenvalues --  -10.18460  -7.97190  -5.93697  -5.93273  -5.92725
 Alpha  occ. eigenvalues --   -1.08084  -1.06151  -1.04994  -1.04318  -0.97851
 Alpha  occ. eigenvalues --   -0.95472  -0.93944  -0.91443  -0.87511  -0.86540
 Alpha  occ. eigenvalues --   -0.84591  -0.83639  -0.83155  -0.80888  -0.79219
 Alpha  occ. eigenvalues --   -0.77072  -0.76272  -0.75318  -0.75232  -0.75093
 Alpha  occ. eigenvalues --   -0.74108  -0.71774  -0.70480  -0.70137  -0.68615
 Alpha  occ. eigenvalues --   -0.67103  -0.65097  -0.64278  -0.63892  -0.62581
 Alpha  occ. eigenvalues --   -0.61176  -0.60413  -0.59891  -0.58852  -0.57595
 Alpha  occ. eigenvalues --   -0.56949  -0.55326  -0.54062  -0.53426  -0.52888
 Alpha  occ. eigenvalues --   -0.52270  -0.51602  -0.51122  -0.50418  -0.49646
 Alpha  occ. eigenvalues --   -0.48915  -0.48744  -0.48144  -0.47808  -0.46620
 Alpha  occ. eigenvalues --   -0.46256  -0.45961  -0.45424  -0.45235  -0.45223
 Alpha  occ. eigenvalues --   -0.44906  -0.44630  -0.44276  -0.44013  -0.43489
 Alpha  occ. eigenvalues --   -0.43155  -0.42535  -0.42255  -0.42140  -0.41856
 Alpha  occ. eigenvalues --   -0.41356  -0.41064  -0.40627  -0.40550  -0.39252
 Alpha  occ. eigenvalues --   -0.38909  -0.38743  -0.38204  -0.37173  -0.36924
 Alpha  occ. eigenvalues --   -0.36571  -0.36202  -0.35969  -0.35489  -0.35325
 Alpha  occ. eigenvalues --   -0.35208  -0.35048  -0.34408  -0.34110  -0.33913
 Alpha  occ. eigenvalues --   -0.33403  -0.31757  -0.31591  -0.29794  -0.28981
 Alpha  occ. eigenvalues --   -0.28622  -0.28163  -0.27587  -0.27318  -0.25740
 Alpha  occ. eigenvalues --   -0.25521  -0.25190  -0.25018  -0.23728  -0.23489
 Alpha  occ. eigenvalues --   -0.22705  -0.21439
 Alpha virt. eigenvalues --   -0.08054  -0.05391  -0.05002  -0.01539  -0.00943
 Alpha virt. eigenvalues --   -0.00689  -0.00482  -0.00248   0.00510   0.01232
 Alpha virt. eigenvalues --    0.03992   0.04372   0.06328   0.06943   0.07267

 Mulliken charges:
               1
     1  C   -0.229376
     2  O   -0.512190
     3  C    0.357654
     4  C   -0.248837
     5  C    0.081583
     6  C    0.141130
     7  C   -0.247582
     8  C    0.267089
     9  C    0.098050
    10  C   -0.171132
    11  C   -0.142420
    12  C   -0.118602
    13  C   -0.138443
    14  C   -0.174552
    15  N   -0.527765
    16  C    0.082064
    17  S    0.156136
    18  C   -0.532404
    19  C    0.640775
    20  O   -0.502998
    21  N   -0.726392
    22  C    0.276688
    23  C   -0.167903
    24  C   -0.149622
    25  C   -0.131704
    26  C    0.224906
    27  N   -0.496746
    28  C    0.046631
    29  C   -0.155058
    30  C   -0.163057
    31  C    0.104108
    32  C    0.072003
    33  C    0.234538
    34  N   -0.509810
    35  C   -0.236594
    36  C    0.332342
    37  O   -0.527398
    38  C   -0.219094
    39  C    0.268951
    40  O   -0.520104
    41  C   -0.212543
    42  H    0.180900
    43  H    0.173926
    44  H    0.153893
    45  H    0.155952
    46  H    0.159467
    47  H    0.191384
    48  H    0.143792
    49  H    0.136102
    50  H    0.135223
    51  H    0.135495
    52  H    0.208625
    53  H    0.231849
    54  H    0.364281
    55  H    0.184738
    56  H    0.138262
    57  H    0.142597
    58  H    0.142307
    59  H    0.144983
    60  H    0.150623
    61  H    0.144986
    62  H    0.176256
    63  H    0.160614
    64  H    0.143979
    65  H    0.162513
    66  H    0.151139
    67  H    0.163790
 Sum of Mulliken charges =  -0.00000

 Dipole moment (field-independent basis, Debye):
    X=             -3.7819    Y=             -2.3815    Z=             -0.2020  Tot=              4.4738
 Quadrupole moment (field-independent basis, Debye-Ang):
   XX=           -229.4721   YY=           -237.6258   ZZ=           -236.6191
   XY=             -2.0325   XZ=             -2.5713   YZ=             -3.3552

 Normal termination of Gaussian 16 at Fri Nov  4 10:55:50 2022.
