 Gaussian 16, Revision B.01,
 Gaussian 16:  ES64L-G16RevB.01 20-Dec-2017

 -------------------------------------------------------------------
 #p b3lyp/6-31g(d) 6D 10F nosymm GFInput td=(50-50,nstate=2) SCF=XQC
 -------------------------------------------------------------------

 ------------------------------
 Gaussian input prepared by ASE
 ------------------------------
 Symbolic Z-matrix:
 Charge =  0 Multiplicity = 1

                          Input orientation:
 ---------------------------------------------------------------------
 Center     Atomic      Atomic             Coordinates (Angstroms)
 Number     Number       Type             X           Y           Z
 ---------------------------------------------------------------------
      1          6           0       -4.132517   -3.232261    3.770786
      2          8           0       -4.609180   -3.383397    2.437496
      3          6           0       -4.004252   -2.661956    1.454607
      4          6           0       -3.030890   -1.686965    1.678764
      5          6           0       -2.454807   -0.995911    0.599494
      6          6           0       -1.425898    0.049087    0.824159
      7          6           0       -1.471213    1.239149    0.089996
      8          6           0       -0.512273    2.241826    0.277924
      9          6           0       -0.540380    3.520620   -0.471683
     10          6           0        0.623877    4.303800   -0.566867
     11          6           0        0.611987    5.500725   -1.279087
     12          6           0       -0.558472    5.943697   -1.898599
     13          6           0       -1.723619    5.180525   -1.799245
     14          6           0       -1.715060    3.980024   -1.093235
     15          7           0        0.494968    2.079594    1.164244
     16          6           0        0.566002    0.965088    1.868308
     17         16           0        1.911734    0.795492    3.044072
     18          6           0        2.847110    2.329079    2.695276
     19          6           0        3.625755    2.416568    1.372470
     20          8           0        3.869696    3.519393    0.900752
     21          7           0        4.040306    1.220763    0.852885
     22          6           0        4.803956    0.976942   -0.308806
     23          6           0        5.455096    1.990225   -0.991648
     24          6           0        6.233729    1.695433   -2.133101
     25          6           0        6.375334    0.407594   -2.591569
     26          6           0        5.717041   -0.655489   -1.922620
     27          7           0        5.884472   -1.916186   -2.420601
     28          6           0        5.264767   -2.910397   -1.819839
     29          6           0        4.424881   -2.749713   -0.693033
     30          6           0        4.247071   -1.487828   -0.175276
     31          6           0        4.905049   -0.379908   -0.771290
     32          6           0       -0.364326   -0.098818    1.749660
     33          6           0       -0.166325   -1.285639    2.519239
     34          7           0        0.035630   -2.233682    3.165523
     35          6           0       -2.870590   -1.288052   -0.704479
     36          6           0       -3.854601   -2.252992   -0.934249
     37          8           0       -4.269058   -2.461857   -2.224315
     38          6           0       -3.977173   -3.751405   -2.777112
     39          6           0       -4.435240   -2.943796    0.139261
     40          8           0       -5.368912   -3.916716   -0.103736
     41          6           0       -6.717864   -3.564552    0.227213
     42          1           0       -3.057671   -3.439502    3.835619
     43          1           0       -4.683981   -3.962358    4.365280
     44          1           0       -4.333577   -2.224622    4.157370
     45          1           0       -2.727806   -1.452050    2.689841
     46          1           0       -2.268306    1.373450   -0.630054
     47          1           0        1.537679    3.968307   -0.089222
     48          1           0        1.523285    6.088000   -1.349279
     49          1           0       -0.564916    6.879353   -2.451237
     50          1           0       -2.643145    5.523025   -2.265866
     51          1           0       -2.638341    3.415639   -1.005370
     52          1           0        3.556585    2.411427    3.527055
     53          1           0        2.174567    3.185450    2.727354
     54          1           0        3.732628    0.408669    1.371516
     55          1           0        5.359032    3.008124   -0.641898
     56          1           0        6.732587    2.514013   -2.644577
     57          1           0        6.976500    0.162072   -3.460509
     58          1           0        5.421406   -3.903527   -2.240328
     59          1           0        3.928232   -3.609545   -0.254167
     60          1           0        3.583927   -1.364414    0.676854
     61          1           0       -2.430472   -0.793123   -1.563347
     62          1           0       -4.474741   -4.546572   -2.215720
     63          1           0       -4.353272   -3.728104   -3.802294
     64          1           0       -2.893876   -3.928841   -2.792328
     65          1           0       -7.329114   -4.427258   -0.046253
     66          1           0       -7.041968   -2.689123   -0.348786
     67          1           0       -6.821051   -3.366597    1.298607
 ---------------------------------------------------------------------

 SCF Done:  E(RB3LYP) =  -2153.13413790     A.U. after   17 cycles

 Excitation energies and oscillator strengths:

 Excited state symmetry could not be determined.
 Excited State   1:      Triplet-?Sym    2.5935 eV  478.06 nm  f=0.0000  <S**2>=2.000
     136 ->149        -0.11696
     142 ->151        -0.10855
     147 ->149         0.66343
 This state for optimization and/or second-order correction.
 Total Energy, E(TD-HF/TD-DFT) =  -2153.03882953
 Copying the excited state density for this state as the 1-particle RhoCI density.

 Excited state symmetry could not be determined.
 Excited State   2:      Triplet-?Sym    2.7378 eV  452.86 nm  f=0.0000  <S**2>=2.000
     134 ->148        -0.10874
     143 ->148         0.12946
     144 ->148        -0.18300
     145 ->148         0.57983
     145 ->150        -0.16841
     146 ->150        -0.10397

 Excited state symmetry could not be determined.
 Excited State   3:      Singlet-?Sym    3.2053 eV  386.81 nm  f=0.0046  <S**2>=0.000
     147 ->148         0.70656

 Excited state symmetry could not be determined.
 Excited State   4:      Singlet-?Sym    3.4626 eV  358.07 nm  f=0.1248  <S**2>=0.000
     144 ->148        -0.12104
     146 ->148         0.68824

 Alpha  occ. eigenvalues --  -88.91090 -19.18999 -19.17150 -19.16817 -19.13137
 Alpha  occ. eigenvalues --  -14.38484 -14.35311 -14.34528 -14.32798 -10.30825
 Alpha  occ. eigenvalues --  -10.28630 -10.26142 -10.25931 -10.25206 -10.24985
 Alpha  occ. eigenvalues --  -10.24964 -10.24772 -10.24691 -10.24491 -10.23938
 Alpha  occ. eigenvalues --  -10.23848 -10.23572 -10.23178 -10.22585 -10.22479
 Alpha  occ. eigenvalues --  -10.21948 -10.21456 -10.21426 -10.21163 -10.20847
 Alpha  occ. eigenvalues --  -10.20196 -10.20152 -10.20096 -10.19915 -10.19807
 Alpha  occ. eigenvalues --  -10.19752 -10.19426 -10.19421 -10.19236 -10.18805
 Alpha  occ. eigenvalues --  -10.18460  -7.97190  -5.93697  -5.93273  -5.92725
 Alpha  occ. eigenvalues --   -1.08084  -1.06151  -1.04994  -1.04318  -0.97852
 Alpha  occ. eigenvalues --   -0.95472  -0.93944  -0.91443  -0.87510  -0.86540
 Alpha  occ. eigenvalues --   -0.84591  -0.83639  -0.83155  -0.80888  -0.79219
 Alpha  occ. eigenvalues --   -0.77072  -0.76272  -0.75318  -0.75232  -0.75093
 Alpha  occ. eigenvalues --   -0.74108  -0.71774  -0.70480  -0.70137  -0.68615
 Alpha  occ. eigenvalues --   -0.67103  -0.65097  -0.64278  -0.63892  -0.62581
 Alpha  occ. eigenvalues --   -0.61176  -0.60413  -0.59891  -0.58852  -0.57595
 Alpha  occ. eigenvalues --   -0.56949  -0.55326  -0.54062  -0.53426  -0.52888
 Alpha  occ. eigenvalues --   -0.52270  -0.51602  -0.51122  -0.50418  -0.49646
 Alpha  occ. eigenvalues --   -0.48915  -0.48744  -0.48144  -0.47808  -0.46620
 Alpha  occ. eigenvalues --   -0.46256  -0.45961  -0.45424  -0.45235  -0.45223
 Alpha  occ. eigenvalues --   -0.44906  -0.44630  -0.44276  -0.44013  -0.43489
 Alpha  occ. eigenvalues --   -0.43155  -0.42535  -0.42255  -0.42140  -0.41856
 Alpha  occ. eigenvalues --   -0.41356  -0.41064  -0.40627  -0.40550  -0.39251
 Alpha  occ. eigenvalues --   -0.38909  -0.38742  -0.38204  -0.37173  -0.36924
 Alpha  occ. eigenvalues --   -0.36571  -0.36202  -0.35969  -0.35489  -0.35325
 Alpha  occ. eigenvalues --   -0.35208  -0.35048  -0.34408  -0.34110  -0.33913
 Alpha  occ. eigenvalues --   -0.33403  -0.31757  -0.31591  -0.29794  -0.28981
 Alpha  occ. eigenvalues --   -0.28622  -0.28163  -0.27587  -0.27318  -0.25740
 Alpha  occ. eigenvalues --   -0.25521  -0.25190  -0.25018  -0.23728  -0.23489
 Alpha  occ. eigenvalues --   -0.22704  -0.21439
 Alpha virt. eigenvalues --   -0.08054  -0.05391  -0.05002  -0.01539  -0.00943
 Alpha virt. eigenvalues --   -0.00689  -0.00482  -0.00248   0.00510   0.01232
 Alpha virt. eigenvalues --    0.03992   0.04372   0.06328   0.06943   0.07267

 Mulliken charges:
               1
     1  C   -0.229377
     2  O   -0.512192
     3  C    0.357664
     4  C   -0.248855
     5  C    0.081628
     6  C    0.141104
     7  C   -0.247559
     8  C    0.267066
     9  C    0.098047
    10  C   -0.171140
    11  C   -0.142410
    12  C   -0.118604
    13  C   -0.138448
    14  C   -0.174544
    15  N   -0.527767
    16  C    0.082071
    17  S    0.156136
    18  C   -0.532409
    19  C    0.640771
    20  O   -0.502997
    21  N   -0.726382
    22  C    0.276688
    23  C   -0.167914
    24  C   -0.149639
    25  C   -0.131688
    26  C    0.224889
    27  N   -0.496757
    28  C    0.046651
    29  C   -0.155076
    30  C   -0.163058
    31  C    0.104143
    32  C    0.072014
    33  C    0.234520
    34  N   -0.509811
    35  C   -0.236596
    36  C    0.332338
    37  O   -0.527408
    38  C   -0.219092
    39  C    0.268968
    40  O   -0.520111
    41  C   -0.212547
    42  H    0.180901
    43  H    0.173927
    44  H    0.153892
    45  H    0.155951
    46  H    0.159467
    47  H    0.191386
    48  H    0.143791
    49  H    0.136103
    50  H    0.135224
    51  H    0.135495
    52  H    0.208625
    53  H    0.231850
    54  H    0.364277
    55  H    0.184741
    56  H    0.138264
    57  H    0.142597
    58  H    0.142306
    59  H    0.144985
    60  H    0.150621
    61  H    0.144987
    62  H    0.176256
    63  H    0.160614
    64  H    0.143979
    65  H    0.162514
    66  H    0.151139
    67  H    0.163790
 Sum of Mulliken charges =  -0.00000

 Dipole moment (field-independent basis, Debye):
    X=             -4.3900    Y=              0.5800    Z=              0.6372  Tot=              4.4737
 Quadrupole moment (field-independent basis, Debye-Ang):
   XX=           -234.0872   YY=           -234.7518   ZZ=           -236.9040
   XY=              4.2504   XZ=              2.4535   YZ=             -2.3769

 Normal termination of Gaussian 16 at Sat Nov  5 09:43:07 2022.
