 Gaussian 16, Revision B.01,
 Gaussian 16:  ES64L-G16RevB.01 20-Dec-2017

 -----------------------------
 #p b3lyp/6-31g(d) opt SCF=XQC
 -----------------------------

 ------------------------------
 Gaussian input prepared by ASE
 ------------------------------
 Symbolic Z-matrix:
 Charge =  0 Multiplicity = 1

 SCF Done:  E(RB3LYP) =  -1589.03290673     A.U. after   18 cycles
 SCF Done:  E(RB3LYP) =  -1589.04136484     A.U. after   15 cycles
 SCF Done:  E(RB3LYP) =  -1589.03808792     A.U. after   16 cycles
 SCF Done:  E(RB3LYP) =  -1589.04358588     A.U. after   14 cycles
 SCF Done:  E(RB3LYP) =  -1589.04544947     A.U. after   15 cycles
 SCF Done:  E(RB3LYP) =  -1589.04502130     A.U. after   15 cycles
 SCF Done:  E(RB3LYP) =  -1589.04691934     A.U. after   13 cycles
 SCF Done:  E(RB3LYP) =  -1589.04702543     A.U. after   13 cycles
 SCF Done:  E(RB3LYP) =  -1589.04720261     A.U. after   13 cycles
 SCF Done:  E(RB3LYP) =  -1589.04735140     A.U. after   13 cycles
 SCF Done:  E(RB3LYP) =  -1589.04761477     A.U. after   11 cycles
 SCF Done:  E(RB3LYP) =  -1589.04761981     A.U. after   10 cycles
 SCF Done:  E(RB3LYP) =  -1589.04762829     A.U. after   10 cycles
 SCF Done:  E(RB3LYP) =  -1589.04764007     A.U. after   11 cycles
 SCF Done:  E(RB3LYP) =  -1589.04764799     A.U. after   10 cycles
 SCF Done:  E(RB3LYP) =  -1589.04765486     A.U. after   10 cycles
 SCF Done:  E(RB3LYP) =  -1589.04765671     A.U. after    8 cycles
 SCF Done:  E(RB3LYP) =  -1589.04765740     A.U. after   10 cycles
 SCF Done:  E(RB3LYP) =  -1589.04765748     A.U. after    7 cycles
 SCF Done:  E(RB3LYP) =  -1589.04765751     A.U. after    7 cycles
 Optimization completed.
    -- Stationary point found.

                         Standard orientation:
 ---------------------------------------------------------------------
 Center     Atomic      Atomic             Coordinates (Angstroms)
 Number     Number       Type             X           Y           Z
 ---------------------------------------------------------------------
      1          6           0        7.176252    3.238719    1.085621
      2          6           0        6.455055    1.988273    1.602773
      3          6           0        6.836278    0.668558    0.890128
      4          6           0        8.305522    0.303055    1.108019
      5          6           0        6.519602    0.650339   -0.627235
      6          6           0        5.064506    0.857962   -1.076018
      7          6           0        4.300414   -0.468140   -1.209207
      8          8           0        4.875734   -1.503304   -1.519498
      9          7           0        2.945251   -0.355008   -1.034458
     10          6           0        1.942593   -1.345178   -1.152804
     11          6           0        2.210990   -2.675647   -1.503803
     12          6           0        1.151302   -3.581452   -1.579448
     13          6           0       -0.157663   -3.190424   -1.316149
     14          6           0       -0.437495   -1.856164   -0.988382
     15          6           0       -1.878653   -1.488921   -0.690977
     16          8           0       -2.621110   -2.400714   -0.303354
     17          6           0       -2.242319   -0.105758   -0.940680
     18          6           0       -3.319020    0.701098   -0.598567
     19          7           0       -3.233982    2.007552   -1.022112
     20          6           0       -4.249394    3.058057   -0.873005
     21          6           0       -5.338836    2.932584   -1.958848
     22          6           0       -3.536918    4.411615   -1.002061
     23          6           0       -4.829953    2.886437    0.538947
     24          6           0       -5.276746    1.463736    0.761425
     25          6           0       -6.418866    1.181262    1.501632
     26          6           0       -6.858199   -0.128477    1.713821
     27          6           0       -6.130979   -1.181758    1.155650
     28          8           0       -6.462800   -2.500586    1.273324
     29          6           0       -7.607365   -2.838095    2.036948
     30          6           0       -4.976158   -0.921056    0.405848
     31          6           0       -4.529994    0.388208    0.209955
     32          6           0        0.620924   -0.946334   -0.905145
     33          7           0        5.968435   -0.430562    1.555970
     34          8           0        6.508955   -1.464368    1.925301
     35          8           0        4.764375   -0.195046    1.669517
     36          1           0        6.951234    3.440316    0.032649
     37          1           0        8.263659    3.165960    1.190590
     38          1           0        6.850812    4.112244    1.660642
     39          1           0        6.673277    1.864539    2.671513
     40          1           0        5.374171    2.130312    1.529891
     41          1           0        8.939311    1.049101    0.619166
     42          1           0        8.555993    0.280482    2.172606
     43          1           0        8.535526   -0.675704    0.683577
     44          1           0        7.150305    1.426938   -1.071817
     45          1           0        6.855905   -0.305548   -1.042439
     46          1           0        5.078340    1.297353   -2.083062
     47          1           0        4.529194    1.565143   -0.434995
     48          1           0        2.617103    0.539452   -0.696717
     49          1           0        3.229110   -2.982273   -1.696647
     50          1           0        1.363290   -4.614093   -1.844121
     51          1           0       -0.979010   -3.897408   -1.353883
     52          1           0       -1.482192    0.426411   -1.509492
     53          1           0       -2.477065    2.211770   -1.661323
     54          1           0       -4.893353    3.009444   -2.957128
     55          1           0       -5.855950    1.971499   -1.889593
     56          1           0       -6.082794    3.731520   -1.855993
     57          1           0       -3.080711    4.524072   -1.994146
     58          1           0       -2.751293    4.515785   -0.246059
     59          1           0       -4.251619    5.231223   -0.874283
     60          1           0       -4.050473    3.161683    1.264812
     61          1           0       -5.666111    3.579069    0.688297
     62          1           0       -6.991508    2.003939    1.924076
     63          1           0       -7.756764   -0.304174    2.294236
     64          1           0       -7.510305   -2.508524    3.080427
     65          1           0       -7.675272   -3.927116    2.008994
     66          1           0       -8.523190   -2.407750    1.608560
     67          1           0       -4.414226   -1.754693    0.002860
     68          1           0        0.426171    0.082300   -0.609953
 ---------------------------------------------------------------------

 The electronic state is 1-A.
 Alpha  occ. eigenvalues --  -19.17961 -19.17665 -19.17142 -19.11808 -19.10006
 Alpha  occ. eigenvalues --  -14.55753 -14.37402 -14.36233 -10.29289 -10.25852
 Alpha  occ. eigenvalues --  -10.25404 -10.24948 -10.24778 -10.24209 -10.23668
 Alpha  occ. eigenvalues --  -10.22906 -10.20744 -10.20529 -10.20421 -10.20252
 Alpha  occ. eigenvalues --  -10.19716 -10.19565 -10.19527 -10.19519 -10.19076
 Alpha  occ. eigenvalues --  -10.19051 -10.18961 -10.18646 -10.18439 -10.18328
 Alpha  occ. eigenvalues --  -10.17832 -10.17544 -10.17313 -10.17136 -10.16858
 Alpha  occ. eigenvalues --   -1.21704  -1.05820  -1.04630  -1.03689  -0.99869
 Alpha  occ. eigenvalues --   -0.95936  -0.93850  -0.85991  -0.85426  -0.83950
 Alpha  occ. eigenvalues --   -0.82437  -0.78179  -0.77431  -0.75707  -0.75588
 Alpha  occ. eigenvalues --   -0.75226  -0.73462  -0.72324  -0.71211  -0.70282
 Alpha  occ. eigenvalues --   -0.69845  -0.67050  -0.66640  -0.65236  -0.63949
 Alpha  occ. eigenvalues --   -0.62919  -0.60919  -0.60514  -0.59332  -0.56807
 Alpha  occ. eigenvalues --   -0.55872  -0.55501  -0.53782  -0.53006  -0.52678
 Alpha  occ. eigenvalues --   -0.51968  -0.51289  -0.50392  -0.49797  -0.48904
 Alpha  occ. eigenvalues --   -0.48393  -0.47851  -0.47797  -0.46805  -0.46381
 Alpha  occ. eigenvalues --   -0.46343  -0.45734  -0.44886  -0.44639  -0.44503
 Alpha  occ. eigenvalues --   -0.43710  -0.42880  -0.42592  -0.42172  -0.41974
 Alpha  occ. eigenvalues --   -0.41796  -0.41403  -0.40998  -0.40790  -0.40562
 Alpha  occ. eigenvalues --   -0.40097  -0.39741  -0.38685  -0.38649  -0.38506
 Alpha  occ. eigenvalues --   -0.38140  -0.37700  -0.37484  -0.37220  -0.36884
 Alpha  occ. eigenvalues --   -0.36753  -0.36232  -0.35110  -0.34852  -0.34689
 Alpha  occ. eigenvalues --   -0.34185  -0.33897  -0.33785  -0.33307  -0.33183
 Alpha  occ. eigenvalues --   -0.32056  -0.30485  -0.30241  -0.29549  -0.28916
 Alpha  occ. eigenvalues --   -0.28439  -0.25260  -0.25012  -0.24092  -0.22295
 Alpha  occ. eigenvalues --   -0.21244  -0.20973  -0.20037
 Alpha virt. eigenvalues --   -0.05886  -0.05282  -0.00923  -0.00186   0.00908
 Alpha virt. eigenvalues --    0.03579   0.05348   0.06105   0.06321   0.07567
 Alpha virt. eigenvalues --    0.08611   0.09280   0.09708   0.10781   0.11051

 Mulliken charges:
               1
     1  C   -0.461169
     2  C   -0.266742
     3  C    0.139681
     4  C   -0.456275
     5  C   -0.284781
     6  C   -0.381641
     7  C    0.641662
     8  O   -0.508808
     9  N   -0.719382
    10  C    0.361186
    11  C   -0.156916
    12  C   -0.147788
    13  C   -0.156927
    14  C    0.072341
    15  C    0.391507
    16  O   -0.514536
    17  C   -0.355545
    18  C    0.410912
    19  N   -0.669222
    20  C    0.214810
    21  C   -0.435512
    22  C   -0.468271
    23  C   -0.336913
    24  C    0.129025
    25  C   -0.223379
    26  C   -0.184089
    27  C    0.369555
    28  O   -0.498240
    29  C   -0.214040
    30  C   -0.241658
    31  C    0.039798
    32  C   -0.255214
    33  N    0.461103
    34  O   -0.365088
    35  O   -0.386356
    36  H    0.150455
    37  H    0.156001
    38  H    0.157610
    39  H    0.152082
    40  H    0.169894
    41  H    0.152416
    42  H    0.162434
    43  H    0.182909
    44  H    0.151404
    45  H    0.195693
    46  H    0.173592
    47  H    0.153520
    48  H    0.330093
    49  H    0.185459
    50  H    0.133674
    51  H    0.152759
    52  H    0.103445
    53  H    0.318886
    54  H    0.141729
    55  H    0.169290
    56  H    0.142406
    57  H    0.142673
    58  H    0.154999
    59  H    0.157028
    60  H    0.155469
    61  H    0.143825
    62  H    0.123196
    63  H    0.132463
    64  H    0.149832
    65  H    0.172952
    66  H    0.146977
    67  H    0.223681
    68  H    0.118065
 Sum of Mulliken charges =  -0.00000

 Dipole moment (field-independent basis, Debye):
    X=             -1.4829    Y=              9.6166    Z=             -0.6954  Tot=              9.7551
 Quadrupole moment (field-independent basis, Debye-Ang):
   XX=           -161.1299   YY=           -196.7327   ZZ=           -205.5426
   XY=             16.3706   XZ=            -10.8324   YZ=             -3.1561

 Normal termination of Gaussian 16 at Fri Nov  4 22:23:06 2022.
