 Gaussian 16, Revision B.01,
 Gaussian 16:  ES64L-G16RevB.01 20-Dec-2017

 -------------------------------------------------------------------
 #p b3lyp/6-31g(d) 6D 10F nosymm GFInput td=(50-50,nstate=2) SCF=XQC
 -------------------------------------------------------------------

 ------------------------------
 Gaussian input prepared by ASE
 ------------------------------
 Symbolic Z-matrix:
 Charge =  0 Multiplicity = 1

                          Input orientation:
 ---------------------------------------------------------------------
 Center     Atomic      Atomic             Coordinates (Angstroms)
 Number     Number       Type             X           Y           Z
 ---------------------------------------------------------------------
      1          6           0        7.017475    3.178887    0.902223
      2          6           0        6.458215    1.784505    1.208999
      3          6           0        6.828263    0.688033    0.181549
      4          6           0        8.334718    0.426057    0.140203
      5          6           0        6.312519    0.961583   -1.254482
      6          6           0        4.799663    1.120241   -1.473370
      7          6           0        4.115704   -0.214066   -1.807958
      8          8           0        4.712537   -1.100526   -2.405298
      9          7           0        2.791799   -0.269881   -1.455877
     10          6           0        1.851344   -1.303260   -1.673685
     11          6           0        2.159169   -2.497516   -2.340305
     12          6           0        1.162387   -3.463301   -2.491393
     13          6           0       -0.122670   -3.263176   -1.997231
     14          6           0       -0.445177   -2.061399   -1.350928
     15          6           0       -1.854741   -1.904201   -0.813644
     16          8           0       -2.475242   -2.943770   -0.554540
     17          6           0       -2.341020   -0.540519   -0.705723
     18          6           0       -3.413879    0.069463   -0.069924
     19          7           0       -3.474744    1.438014   -0.199574
     20          6           0       -4.529362    2.331693    0.296383
     21          6           0       -5.743880    2.336051   -0.655778
     22          6           0       -3.933521    3.743341    0.389219
     23          6           0       -4.902032    1.810511    1.692663
     24          6           0       -5.217997    0.337081    1.643967
     25          6           0       -6.228643   -0.203040    2.430732
     26          6           0       -6.546227   -1.563706    2.396304
     27          6           0       -5.831307   -2.400845    1.537297
     28          8           0       -6.054687   -3.740110    1.396839
     29          6           0       -7.060896   -4.338956    2.194330
     30          6           0       -4.807926   -1.878660    0.734928
     31          6           0       -4.481368   -0.521259    0.784231
     32          6           0        0.551099   -1.093427   -1.191448
     33          7           0        6.133808   -0.604594    0.682957
     34          8           0        6.787469   -1.636987    0.747866
     35          8           0        4.942818   -0.514040    0.985389
     36          1           0        6.639939    3.576603   -0.046098
     37          1           0        8.111534    3.189270    0.861063
     38          1           0        6.714146    3.875812    1.690825
     39          1           0        6.825904    1.458538    2.190675
     40          1           0        5.370249    1.835332    1.295854
     41          1           0        8.845351    1.315517   -0.241065
     42          1           0        8.726917    0.202433    1.136579
     43          1           0        8.571020   -0.414194   -0.514901
     44          1           0        6.823991    1.871091   -1.585747
     45          1           0        6.653612    0.151729   -1.907939
     46          1           0        4.648415    1.762235   -2.352211
     47          1           0        4.308923    1.621435   -0.633398
     48          1           0        2.452497    0.497406   -0.892003
     49          1           0        3.160466   -2.658120   -2.713648
     50          1           0        1.405977   -4.391514   -3.001709
     51          1           0       -0.892122   -4.020942   -2.095199
     52          1           0       -1.701819    0.169855   -1.226621
     53          1           0       -2.826081    1.844002   -0.861109
     54          1           0       -5.442780    2.664603   -1.656935
     55          1           0       -6.181058    1.337392   -0.742052
     56          1           0       -6.519394    3.020640   -0.292090
     57          1           0       -3.623385    4.106225   -0.599282
     58          1           0       -3.062255    3.759237    1.052725
     59          1           0       -4.678154    4.445541    0.778219
     60          1           0       -4.052417    1.998607    2.365718
     61          1           0       -5.755288    2.373087    2.088477
     62          1           0       -6.793442    0.453240    3.089119
     63          1           0       -7.344751   -1.942967    3.023750
     64          1           0       -6.846928   -4.230171    3.266370
     65          1           0       -7.058413   -5.398757    1.933227
     66          1           0       -8.052874   -3.916709    1.981878
     67          1           0       -4.250362   -2.550740    0.094186
     68          1           0        0.328919   -0.173937   -0.654485
 ---------------------------------------------------------------------

 SCF Done:  E(RB3LYP) =  -1589.04766378     A.U. after   18 cycles

 Excitation energies and oscillator strengths:

 Excited state symmetry could not be determined.
 Excited State   1:      Triplet-?Sym    2.3344 eV  531.12 nm  f=0.0000  <S**2>=2.000
     128 ->130         0.68938
 This state for optimization and/or second-order correction.
 Total Energy, E(TD-HF/TD-DFT) =  -1588.96187727
 Copying the excited state density for this state as the 1-particle RhoCI density.

 Excited state symmetry could not be determined.
 Excited State   2:      Triplet-?Sym    2.9399 eV  421.72 nm  f=0.0000  <S**2>=2.000
     125 ->130         0.49534
     126 ->130        -0.10326
     127 ->130        -0.42768
     127 ->131         0.14204

 Excited state symmetry could not be determined.
 Excited State   3:      Singlet-?Sym    3.3346 eV  371.82 nm  f=0.0002  <S**2>=0.000
     125 ->130         0.54519
     126 ->130        -0.10810
     127 ->130        -0.38678
     128 ->130        -0.12167

 Excited state symmetry could not be determined.
 Excited State   4:      Singlet-?Sym    3.5277 eV  351.46 nm  f=0.0004  <S**2>=0.000
     127 ->129        -0.17778
     128 ->129         0.68284

 Alpha  occ. eigenvalues --  -19.17961 -19.17665 -19.17142 -19.11808 -19.10006
 Alpha  occ. eigenvalues --  -14.55753 -14.37402 -14.36233 -10.29289 -10.25852
 Alpha  occ. eigenvalues --  -10.25404 -10.24948 -10.24778 -10.24209 -10.23668
 Alpha  occ. eigenvalues --  -10.22906 -10.20744 -10.20529 -10.20421 -10.20252
 Alpha  occ. eigenvalues --  -10.19716 -10.19565 -10.19527 -10.19519 -10.19076
 Alpha  occ. eigenvalues --  -10.19051 -10.18961 -10.18647 -10.18439 -10.18328
 Alpha  occ. eigenvalues --  -10.17832 -10.17544 -10.17313 -10.17136 -10.16858
 Alpha  occ. eigenvalues --   -1.21704  -1.05820  -1.04630  -1.03689  -0.99870
 Alpha  occ. eigenvalues --   -0.95936  -0.93850  -0.85991  -0.85426  -0.83950
 Alpha  occ. eigenvalues --   -0.82437  -0.78179  -0.77431  -0.75707  -0.75588
 Alpha  occ. eigenvalues --   -0.75226  -0.73462  -0.72324  -0.71211  -0.70282
 Alpha  occ. eigenvalues --   -0.69845  -0.67050  -0.66640  -0.65236  -0.63949
 Alpha  occ. eigenvalues --   -0.62919  -0.60919  -0.60514  -0.59332  -0.56807
 Alpha  occ. eigenvalues --   -0.55872  -0.55501  -0.53782  -0.53006  -0.52678
 Alpha  occ. eigenvalues --   -0.51968  -0.51289  -0.50392  -0.49797  -0.48904
 Alpha  occ. eigenvalues --   -0.48393  -0.47851  -0.47796  -0.46805  -0.46381
 Alpha  occ. eigenvalues --   -0.46343  -0.45734  -0.44886  -0.44639  -0.44503
 Alpha  occ. eigenvalues --   -0.43710  -0.42880  -0.42592  -0.42172  -0.41974
 Alpha  occ. eigenvalues --   -0.41796  -0.41403  -0.40998  -0.40790  -0.40562
 Alpha  occ. eigenvalues --   -0.40097  -0.39741  -0.38685  -0.38649  -0.38506
 Alpha  occ. eigenvalues --   -0.38140  -0.37700  -0.37484  -0.37220  -0.36884
 Alpha  occ. eigenvalues --   -0.36754  -0.36232  -0.35110  -0.34852  -0.34689
 Alpha  occ. eigenvalues --   -0.34185  -0.33897  -0.33786  -0.33307  -0.33183
 Alpha  occ. eigenvalues --   -0.32056  -0.30485  -0.30241  -0.29549  -0.28916
 Alpha  occ. eigenvalues --   -0.28439  -0.25260  -0.25011  -0.24092  -0.22295
 Alpha  occ. eigenvalues --   -0.21244  -0.20973  -0.20037
 Alpha virt. eigenvalues --   -0.05886  -0.05282  -0.00923  -0.00186   0.00908
 Alpha virt. eigenvalues --    0.03579   0.05348   0.06105   0.06321   0.07567
 Alpha virt. eigenvalues --    0.08611   0.09280   0.09708   0.10781   0.11051

 Mulliken charges:
               1
     1  C   -0.461181
     2  C   -0.266728
     3  C    0.139664
     4  C   -0.456265
     5  C   -0.284784
     6  C   -0.381641
     7  C    0.641658
     8  O   -0.508812
     9  N   -0.719371
    10  C    0.361176
    11  C   -0.156912
    12  C   -0.147793
    13  C   -0.156916
    14  C    0.072324
    15  C    0.391486
    16  O   -0.514527
    17  C   -0.355511
    18  C    0.410883
    19  N   -0.669214
    20  C    0.214813
    21  C   -0.435506
    22  C   -0.468276
    23  C   -0.336910
    24  C    0.129015
    25  C   -0.223379
    26  C   -0.184074
    27  C    0.369546
    28  O   -0.498241
    29  C   -0.214042
    30  C   -0.241645
    31  C    0.039795
    32  C   -0.255211
    33  N    0.461100
    34  O   -0.365087
    35  O   -0.386350
    36  H    0.150458
    37  H    0.156003
    38  H    0.157611
    39  H    0.152082
    40  H    0.169893
    41  H    0.152416
    42  H    0.162433
    43  H    0.182907
    44  H    0.151406
    45  H    0.195694
    46  H    0.173591
    47  H    0.153520
    48  H    0.330093
    49  H    0.185461
    50  H    0.133674
    51  H    0.152759
    52  H    0.103444
    53  H    0.318885
    54  H    0.141727
    55  H    0.169291
    56  H    0.142403
    57  H    0.142674
    58  H    0.155000
    59  H    0.157029
    60  H    0.155469
    61  H    0.143825
    62  H    0.123196
    63  H    0.132460
    64  H    0.149833
    65  H    0.172952
    66  H    0.146977
    67  H    0.223681
    68  H    0.118069
 Sum of Mulliken charges =  -0.00000

 Dipole moment (field-independent basis, Debye):
    X=             -2.2073    Y=              9.3601    Z=              1.6360  Tot=              9.7550
 Quadrupole moment (field-independent basis, Debye-Ang):
   XX=           -167.0738   YY=           -199.9731   ZZ=           -204.3753
   XY=             21.7968   XZ=            -11.5416   YZ=             -5.1825

 Normal termination of Gaussian 16 at Sat Nov  5 09:42:50 2022.
