 Gaussian 16, Revision B.01,
 Gaussian 16:  ES64L-G16RevB.01 20-Dec-2017

 -------------------------------------------------------------------
 #p b3lyp/6-31g(d) 6D 10F nosymm GFInput td=(50-50,nstate=2) SCF=XQC
 -------------------------------------------------------------------

 ------------------------------
 Gaussian input prepared by ASE
 ------------------------------
 Symbolic Z-matrix:
 Charge =  0 Multiplicity = 1

                          Input orientation:
 ---------------------------------------------------------------------
 Center     Atomic      Atomic             Coordinates (Angstroms)
 Number     Number       Type             X           Y           Z
 ---------------------------------------------------------------------
      1          6           0       -0.678347   -2.511356   -0.739358
      2          6           0        0.483636   -1.835619   -0.647100
      3          6           0        0.613930   -0.418407   -0.258187
      4          6           0        2.020001    0.112105   -0.227564
      5          6           0        2.791174    0.021643    0.939416
      6          6           0        4.104234    0.495230    0.962307
      7          6           0        4.665530    1.060777   -0.183926
      8          6           0        3.907609    1.150055   -1.352825
      9          6           0        2.594617    0.676230   -1.374870
     10          6           0       -0.342135    0.461752    0.071186
     11          7           0       -1.784667    0.350380    0.161936
     12          6           0       -2.421254    1.511245    0.543446
     13          6           0       -3.766450    1.631540    0.691346
     14          6           0       -4.561657    0.471211    0.431283
     15          6           0       -3.962439   -0.686989    0.053691
     16          6           0       -2.528085   -0.834408   -0.109422
     17          6           0       -2.028285   -2.052688   -0.495554
     18          1           0       -0.612951   -3.556251   -1.039785
     19          1           0        1.414234   -2.346931   -0.870249
     20          1           0        2.354215   -0.418429    1.831932
     21          1           0        4.687441    0.424215    1.876860
     22          1           0        5.687547    1.430077   -0.166272
     23          1           0        4.337056    1.591105   -2.248721
     24          1           0        2.004565    0.745988   -2.284899
     25          1           0       -0.027874    1.466045    0.328002
     26          1           0       -1.757515    2.348334    0.723437
     27          1           0       -4.199888    2.576075    0.994601
     28          1           0       -5.642275    0.515548    0.535340
     29          1           0       -4.554892   -1.573583   -0.146304
     30          1           0       -2.797072   -2.804898   -0.642695
 ---------------------------------------------------------------------

 SCF Done:  E(RB3LYP) =  -672.203127390     A.U. after   17 cycles

 Excitation energies and oscillator strengths:

 Excited state symmetry could not be determined.
 Excited State   1:      Triplet-?Sym    0.3775 eV 3284.76 nm  f=0.0000  <S**2>=2.000
      58 -> 59         0.78089
      58 <- 59         0.35058
 This state for optimization and/or second-order correction.
 Total Energy, E(TD-HF/TD-DFT) =  -672.189256261
 Copying the excited state density for this state as the 1-particle RhoCI density.

 Excited state symmetry could not be determined.
 Excited State   2:      Singlet-?Sym    1.2350 eV 1003.95 nm  f=0.0076  <S**2>=0.000
      58 -> 59         0.70917

 Excited state symmetry could not be determined.
 Excited State   3:      Triplet-?Sym    2.0315 eV  610.31 nm  f=0.0000  <S**2>=2.000
      57 -> 59         0.19963
      58 -> 60         0.64401
      58 -> 62         0.16968

 Excited state symmetry could not be determined.
 Excited State   4:      Singlet-?Sym    2.8817 eV  430.25 nm  f=0.0663  <S**2>=0.000
      58 -> 60         0.70040

 Alpha  occ. eigenvalues --  -14.39834 -10.24224 -10.23888 -10.22305 -10.20362
 Alpha  occ. eigenvalues --  -10.19863 -10.19551 -10.19278 -10.18834 -10.18812
 Alpha  occ. eigenvalues --  -10.18750 -10.18688 -10.18686 -10.18545 -10.18300
 Alpha  occ. eigenvalues --  -10.16646 -10.16024  -0.98068  -0.85661  -0.82523
 Alpha  occ. eigenvalues --   -0.80953  -0.78892  -0.75111  -0.74076  -0.72472
 Alpha  occ. eigenvalues --   -0.67817  -0.65911  -0.64016  -0.60084  -0.59535
 Alpha  occ. eigenvalues --   -0.56230  -0.55309  -0.51422  -0.50851  -0.49105
 Alpha  occ. eigenvalues --   -0.47701  -0.46284  -0.44723  -0.44459  -0.43952
 Alpha  occ. eigenvalues --   -0.42740  -0.42489  -0.41657  -0.40583  -0.38458
 Alpha  occ. eigenvalues --   -0.36890  -0.36492  -0.35482  -0.34428  -0.34288
 Alpha  occ. eigenvalues --   -0.32704  -0.32354  -0.31221  -0.27813  -0.24815
 Alpha  occ. eigenvalues --   -0.24419  -0.24065  -0.14105
 Alpha virt. eigenvalues --   -0.06302  -0.01016   0.00102   0.00448   0.05806
 Alpha virt. eigenvalues --    0.07845   0.09805   0.10057   0.11859   0.12226
 Alpha virt. eigenvalues --    0.14712   0.15091   0.15799   0.16057   0.16244

 Mulliken charges:
               1
     1  C   -0.097065
     2  C   -0.182358
     3  C    0.063198
     4  C    0.018059
     5  C   -0.153926
     6  C   -0.131130
     7  C   -0.126603
     8  C   -0.131139
     9  C   -0.153917
    10  C   -0.035884
    11  N   -0.566549
    12  C    0.103405
    13  C   -0.216960
    14  C   -0.094212
    15  C   -0.209140
    16  C    0.423665
    17  C   -0.265573
    18  H    0.123631
    19  H    0.125493
    20  H    0.135005
    21  H    0.129941
    22  H    0.128638
    23  H    0.129941
    24  H    0.134995
    25  H    0.151006
    26  H    0.163732
    27  H    0.137292
    28  H    0.140728
    29  H    0.141970
    30  H    0.113759
 Sum of Mulliken charges =  -0.00000

 Dipole moment (field-independent basis, Debye):
    X=             -0.5736    Y=              1.5753    Z=              0.4932  Tot=              1.7475
 Quadrupole moment (field-independent basis, Debye-Ang):
   XX=            -85.1647   YY=            -93.8933   ZZ=            -98.2458
   XY=              0.3815   XZ=             -0.9791   YZ=              1.1561

 Normal termination of Gaussian 16 at Sat Nov  5 09:34:15 2022.
