 Gaussian 16, Revision B.01,
 Gaussian 16:  ES64L-G16RevB.01 20-Dec-2017

 -----------------------------
 #p b3lyp/6-31g(d) opt SCF=XQC
 -----------------------------

 ------------------------------
 Gaussian input prepared by ASE
 ------------------------------
 Symbolic Z-matrix:
 Charge =  0 Multiplicity = 1

 SCF Done:  E(RB3LYP) =  -672.199569283     A.U. after   17 cycles
 SCF Done:  E(RB3LYP) =  -672.203039419     A.U. after   13 cycles
 SCF Done:  E(RB3LYP) =  -672.203124917     A.U. after   11 cycles
 SCF Done:  E(RB3LYP) =  -672.203131198     A.U. after   10 cycles
 Optimization completed.
    -- Stationary point found.

                         Standard orientation:
 ---------------------------------------------------------------------
 Center     Atomic      Atomic             Coordinates (Angstroms)
 Number     Number       Type             X           Y           Z
 ---------------------------------------------------------------------
      1          6           0        0.794440    2.533775   -0.000576
      2          6           0       -0.413182    1.936292   -0.000463
      3          6           0       -0.640004    0.478461   -0.000124
      4          6           0       -2.081731    0.053210   -0.000030
      5          6           0       -2.770737   -0.131613    1.206555
      6          6           0       -4.115580   -0.506224    1.207074
      7          6           0       -4.790976   -0.695589    0.000125
      8          6           0       -4.115164   -0.508235   -1.206903
      9          6           0       -2.770319   -0.133624   -1.206541
     10          6           0        0.255748   -0.518963    0.000117
     11          7           0        1.705362   -0.531520    0.000125
     12          6           0        2.262619   -1.791626    0.000405
     13          6           0        3.599145   -2.035746    0.000482
     14          6           0        4.473144   -0.903281    0.000257
     15          6           0        3.953061    0.350745   -0.000021
     16          6           0        2.529256    0.630903   -0.000112
     17          6           0        2.112650    1.938398   -0.000409
     18          1           0        0.800269    3.622950   -0.000839
     19          1           0       -1.308612    2.549035   -0.000638
     20          1           0       -2.244958    0.015563    2.146277
     21          1           0       -4.634498   -0.652335    2.150979
     22          1           0       -5.837799   -0.987778    0.000188
     23          1           0       -4.633759   -0.655907   -2.150743
     24          1           0       -2.244214    0.011997   -2.146322
     25          1           0       -0.126838   -1.532347    0.000365
     26          1           0        1.542070   -2.600620    0.000568
     27          1           0        3.968066   -3.053526    0.000707
     28          1           0        5.550361   -1.045164    0.000311
     29          1           0        4.605723    1.217394   -0.000193
     30          1           0        2.932426    2.650066   -0.000549
 ---------------------------------------------------------------------

 The electronic state is 1-A.
 Alpha  occ. eigenvalues --  -14.39834 -10.24224 -10.23888 -10.22305 -10.20362
 Alpha  occ. eigenvalues --  -10.19863 -10.19551 -10.19278 -10.18834 -10.18812
 Alpha  occ. eigenvalues --  -10.18750 -10.18688 -10.18686 -10.18545 -10.18300
 Alpha  occ. eigenvalues --  -10.16646 -10.16024  -0.98068  -0.85661  -0.82523
 Alpha  occ. eigenvalues --   -0.80953  -0.78892  -0.75111  -0.74076  -0.72472
 Alpha  occ. eigenvalues --   -0.67817  -0.65911  -0.64016  -0.60084  -0.59535
 Alpha  occ. eigenvalues --   -0.56230  -0.55309  -0.51422  -0.50851  -0.49105
 Alpha  occ. eigenvalues --   -0.47701  -0.46284  -0.44723  -0.44459  -0.43952
 Alpha  occ. eigenvalues --   -0.42740  -0.42489  -0.41657  -0.40583  -0.38458
 Alpha  occ. eigenvalues --   -0.36890  -0.36492  -0.35482  -0.34428  -0.34288
 Alpha  occ. eigenvalues --   -0.32704  -0.32354  -0.31221  -0.27813  -0.24815
 Alpha  occ. eigenvalues --   -0.24419  -0.24065  -0.14105
 Alpha virt. eigenvalues --   -0.06302  -0.01016   0.00102   0.00448   0.05806
 Alpha virt. eigenvalues --    0.07845   0.09805   0.10057   0.11859   0.12226
 Alpha virt. eigenvalues --    0.14712   0.15091   0.15799   0.16057   0.16244

 Mulliken charges:
               1
     1  C   -0.097085
     2  C   -0.182338
     3  C    0.063185
     4  C    0.018046
     5  C   -0.153916
     6  C   -0.131131
     7  C   -0.126609
     8  C   -0.131130
     9  C   -0.153920
    10  C   -0.035881
    11  N   -0.566511
    12  C    0.103396
    13  C   -0.216956
    14  C   -0.094220
    15  C   -0.209117
    16  C    0.423594
    17  C   -0.265534
    18  H    0.123632
    19  H    0.125493
    20  H    0.135003
    21  H    0.129941
    22  H    0.128639
    23  H    0.129940
    24  H    0.134995
    25  H    0.151005
    26  H    0.163732
    27  H    0.137292
    28  H    0.140728
    29  H    0.141969
    30  H    0.113755
 Sum of Mulliken charges =  -0.00000

 Dipole moment (field-independent basis, Debye):
    X=              0.4660    Y=             -1.6842    Z=              0.0005  Tot=              1.7475
 Quadrupole moment (field-independent basis, Debye-Ang):
   XX=            -85.1514   YY=            -93.4730   ZZ=            -98.6104
   XY=             -0.3784   XZ=             -0.0010   YZ=              0.0029

 1\1\GINC-NODE90\FOpt\RB3LYP\6-31G(d)\C16H13N1\WYKGROUP\04-Nov-2022\0\\
 #p b3lyp/6-31g(d) opt SCF=XQC\\Gaussian input prepared by ASE\\0,1\C,-
 0.678347189,-2.511356306,-0.7393583871\C,0.483635787,-1.835618712,-0.6
 471003458\C,0.6139296932,-0.4184067184,-0.2581870799\C,2.0200006202,0.
 1121052195,-0.2275644431\C,2.7911737205,0.0216434635,0.9394163484\C,4.
 1042337805,0.495230175,0.9623070008\C,4.6655298909,1.0607773596,-0.183
 9260064\C,3.9076085761,1.1500548559,-1.3528247029\C,2.5946169557,0.676
 2298531,-1.3748696606\C,-0.3421350013,0.4617522962,0.0711855256\N,-1.7

 Normal termination of Gaussian 16 at Fri Nov  4 21:50:37 2022.
