 Gaussian 16, Revision B.01,
 Gaussian 16:  ES64L-G16RevB.01 20-Dec-2017

 -------------------------------------------------------------------
 #p b3lyp/6-31g(d) 6D 10F nosymm GFInput td=(50-50,nstate=2) SCF=XQC
 -------------------------------------------------------------------

 ------------------------------
 Gaussian input prepared by ASE
 ------------------------------
 Symbolic Z-matrix:
 Charge =  0 Multiplicity = 1

                          Input orientation:
 ---------------------------------------------------------------------
 Center     Atomic      Atomic             Coordinates (Angstroms)
 Number     Number       Type             X           Y           Z
 ---------------------------------------------------------------------
      1          6           0       -4.969666   -0.245277    1.770103
      2          6           0       -3.945602   -1.248398    1.227239
      3          6           0       -2.519469   -0.681990    1.242722
      4          6           0       -1.465308   -1.596852    0.588296
      5          6           0       -1.184394   -2.933687    1.342079
      6          6           0       -2.011449   -4.153472    0.854722
      7          6           0       -2.191091   -5.038490    2.119797
      8          6           0       -1.414977   -4.282852    3.219749
      9          7           0       -1.489344   -2.895860    2.770849
     10          7           0       -0.203661   -0.857527    0.281503
     11          6           0        0.412482   -1.215707   -0.999015
     12          6           0       -0.168901   -0.582734   -2.253948
     13          6           0        0.403131   -1.167441   -3.522354
     14          6           0       -1.097910    0.389155   -2.191910
     15          6           0       -1.748439    1.125719   -3.292713
     16          6           0       -1.075377    1.535243   -4.458050
     17          6           0       -1.741294    2.241303   -5.460198
     18          6           0       -3.092119    2.562219   -5.319668
     19          6           0       -3.770147    2.183814   -4.158392
     20          6           0       -3.103193    1.483258   -3.156375
     21          6           0        0.527158   -0.328635    1.324146
     22          8           0        0.201922   -0.506070    2.502538
     23          6           0        1.737737    0.518928    1.030865
     24          6           0        1.836353    1.380556   -0.059221
     25          6           0        2.955494    2.211311   -0.213338
     26          8           0        2.963251    2.973584   -1.347384
     27          6           0        3.474950    4.305250   -1.315484
     28          6           0        3.998070    2.172622    0.728079
     29          8           0        5.139101    2.904194    0.508841
     30          6           0        5.467618    3.903404    1.481311
     31          6           0        3.887850    1.293215    1.833561
     32          8           0        4.959056    1.284145    2.682795
     33          6           0        4.926690    0.393365    3.788878
     34          6           0        2.760993    0.492763    1.991611
     35          1           0       -4.734319    0.035606    2.803726
     36          1           0       -5.982708   -0.664022    1.760876
     37          1           0       -4.983782    0.675342    1.172769
     38          1           0       -3.973845   -2.159054    1.834687
     39          1           0       -4.225579   -1.534268    0.202113
     40          1           0       -2.511130    0.273220    0.699955
     41          1           0       -2.227990   -0.463941    2.271544
     42          1           0       -1.846182   -1.861262   -0.404682
     43          1           0       -0.116296   -3.173513    1.167801
     44          1           0       -1.491379   -4.677393    0.045325
     45          1           0       -2.981299   -3.835392    0.461208
     46          1           0       -1.814025   -6.056593    1.981380
     47          1           0       -3.249665   -5.114663    2.387027
     48          1           0       -0.376300   -4.664446    3.271738
     49          1           0       -1.858966   -4.397259    4.215045
     50          1           0       -0.853089   -2.263977    3.251226
     51          1           0        1.482850   -0.991237   -0.953728
     52          1           0        0.350260   -2.310883   -1.107244
     53          1           0        1.408555   -0.774411   -3.729960
     54          1           0        0.507417   -2.256611   -3.430574
     55          1           0       -0.223768   -0.958583   -4.391964
     56          1           0       -1.447910    0.661546   -1.197877
     57          1           0       -0.014849    1.331683   -4.564260
     58          1           0       -1.197509    2.551607   -6.348836
     59          1           0       -3.608766    3.113174   -6.100967
     60          1           0       -4.819143    2.438751   -4.031498
     61          1           0       -3.636490    1.195250   -2.253315
     62          1           0        1.051237    1.455816   -0.802697
     63          1           0        3.045835    4.804057   -2.188465
     64          1           0        4.565228    4.321750   -1.377106
     65          1           0        3.151366    4.832464   -0.408984
     66          1           0        6.363125    4.402076    1.103413
     67          1           0        5.675591    3.457658    2.456256
     68          1           0        4.656320    4.637331    1.576543
     69          1           0        5.875287    0.533734    4.310269
     70          1           0        4.842301   -0.649975    3.459607
     71          1           0        4.097676    0.624581    4.469708
     72          1           0        2.642427   -0.157219    2.848308
 ---------------------------------------------------------------------

 SCF Done:  E(RB3LYP) =  -1500.20704442     A.U. after   15 cycles

 Excitation energies and oscillator strengths:

 Excited state symmetry could not be determined.
 Excited State   1:      Triplet-?Sym    3.1655 eV  391.67 nm  f=0.0000  <S**2>=2.000
     118 ->131         0.15715
     121 ->129         0.20721
     123 ->127        -0.20035
     123 ->128         0.48050
     124 ->127        -0.10384
     124 ->128         0.21279
     125 ->127         0.13810
     125 ->128        -0.29288
 This state for optimization and/or second-order correction.
 Total Energy, E(TD-HF/TD-DFT) =  -1500.09071393
 Copying the excited state density for this state as the 1-particle RhoCI density.

 Excited state symmetry could not be determined.
 Excited State   2:      Triplet-?Sym    3.3221 eV  373.21 nm  f=0.0000  <S**2>=2.000
     123 ->127        -0.31568
     124 ->127         0.38636
     124 ->128         0.13321
     124 ->130        -0.17205
     125 ->127        -0.29019
     125 ->128        -0.11069
     125 ->130        -0.20135
     126 ->127         0.13055

 Excited state symmetry could not be determined.
 Excited State   3:      Singlet-?Sym    4.2906 eV  288.96 nm  f=0.0215  <S**2>=0.000
     126 ->127         0.68111
     126 ->128         0.13994

 Excited state symmetry could not be determined.
 Excited State   4:      Singlet-?Sym    4.4799 eV  276.76 nm  f=0.0161  <S**2>=0.000
     123 ->130        -0.12593
     124 ->127         0.40276
     124 ->128         0.10317
     124 ->130         0.16355
     125 ->127         0.48190
     125 ->128         0.10474
     125 ->130        -0.11661

 Alpha  occ. eigenvalues --  -19.18268 -19.16756 -19.16668 -19.10934 -14.35734
 Alpha  occ. eigenvalues --  -14.29519 -10.28332 -10.25025 -10.24539 -10.24329
 Alpha  occ. eigenvalues --  -10.24219 -10.23120 -10.23050 -10.22609 -10.21595
 Alpha  occ. eigenvalues --  -10.20212 -10.20034 -10.19759 -10.19634 -10.19339
 Alpha  occ. eigenvalues --  -10.18768 -10.18742 -10.18681 -10.18613 -10.18585
 Alpha  occ. eigenvalues --  -10.18480 -10.18397 -10.18314 -10.18244 -10.17365
 Alpha  occ. eigenvalues --  -10.17325 -10.16668 -10.16427 -10.16307  -1.07337
 Alpha  occ. eigenvalues --   -1.05658  -1.03913  -1.02706  -0.92884  -0.90066
 Alpha  occ. eigenvalues --   -0.85302  -0.84990  -0.80961  -0.78442  -0.76407
 Alpha  occ. eigenvalues --   -0.75671  -0.75321  -0.74613  -0.74056  -0.73467
 Alpha  occ. eigenvalues --   -0.71413  -0.69732  -0.69371  -0.68736  -0.68113
 Alpha  occ. eigenvalues --   -0.67400  -0.63940  -0.60822  -0.60234  -0.59640
 Alpha  occ. eigenvalues --   -0.59413  -0.57911  -0.56797  -0.56509  -0.54479
 Alpha  occ. eigenvalues --   -0.53994  -0.52002  -0.51530  -0.51019  -0.50084
 Alpha  occ. eigenvalues --   -0.49705  -0.48469  -0.48377  -0.47893  -0.47600
 Alpha  occ. eigenvalues --   -0.46729  -0.46327  -0.45632  -0.45081  -0.44705
 Alpha  occ. eigenvalues --   -0.44577  -0.44281  -0.43645  -0.43530  -0.43194
 Alpha  occ. eigenvalues --   -0.42438  -0.41975  -0.41818  -0.41467  -0.41251
 Alpha  occ. eigenvalues --   -0.40589  -0.39676  -0.39309  -0.39165  -0.38470
 Alpha  occ. eigenvalues --   -0.38245  -0.37610  -0.37249  -0.37001  -0.36900
 Alpha  occ. eigenvalues --   -0.36593  -0.35741  -0.35589  -0.35227  -0.34527
 Alpha  occ. eigenvalues --   -0.33972  -0.33729  -0.33607  -0.33246  -0.33176
 Alpha  occ. eigenvalues --   -0.33035  -0.32085  -0.31718  -0.31431  -0.31180
 Alpha  occ. eigenvalues --   -0.30322  -0.29620  -0.27696  -0.27334  -0.24980
 Alpha  occ. eigenvalues --   -0.24689  -0.23482  -0.22010  -0.21748  -0.21627
 Alpha  occ. eigenvalues --   -0.20589
 Alpha virt. eigenvalues --   -0.02643  -0.02063   0.00241   0.01392   0.04876
 Alpha virt. eigenvalues --    0.05749   0.07460   0.07811   0.08672   0.09388
 Alpha virt. eigenvalues --    0.10077   0.10637   0.10844   0.11156   0.11891

 Mulliken charges:
               1
     1  C   -0.444080
     2  C   -0.260269
     3  C   -0.249908
     4  C   -0.009764
     5  C    0.068762
     6  C   -0.289655
     7  C   -0.276794
     8  C   -0.117460
     9  N   -0.576940
    10  N   -0.454402
    11  C   -0.212389
    12  C    0.154853
    13  C   -0.530616
    14  C   -0.250609
    15  C    0.156064
    16  C   -0.184797
    17  C   -0.133481
    18  C   -0.129197
    19  C   -0.130373
    20  C   -0.185022
    21  C    0.542947
    22  O   -0.539947
    23  C    0.051919
    24  C   -0.239695
    25  C    0.330766
    26  O   -0.522134
    27  C   -0.206237
    28  C    0.266647
    29  O   -0.520969
    30  C   -0.216486
    31  C    0.348921
    32  O   -0.516080
    33  C   -0.216903
    34  C   -0.247791
    35  H    0.147306
    36  H    0.137717
    37  H    0.135072
    38  H    0.157955
    39  H    0.117298
    40  H    0.127031
    41  H    0.175649
    42  H    0.140534
    43  H    0.101957
    44  H    0.128787
    45  H    0.147368
    46  H    0.132550
    47  H    0.144821
    48  H    0.106224
    49  H    0.134470
    50  H    0.331529
    51  H    0.181588
    52  H    0.152889
    53  H    0.166474
    54  H    0.149748
    55  H    0.173467
    56  H    0.153108
    57  H    0.138909
    58  H    0.129093
    59  H    0.128536
    60  H    0.130037
    61  H    0.131088
    62  H    0.158672
    63  H    0.158136
    64  H    0.169161
    65  H    0.140837
    66  H    0.158844
    67  H    0.175116
    68  H    0.137319
    69  H    0.168813
    70  H    0.157301
    71  H    0.161310
    72  H    0.154402
 Sum of Mulliken charges =  -0.00000

 Dipole moment (field-independent basis, Debye):
    X=              2.1429    Y=              0.4865    Z=             -0.5998  Tot=              2.2779
 Quadrupole moment (field-independent basis, Debye-Ang):
   XX=           -194.6800   YY=           -186.9662   ZZ=           -194.5848
   XY=              3.9562   XZ=             14.0780   YZ=             -0.5576

 Normal termination of Gaussian 16 at Sat Nov  5 09:47:28 2022.
