 Gaussian 16, Revision B.01,
 Gaussian 16:  ES64L-G16RevB.01 20-Dec-2017

 -----------------------------
 #p b3lyp/6-31g(d) opt SCF=XQC
 -----------------------------

 ------------------------------
 Gaussian input prepared by ASE
 ------------------------------
 Symbolic Z-matrix:
 Charge =  0 Multiplicity = 1

 SCF Done:  E(RB3LYP) =  -1500.18987371     A.U. after   15 cycles
 SCF Done:  E(RB3LYP) =  -1500.19604252     A.U. after   14 cycles
 SCF Done:  E(RB3LYP) =  -1500.19899003     A.U. after   13 cycles
 SCF Done:  E(RB3LYP) =  -1500.20186669     A.U. after   12 cycles
 SCF Done:  E(RB3LYP) =  -1500.20320411     A.U. after   12 cycles
 SCF Done:  E(RB3LYP) =  -1500.20474442     A.U. after   12 cycles
 SCF Done:  E(RB3LYP) =  -1500.20525070     A.U. after   15 cycles
 SCF Done:  E(RB3LYP) =  -1500.20626433     A.U. after   12 cycles
 SCF Done:  E(RB3LYP) =  -1500.20629563     A.U. after   12 cycles
 SCF Done:  E(RB3LYP) =  -1500.20665896     A.U. after   11 cycles
 SCF Done:  E(RB3LYP) =  -1500.20700755     A.U. after   10 cycles
 SCF Done:  E(RB3LYP) =  -1500.20700918     A.U. after    9 cycles
 SCF Done:  E(RB3LYP) =  -1500.20701364     A.U. after    7 cycles
 SCF Done:  E(RB3LYP) =  -1500.20703669     A.U. after   11 cycles
 SCF Done:  E(RB3LYP) =  -1500.20703827     A.U. after    7 cycles
 SCF Done:  E(RB3LYP) =  -1500.20703934     A.U. after    8 cycles
 SCF Done:  E(RB3LYP) =  -1500.20704004     A.U. after    9 cycles
 SCF Done:  E(RB3LYP) =  -1500.20704060     A.U. after    7 cycles
 SCF Done:  E(RB3LYP) =  -1500.20704075     A.U. after    7 cycles
 SCF Done:  E(RB3LYP) =  -1500.20704082     A.U. after    6 cycles
 Optimization completed.
    -- Stationary point found.

                         Standard orientation:
 ---------------------------------------------------------------------
 Center     Atomic      Atomic             Coordinates (Angstroms)
 Number     Number       Type             X           Y           Z
 ---------------------------------------------------------------------
      1          6           0        4.420809   -1.137485   -3.170292
      2          6           0        4.083735   -1.369199   -1.693014
      3          6           0        2.581294   -1.226486   -1.415135
      4          6           0        2.199038   -1.320629    0.075342
      5          6           0        2.417029   -2.719414    0.731169
      6          6           0        3.781390   -2.908251    1.446903
      7          6           0        4.100442   -4.421764    1.293846
      8          6           0        2.875247   -4.989825    0.545889
      9          7           0        2.397176   -3.836666   -0.210723
     10          7           0        0.822384   -0.797937    0.328512
     11          6           0        0.687942   -0.016925    1.561232
     12          6           0        1.144468    1.433419    1.521215
     13          6           0        1.148658    2.082713    2.883698
     14          6           0        1.503190    2.031628    0.370155
     15          6           0        1.944171    3.421245    0.142153
     16          6           0        1.391238    4.530879    0.806764
     17          6           0        1.840883    5.824175    0.539424
     18          6           0        2.847024    6.041425   -0.402886
     19          6           0        3.390976    4.953101   -1.089285
     20          6           0        2.937961    3.662875   -0.825202
     21          6           0       -0.249995   -1.440712   -0.252667
     22          8           0       -0.107733   -2.470583   -0.919747
     23          6           0       -1.633619   -0.862755   -0.106280
     24          6           0       -1.904349    0.503188   -0.069935
     25          6           0       -3.226816    0.967850   -0.030478
     26          8           0       -3.365132    2.324572    0.055270
     27          6           0       -4.419526    2.985659   -0.642874
     28          6           0       -4.295264    0.055225   -0.014369
     29          8           0       -5.579713    0.515363    0.139507
     30          6           0       -6.500871    0.238974   -0.922153
     31          6           0       -4.009270   -1.331992   -0.052198
     32          8           0       -5.098744   -2.155608    0.006685
     33          6           0       -4.875596   -3.558502    0.013528
     34          6           0       -2.694522   -1.782052   -0.118496
     35          1           0        3.894265   -1.855520   -3.810476
     36          1           0        5.495141   -1.249493   -3.357246
     37          1           0        4.129044   -0.130289   -3.494294
     38          1           0        4.406023   -2.374323   -1.401568
     39          1           0        4.649848   -0.655874   -1.075215
     40          1           0        2.244048   -0.247274   -1.781878
     41          1           0        2.035133   -1.982103   -1.982348
     42          1           0        2.837366   -0.610257    0.612827
     43          1           0        1.627051   -2.831549    1.500639
     44          1           0        3.717096   -2.595883    2.494940
     45          1           0        4.557064   -2.297316    0.976027
     46          1           0        4.258185   -4.920605    2.255172
     47          1           0        5.007560   -4.563861    0.698245
     48          1           0        2.132499   -5.363722    1.277800
     49          1           0        3.126959   -5.820656   -0.122833
     50          1           0        1.466368   -3.949494   -0.605343
     51          1           0       -0.355282   -0.049737    1.890976
     52          1           0        1.257857   -0.533919    2.350479
     53          1           0        0.133363    2.359205    3.201784
     54          1           0        1.533086    1.386018    3.640283
     55          1           0        1.764241    2.984531    2.908775
     56          1           0        1.498259    1.407651   -0.521711
     57          1           0        0.578661    4.384016    1.510743
     58          1           0        1.393514    6.665769    1.062156
     59          1           0        3.195160    7.049701   -0.610454
     60          1           0        4.166374    5.110429   -1.834600
     61          1           0        3.363391    2.820731   -1.366196
     62          1           0       -1.114118    1.244612   -0.095477
     63          1           0       -4.106882    4.030103   -0.723088
     64          1           0       -5.365951    2.921973   -0.101579
     65          1           0       -4.546282    2.573157   -1.651923
     66          1           0       -7.436099    0.726841   -0.637996
     67          1           0       -6.663882   -0.834433   -1.039138
     68          1           0       -6.143389    0.663426   -1.869766
     69          1           0       -5.864128   -4.015449    0.086963
     70          1           0       -4.268242   -3.862508    0.875388
     71          1           0       -4.385399   -3.894130   -0.909140
     72          1           0       -2.458242   -2.835686   -0.185496
 ---------------------------------------------------------------------

 The electronic state is 1-A.
 Alpha  occ. eigenvalues --  -19.18267 -19.16756 -19.16668 -19.10934 -14.35734
 Alpha  occ. eigenvalues --  -14.29519 -10.28332 -10.25025 -10.24539 -10.24329
 Alpha  occ. eigenvalues --  -10.24219 -10.23120 -10.23050 -10.22609 -10.21595
 Alpha  occ. eigenvalues --  -10.20211 -10.20034 -10.19759 -10.19634 -10.19340
 Alpha  occ. eigenvalues --  -10.18768 -10.18742 -10.18681 -10.18613 -10.18585
 Alpha  occ. eigenvalues --  -10.18480 -10.18397 -10.18314 -10.18244 -10.17365
 Alpha  occ. eigenvalues --  -10.17325 -10.16668 -10.16427 -10.16307  -1.07337
 Alpha  occ. eigenvalues --   -1.05658  -1.03913  -1.02706  -0.92884  -0.90066
 Alpha  occ. eigenvalues --   -0.85303  -0.84990  -0.80961  -0.78442  -0.76407
 Alpha  occ. eigenvalues --   -0.75671  -0.75321  -0.74613  -0.74056  -0.73467
 Alpha  occ. eigenvalues --   -0.71413  -0.69732  -0.69371  -0.68736  -0.68113
 Alpha  occ. eigenvalues --   -0.67400  -0.63940  -0.60822  -0.60234  -0.59640
 Alpha  occ. eigenvalues --   -0.59413  -0.57911  -0.56797  -0.56509  -0.54479
 Alpha  occ. eigenvalues --   -0.53994  -0.52002  -0.51530  -0.51019  -0.50084
 Alpha  occ. eigenvalues --   -0.49705  -0.48469  -0.48377  -0.47893  -0.47600
 Alpha  occ. eigenvalues --   -0.46729  -0.46327  -0.45632  -0.45081  -0.44705
 Alpha  occ. eigenvalues --   -0.44577  -0.44281  -0.43645  -0.43530  -0.43194
 Alpha  occ. eigenvalues --   -0.42438  -0.41975  -0.41818  -0.41467  -0.41251
 Alpha  occ. eigenvalues --   -0.40589  -0.39675  -0.39309  -0.39165  -0.38470
 Alpha  occ. eigenvalues --   -0.38245  -0.37610  -0.37249  -0.37001  -0.36900
 Alpha  occ. eigenvalues --   -0.36593  -0.35741  -0.35589  -0.35227  -0.34527
 Alpha  occ. eigenvalues --   -0.33972  -0.33729  -0.33608  -0.33246  -0.33176
 Alpha  occ. eigenvalues --   -0.33035  -0.32085  -0.31718  -0.31432  -0.31180
 Alpha  occ. eigenvalues --   -0.30322  -0.29620  -0.27696  -0.27334  -0.24980
 Alpha  occ. eigenvalues --   -0.24689  -0.23482  -0.22010  -0.21748  -0.21627
 Alpha  occ. eigenvalues --   -0.20589
 Alpha virt. eigenvalues --   -0.02643  -0.02063   0.00241   0.01392   0.04876
 Alpha virt. eigenvalues --    0.05749   0.07460   0.07811   0.08672   0.09388
 Alpha virt. eigenvalues --    0.10077   0.10637   0.10844   0.11156   0.11891

 Mulliken charges:
               1
     1  C   -0.444070
     2  C   -0.260271
     3  C   -0.249950
     4  C   -0.009713
     5  C    0.068767
     6  C   -0.289662
     7  C   -0.276788
     8  C   -0.117466
     9  N   -0.576947
    10  N   -0.454444
    11  C   -0.212368
    12  C    0.154823
    13  C   -0.530601
    14  C   -0.250604
    15  C    0.156052
    16  C   -0.184791
    17  C   -0.133478
    18  C   -0.129202
    19  C   -0.130373
    20  C   -0.185003
    21  C    0.543002
    22  O   -0.539959
    23  C    0.051882
    24  C   -0.239678
    25  C    0.330784
    26  O   -0.522133
    27  C   -0.206239
    28  C    0.266619
    29  O   -0.520965
    30  C   -0.216489
    31  C    0.348924
    32  O   -0.516074
    33  C   -0.216903
    34  C   -0.247784
    35  H    0.147304
    36  H    0.137716
    37  H    0.135071
    38  H    0.157953
    39  H    0.117301
    40  H    0.127038
    41  H    0.175653
    42  H    0.140530
    43  H    0.101958
    44  H    0.128786
    45  H    0.147368
    46  H    0.132549
    47  H    0.144820
    48  H    0.106225
    49  H    0.134472
    50  H    0.331530
    51  H    0.181585
    52  H    0.152886
    53  H    0.166474
    54  H    0.149747
    55  H    0.173465
    56  H    0.153108
    57  H    0.138907
    58  H    0.129093
    59  H    0.128537
    60  H    0.130037
    61  H    0.131078
    62  H    0.158669
    63  H    0.158135
    64  H    0.169160
    65  H    0.140837
    66  H    0.158846
    67  H    0.175117
    68  H    0.137320
    69  H    0.168812
    70  H    0.157301
    71  H    0.161310
    72  H    0.154401
 Sum of Mulliken charges =  -0.00000

 Dipole moment (field-independent basis, Debye):
    X=             -1.9755    Y=              0.5219    Z=              1.0067  Tot=              2.2778
 Quadrupole moment (field-independent basis, Debye-Ang):
   XX=           -186.6830   YY=           -189.6856   ZZ=           -201.2383
   XY=              6.9414   XZ=              9.4704   YZ=             -6.5068

 Normal termination of Gaussian 16 at Fri Nov  4 22:33:48 2022.
