 Gaussian 16, Revision B.01,
 Gaussian 16:  ES64L-G16RevB.01 20-Dec-2017

 -------------------------------------------------------------------
 #p b3lyp/6-31g(d) 6D 10F nosymm GFInput td=(50-50,nstate=2) SCF=XQC
 -------------------------------------------------------------------

 ------------------------------
 Gaussian input prepared by ASE
 ------------------------------
 Symbolic Z-matrix:
 Charge =  0 Multiplicity = 1

                          Input orientation:
 ---------------------------------------------------------------------
 Center     Atomic      Atomic             Coordinates (Angstroms)
 Number     Number       Type             X           Y           Z
 ---------------------------------------------------------------------
      1          6           0        7.604560   -0.590840   -0.079218
      2          6           0        6.173580   -0.112214   -0.005225
      3          6           0        5.407164    0.066350   -1.159969
      4          6           0        4.078304    0.476016   -1.065786
      5          6           0        3.484120    0.732961    0.175095
      6          6           0        2.078407    1.269246    0.235920
      7          8           0        1.799988    2.278601    0.884553
      8          7           0        1.115988    0.614911   -0.488251
      9          6           0        1.178426   -0.761042   -1.014268
     10          6           0       -0.265315   -1.257761   -0.881091
     11          6           0       -1.086805    0.030436   -1.152520
     12          7           0       -2.507705    0.064482   -0.822379
     13          6           0       -3.366786   -0.622080   -1.786975
     14          6           0       -4.796622   -0.091994   -1.660349
     15          6           0       -5.272316   -0.093999   -0.222625
     16          6           0       -6.636294    0.001116    0.083918
     17          6           0       -7.078326    0.019541    1.404422
     18          6           0       -6.149165   -0.058564    2.444943
     19          6           0       -4.791609   -0.154244    2.149528
     20          6           0       -4.341405   -0.172062    0.823391
     21          6           0       -2.856892   -0.323316    0.542212
     22          6           0       -0.260537    1.124229   -0.444307
     23          6           0        4.247523    0.583189    1.354481
     24          6           0        3.678109    0.879434    2.723014
     25          6           0        5.571058    0.151128    1.232608
     26          1           0        7.677646   -1.663266    0.146181
     27          1           0        8.027101   -0.436774   -1.077380
     28          1           0        8.240818   -0.066671    0.642672
     29          1           0        5.849421   -0.112569   -2.137258
     30          1           0        3.499034    0.623546   -1.973317
     31          1           0        1.492599   -0.766160   -2.067765
     32          1           0        1.899857   -1.359224   -0.453003
     33          1           0       -0.494803   -2.071172   -1.576572
     34          1           0       -0.441394   -1.620473    0.137941
     35          1           0       -1.029230    0.227286   -2.231110
     36          1           0       -2.988329   -0.427466   -2.796354
     37          1           0       -3.359198   -1.720811   -1.643322
     38          1           0       -4.823404    0.934073   -2.052225
     39          1           0       -5.473635   -0.688282   -2.285894
     40          1           0       -7.357610    0.060494   -0.728887
     41          1           0       -8.140564    0.093115    1.622104
     42          1           0       -6.480874   -0.041852    3.479681
     43          1           0       -4.065819   -0.213927    2.958576
     44          1           0       -2.572958   -1.374030    0.756728
     45          1           0       -2.294458    0.296984    1.248138
     46          1           0       -0.564165    1.280576    0.596897
     47          1           0       -0.339851    2.093000   -0.946541
     48          1           0        2.734219    0.349412    2.895154
     49          1           0        4.382558    0.582445    3.506324
     50          1           0        3.456110    1.945000    2.829193
     51          1           0        6.159480    0.023220    2.139630
 ---------------------------------------------------------------------

 SCF Done:  E(RB3LYP) =  -1038.74624812     A.U. after   15 cycles

 Excitation energies and oscillator strengths:

 Excited state symmetry could not be determined.
 Excited State   1:      Triplet-?Sym    3.5247 eV  351.76 nm  f=0.0000  <S**2>=2.000
      84 -> 91        -0.24999
      84 -> 93         0.12065
      86 -> 93         0.31332
      88 -> 91        -0.11066
      89 -> 91         0.52503
 This state for optimization and/or second-order correction.
 Total Energy, E(TD-HF/TD-DFT) =  -1038.61671724
 Copying the excited state density for this state as the 1-particle RhoCI density.

 Excited state symmetry could not be determined.
 Excited State   2:      Triplet-?Sym    3.6955 eV  335.50 nm  f=0.0000  <S**2>=2.000
      85 -> 92         0.46741
      86 -> 92        -0.12140
      87 -> 94         0.40398
      88 -> 94        -0.25387
      90 -> 92         0.15483

 Excited state symmetry could not be determined.
 Excited State   3:      Singlet-?Sym    4.7012 eV  263.73 nm  f=0.0317  <S**2>=0.000
      84 -> 91         0.34634
      86 -> 91        -0.20833
      89 -> 91         0.50594
      89 -> 95        -0.12066
      90 -> 91         0.16174

 Excited state symmetry could not be determined.
 Excited State   4:      Singlet-?Sym    4.8350 eV  256.43 nm  f=0.0010  <S**2>=0.000
      89 -> 91        -0.11774
      90 -> 91         0.68548

 Alpha  occ. eigenvalues --  -19.10024 -14.35478 -14.32998 -10.27464 -10.22658
 Alpha  occ. eigenvalues --  -10.22409 -10.21486 -10.21308 -10.21121 -10.19793
 Alpha  occ. eigenvalues --  -10.19748 -10.19243 -10.19209 -10.19126 -10.19109
 Alpha  occ. eigenvalues --  -10.19061 -10.18735 -10.18485 -10.18480 -10.18472
 Alpha  occ. eigenvalues --  -10.18439 -10.18403 -10.18324 -10.18203 -10.17135
 Alpha  occ. eigenvalues --   -1.02058  -0.94296  -0.92271  -0.85712  -0.85113
 Alpha  occ. eigenvalues --   -0.79500  -0.78040  -0.77272  -0.75998  -0.75675
 Alpha  occ. eigenvalues --   -0.73559  -0.72122  -0.69386  -0.68145  -0.66142
 Alpha  occ. eigenvalues --   -0.63565  -0.62640  -0.60044  -0.59753  -0.59028
 Alpha  occ. eigenvalues --   -0.57262  -0.55048  -0.54078  -0.51760  -0.51552
 Alpha  occ. eigenvalues --   -0.49220  -0.47772  -0.47039  -0.46859  -0.45295
 Alpha  occ. eigenvalues --   -0.45086  -0.44198  -0.44115  -0.43190  -0.43013
 Alpha  occ. eigenvalues --   -0.42610  -0.42071  -0.41039  -0.40639  -0.40480
 Alpha  occ. eigenvalues --   -0.40439  -0.39986  -0.39273  -0.39079  -0.38339
 Alpha  occ. eigenvalues --   -0.38014  -0.37476  -0.36907  -0.36870  -0.35872
 Alpha  occ. eigenvalues --   -0.35248  -0.34383  -0.34149  -0.33840  -0.33330
 Alpha  occ. eigenvalues --   -0.32931  -0.32397  -0.32064  -0.24722  -0.24218
 Alpha  occ. eigenvalues --   -0.24113  -0.23496  -0.23134  -0.22798  -0.21338
 Alpha virt. eigenvalues --   -0.01868   0.00053   0.00303   0.00628   0.05140
 Alpha virt. eigenvalues --    0.07539   0.09356   0.09606   0.10226   0.10806
 Alpha virt. eigenvalues --    0.11976   0.12385   0.12605   0.12890   0.13307

 Mulliken charges:
               1
     1  C   -0.531512
     2  C    0.196598
     3  C   -0.193083
     4  C   -0.162008
     5  C    0.013923
     6  C    0.508147
     7  O   -0.524994
     8  N   -0.454116
     9  C   -0.125954
    10  C   -0.314139
    11  C    0.026727
    12  N   -0.418264
    13  C   -0.140352
    14  C   -0.330348
    15  C    0.128129
    16  C   -0.191424
    17  C   -0.127703
    18  C   -0.132389
    19  C   -0.181432
    20  C    0.102232
    21  C   -0.195831
    22  C   -0.107517
    23  C    0.155305
    24  C   -0.520100
    25  C   -0.251385
    26  H    0.165136
    27  H    0.156398
    28  H    0.161363
    29  H    0.121174
    30  H    0.134473
    31  H    0.144581
    32  H    0.167631
    33  H    0.146737
    34  H    0.153333
    35  H    0.135959
    36  H    0.137105
    37  H    0.120382
    38  H    0.161734
    39  H    0.140503
    40  H    0.120473
    41  H    0.126306
    42  H    0.127083
    43  H    0.121122
    44  H    0.130646
    45  H    0.157282
    46  H    0.166562
    47  H    0.166677
    48  H    0.153384
    49  H    0.141789
    50  H    0.196310
    51  H    0.117346
 Sum of Mulliken charges =  -0.00000

 Dipole moment (field-independent basis, Debye):
    X=              0.0701    Y=             -3.6906    Z=             -1.7815  Tot=              4.0986
 Quadrupole moment (field-independent basis, Debye-Ang):
   XX=           -133.7883   YY=           -159.1050   ZZ=           -137.7999
   XY=             -6.3895   XZ=              0.4909   YZ=             -2.1024

 Normal termination of Gaussian 16 at Sat Nov  5 09:35:12 2022.
