 Gaussian 16, Revision B.01,
 Gaussian 16:  ES64L-G16RevB.01 20-Dec-2017

 -----------------------------
 #p b3lyp/6-31g(d) opt SCF=XQC
 -----------------------------

 ------------------------------
 Gaussian input prepared by ASE
 ------------------------------
 Symbolic Z-matrix:
 Charge =  0 Multiplicity = 1

 SCF Done:  E(RB3LYP) =  -1038.73900817     A.U. after   15 cycles
 SCF Done:  E(RB3LYP) =  -1038.74453515     A.U. after   12 cycles
 SCF Done:  E(RB3LYP) =  -1038.74511600     A.U. after   12 cycles
 SCF Done:  E(RB3LYP) =  -1038.74538224     A.U. after   12 cycles
 SCF Done:  E(RB3LYP) =  -1038.74566282     A.U. after   11 cycles
 SCF Done:  E(RB3LYP) =  -1038.74573623     A.U. after   12 cycles
 SCF Done:  E(RB3LYP) =  -1038.74589069     A.U. after   11 cycles
 SCF Done:  E(RB3LYP) =  -1038.74607137     A.U. after   11 cycles
 SCF Done:  E(RB3LYP) =  -1038.74619509     A.U. after   11 cycles
 SCF Done:  E(RB3LYP) =  -1038.74622806     A.U. after   10 cycles
 SCF Done:  E(RB3LYP) =  -1038.74625098     A.U. after    7 cycles
 SCF Done:  E(RB3LYP) =  -1038.74625109     A.U. after    7 cycles
 SCF Done:  E(RB3LYP) =  -1038.74625126     A.U. after    7 cycles
 SCF Done:  E(RB3LYP) =  -1038.74625151     A.U. after    8 cycles
 SCF Done:  E(RB3LYP) =  -1038.74625183     A.U. after    8 cycles
 SCF Done:  E(RB3LYP) =  -1038.74625220     A.U. after    8 cycles
 SCF Done:  E(RB3LYP) =  -1038.74625262     A.U. after    8 cycles
 SCF Done:  E(RB3LYP) =  -1038.74625288     A.U. after    8 cycles
 SCF Done:  E(RB3LYP) =  -1038.74625296     A.U. after    7 cycles
 SCF Done:  E(RB3LYP) =  -1038.74625299     A.U. after    7 cycles
 Optimization completed.
    -- Stationary point found.

                         Standard orientation:
 ---------------------------------------------------------------------
 Center     Atomic      Atomic             Coordinates (Angstroms)
 Number     Number       Type             X           Y           Z
 ---------------------------------------------------------------------
      1          6           0       -7.646193   -0.340564   -0.952328
      2          6           0       -6.232419   -0.159251   -0.451699
      3          6           0       -5.486841   -1.240644    0.025184
      4          6           0       -4.172410   -1.055825    0.450246
      5          6           0       -3.572858    0.208627    0.426613
      6          6           0       -2.186549    0.390971    0.985389
      7          8           0       -1.936531    1.260524    1.821097
      8          7           0       -1.210191   -0.471335    0.558794
      9          6           0       -1.229819   -1.309847   -0.653787
     10          6           0        0.232230   -1.303489   -1.113378
     11          6           0        1.003889   -1.262797    0.232303
     12          7           0        2.426546   -0.938612    0.240110
     13          6           0        3.297890   -2.041764   -0.164423
     14          6           0        4.709320   -1.797069    0.373581
     15          6           0        5.202081   -0.402764    0.047333
     16          6           0        6.565393   -0.086764    0.117890
     17          6           0        7.022374    1.198674   -0.161897
     18          6           0        6.109205    2.193592   -0.520206
     19          6           0        4.752466    1.888244   -0.593718
     20          6           0        4.287229    0.597507   -0.312309
     21          6           0        2.805778    0.293150   -0.447911
     22          6           0        0.147709   -0.311718    1.094318
     23          6           0       -4.316154    1.320802   -0.028077
     24          6           0       -3.741218    2.718673   -0.044877
     25          6           0       -5.624799    1.103738   -0.468085
     26          1           0       -7.678235   -0.376949   -2.049549
     27          1           0       -8.085967   -1.271909   -0.581113
     28          1           0       -8.292003    0.487466   -0.639281
     29          1           0       -5.934182   -2.230993    0.067516
     30          1           0       -3.609759   -1.903920    0.831153
     31          1           0       -1.556288   -2.333208   -0.419830
     32          1           0       -1.922622   -0.904964   -1.395000
     33          1           0        0.482200   -2.173483   -1.728701
     34          1           0        0.433416   -0.400800   -1.701311
     35          1           0        0.926326   -2.263229    0.677882
     36          1           0        2.900587   -2.974482    0.250471
     37          1           0        3.331254   -2.164019   -1.265261
     38          1           0        4.694738   -1.933262    1.463690
     39          1           0        5.399592   -2.548843   -0.030860
     40          1           0        7.274277   -0.864321    0.396029
     41          1           0        8.083857    1.424208   -0.102425
     42          1           0        6.452557    3.201441   -0.737789
     43          1           0        4.039075    2.662094   -0.871428
     44          1           0        2.562131    0.252045   -1.529383
     45          1           0        2.230116    1.128344   -0.034993
     46          1           0        0.458095    0.735772    1.009665
     47          1           0        0.186336   -0.568911    2.157054
     48          1           0       -2.777006    2.756538   -0.564824
     49          1           0       -4.425123    3.410915   -0.545975
     50          1           0       -3.556126    3.074972    0.972365
     51          1           0       -6.197302    1.956044   -0.830170
 ---------------------------------------------------------------------

 The electronic state is 1-A.
 Alpha  occ. eigenvalues --  -19.10024 -14.35478 -14.32998 -10.27464 -10.22658
 Alpha  occ. eigenvalues --  -10.22409 -10.21486 -10.21308 -10.21121 -10.19793
 Alpha  occ. eigenvalues --  -10.19748 -10.19243 -10.19209 -10.19126 -10.19109
 Alpha  occ. eigenvalues --  -10.19061 -10.18735 -10.18485 -10.18480 -10.18472
 Alpha  occ. eigenvalues --  -10.18439 -10.18403 -10.18324 -10.18203 -10.17135
 Alpha  occ. eigenvalues --   -1.02058  -0.94296  -0.92271  -0.85712  -0.85113
 Alpha  occ. eigenvalues --   -0.79500  -0.78040  -0.77272  -0.75998  -0.75675
 Alpha  occ. eigenvalues --   -0.73559  -0.72122  -0.69386  -0.68145  -0.66142
 Alpha  occ. eigenvalues --   -0.63565  -0.62640  -0.60044  -0.59753  -0.59028
 Alpha  occ. eigenvalues --   -0.57262  -0.55048  -0.54078  -0.51760  -0.51552
 Alpha  occ. eigenvalues --   -0.49220  -0.47772  -0.47039  -0.46859  -0.45295
 Alpha  occ. eigenvalues --   -0.45086  -0.44198  -0.44115  -0.43190  -0.43013
 Alpha  occ. eigenvalues --   -0.42610  -0.42071  -0.41039  -0.40639  -0.40480
 Alpha  occ. eigenvalues --   -0.40439  -0.39986  -0.39273  -0.39079  -0.38339
 Alpha  occ. eigenvalues --   -0.38014  -0.37476  -0.36907  -0.36870  -0.35873
 Alpha  occ. eigenvalues --   -0.35248  -0.34383  -0.34149  -0.33840  -0.33330
 Alpha  occ. eigenvalues --   -0.32931  -0.32397  -0.32064  -0.24722  -0.24218
 Alpha  occ. eigenvalues --   -0.24113  -0.23497  -0.23134  -0.22798  -0.21338
 Alpha virt. eigenvalues --   -0.01868   0.00053   0.00303   0.00628   0.05140
 Alpha virt. eigenvalues --    0.07539   0.09356   0.09606   0.10226   0.10806
 Alpha virt. eigenvalues --    0.11976   0.12385   0.12605   0.12890   0.13307

 Mulliken charges:
               1
     1  C   -0.531515
     2  C    0.196588
     3  C   -0.193082
     4  C   -0.161997
     5  C    0.013913
     6  C    0.508129
     7  O   -0.524989
     8  N   -0.454128
     9  C   -0.125938
    10  C   -0.314123
    11  C    0.026732
    12  N   -0.418272
    13  C   -0.140338
    14  C   -0.330337
    15  C    0.128102
    16  C   -0.191425
    17  C   -0.127700
    18  C   -0.132392
    19  C   -0.181428
    20  C    0.102233
    21  C   -0.195821
    22  C   -0.107514
    23  C    0.155313
    24  C   -0.520100
    25  C   -0.251377
    26  H    0.165137
    27  H    0.156400
    28  H    0.161364
    29  H    0.121173
    30  H    0.134473
    31  H    0.144579
    32  H    0.167629
    33  H    0.146734
    34  H    0.153326
    35  H    0.135958
    36  H    0.137103
    37  H    0.120379
    38  H    0.161733
    39  H    0.140502
    40  H    0.120474
    41  H    0.126306
    42  H    0.127084
    43  H    0.121123
    44  H    0.130645
    45  H    0.157280
    46  H    0.166562
    47  H    0.166677
    48  H    0.153384
    49  H    0.141788
    50  H    0.196309
    51  H    0.117345
 Sum of Mulliken charges =  -0.00000

 Dipole moment (field-independent basis, Debye):
    X=              0.0402    Y=             -2.6092    Z=             -3.1605  Tot=              4.0986
 Quadrupole moment (field-independent basis, Debye-Ang):
   XX=           -134.2916   YY=           -139.2208   ZZ=           -155.7072
   XY=              1.4504   XZ=              7.3585   YZ=             -6.0124

 Normal termination of Gaussian 16 at Fri Nov  4 22:02:14 2022.
