 Gaussian 16, Revision B.01,
 Gaussian 16:  ES64L-G16RevB.01 20-Dec-2017

 -------------------------------------------------------------------
 #p b3lyp/6-31g(d) 6D 10F nosymm GFInput td=(50-50,nstate=2) SCF=XQC
 -------------------------------------------------------------------

 ------------------------------
 Gaussian input prepared by ASE
 ------------------------------
 Symbolic Z-matrix:
 Charge =  0 Multiplicity = 1

                          Input orientation:
 ---------------------------------------------------------------------
 Center     Atomic      Atomic             Coordinates (Angstroms)
 Number     Number       Type             X           Y           Z
 ---------------------------------------------------------------------
      1          8           0        1.248647    2.142933   -1.539487
      2          6           0        1.475000    1.163788   -0.832723
      3          7           0        0.476318    0.399340   -0.285375
      4          6           0       -0.932196    0.709529   -0.458958
      5          6           0       -1.638843    1.313138    0.796715
      6          6           0       -2.890086    0.436646    0.999341
      7          7           0       -3.105177   -0.175855   -0.315779
      8          6           0       -4.072250   -1.263678   -0.338156
      9          6           0       -5.494158   -0.799862   -0.078458
     10          6           0       -6.336540   -1.519554    0.775211
     11          6           0       -7.659258   -1.119554    0.979112
     12          6           0       -8.153073    0.014651    0.334501
     13          6           0       -7.316808    0.744721   -0.514471
     14          6           0       -5.998871    0.339238   -0.720759
     15          6           0       -1.774867   -0.538808   -0.784399
     16          6           0        2.880649    0.733258   -0.520708
     17          6           0        3.235974   -0.560995   -0.114269
     18          6           0        4.560973   -0.894717    0.145627
     19          6           0        5.559959    0.076122    0.007159
     20          7           0        6.906961   -0.269832    0.272877
     21          6           0        8.044496    0.390268   -0.108488
     22          6           0        9.110843   -0.333710    0.373980
     23          6           0        8.518527   -1.432430    1.040823
     24          7           0        7.192997   -1.397381    0.979777
     25          6           0        5.220295    1.373615   -0.398234
     26          6           0        3.894349    1.687484   -0.671480
     27          1           0        0.722978   -0.267824    0.432635
     28          1           0       -0.973661    1.419300   -1.284969
     29          1           0       -0.980953    1.290081    1.671374
     30          1           0       -1.903458    2.358791    0.616102
     31          1           0       -3.774154    0.999613    1.311179
     32          1           0       -2.699574   -0.336254    1.771616
     33          1           0       -3.807736   -2.059769    0.387606
     34          1           0       -4.018793   -1.724642   -1.334507
     35          1           0       -5.954108   -2.400930    1.285973
     36          1           0       -8.299598   -1.690795    1.646376
     37          1           0       -9.180599    0.330759    0.494218
     38          1           0       -7.693513    1.631573   -1.017890
     39          1           0       -5.341433    0.908381   -1.371930
     40          1           0       -1.364137   -1.419178   -0.242452
     41          1           0       -1.782069   -0.783171   -1.852042
     42          1           0        2.483626   -1.341264   -0.036170
     43          1           0        4.839829   -1.896236    0.448444
     44          1           0        8.009151    1.290057   -0.702907
     45          1           0       10.160548   -0.107867    0.255758
     46          1           0        9.004746   -2.245265    1.564584
     47          1           0        5.980769    2.142394   -0.484544
     48          1           0        3.618278    2.683895   -0.999475
 ---------------------------------------------------------------------

 SCF Done:  E(RB3LYP) =  -1107.70203259     A.U. after   15 cycles

 Excitation energies and oscillator strengths:

 Excited state symmetry could not be determined.
 Excited State   1:      Triplet-?Sym    3.2501 eV  381.47 nm  f=0.0000  <S**2>=2.000
      84 -> 93         0.14398
      85 -> 94        -0.22482
      91 -> 93         0.63378
 This state for optimization and/or second-order correction.
 Total Energy, E(TD-HF/TD-DFT) =  -1107.58259237
 Copying the excited state density for this state as the 1-particle RhoCI density.

 Excited state symmetry could not be determined.
 Excited State   2:      Triplet-?Sym    3.9347 eV  315.11 nm  f=0.0000  <S**2>=2.000
      86 -> 93         0.53456
      86 -> 97        -0.34581
      89 -> 93         0.20959

 Excited state symmetry could not be determined.
 Excited State   3:      Singlet-?Sym    4.3273 eV  286.52 nm  f=0.0079  <S**2>=0.000
      87 -> 93         0.10777
      89 -> 93         0.10024
      92 -> 93         0.68493

 Excited state symmetry could not be determined.
 Excited State   4:      Singlet-?Sym    4.4478 eV  278.76 nm  f=0.0766  <S**2>=0.000
      87 -> 93         0.39302
      87 -> 97         0.11505
      89 -> 93         0.41146
      91 -> 93         0.33132
      92 -> 93        -0.16515

 Alpha  occ. eigenvalues --  -19.10904 -14.42548 -14.36022 -14.35330 -14.32877
 Alpha  occ. eigenvalues --  -10.28717 -10.25014 -10.23029 -10.22474 -10.21521
 Alpha  occ. eigenvalues --  -10.21264 -10.21241 -10.20861 -10.20813 -10.20604
 Alpha  occ. eigenvalues --  -10.20498 -10.20145 -10.20110 -10.19241 -10.19026
 Alpha  occ. eigenvalues --  -10.18734 -10.18667 -10.18654 -10.18612 -10.18593
 Alpha  occ. eigenvalues --  -10.18230  -1.05608  -1.02849  -0.94353  -0.91636
 Alpha  occ. eigenvalues --   -0.88441  -0.84970  -0.83621  -0.79415  -0.78772
 Alpha  occ. eigenvalues --   -0.76027  -0.75199  -0.74204  -0.73904  -0.72503
 Alpha  occ. eigenvalues --   -0.67486  -0.65268  -0.63431  -0.60572  -0.60341
 Alpha  occ. eigenvalues --   -0.59464  -0.59270  -0.58957  -0.57151  -0.56663
 Alpha  occ. eigenvalues --   -0.55458  -0.53133  -0.51107  -0.49674  -0.49020
 Alpha  occ. eigenvalues --   -0.47411  -0.47009  -0.45711  -0.45697  -0.45514
 Alpha  occ. eigenvalues --   -0.44836  -0.43865  -0.43708  -0.43429  -0.42980
 Alpha  occ. eigenvalues --   -0.41847  -0.41682  -0.41500  -0.41083  -0.40332
 Alpha  occ. eigenvalues --   -0.39404  -0.38368  -0.37920  -0.37529  -0.37300
 Alpha  occ. eigenvalues --   -0.35836  -0.35675  -0.35206  -0.34617  -0.33663
 Alpha  occ. eigenvalues --   -0.33653  -0.32790  -0.29532  -0.29497  -0.26635
 Alpha  occ. eigenvalues --   -0.25532  -0.25467  -0.24629  -0.24518  -0.24083
 Alpha  occ. eigenvalues --   -0.22943  -0.22047
 Alpha virt. eigenvalues --   -0.04580  -0.01486   0.00006   0.00344   0.01506
 Alpha virt. eigenvalues --    0.06548   0.06903   0.07401   0.08658   0.09347
 Alpha virt. eigenvalues --    0.09886   0.10419   0.11577   0.12267   0.13003

 Mulliken charges:
               1
     1  O   -0.523433
     2  C    0.562037
     3  N   -0.631456
     4  C    0.038000
     5  C   -0.297721
     6  C   -0.122658
     7  N   -0.403601
     8  C   -0.190080
     9  C    0.145563
    10  C   -0.186711
    11  C   -0.128654
    12  C   -0.129295
    13  C   -0.131402
    14  C   -0.165360
    15  C   -0.119756
    16  C    0.079288
    17  C   -0.198916
    18  C   -0.157439
    19  C    0.349476
    20  N   -0.379168
    21  C    0.083137
    22  C   -0.252497
    23  C    0.060863
    24  N   -0.288264
    25  C   -0.172245
    26  C   -0.174359
    27  H    0.320352
    28  H    0.192127
    29  H    0.140567
    30  H    0.162854
    31  H    0.158817
    32  H    0.107419
    33  H    0.115296
    34  H    0.154328
    35  H    0.121609
    36  H    0.127757
    37  H    0.127723
    38  H    0.129245
    39  H    0.140449
    40  H    0.097883
    41  H    0.154225
    42  H    0.134000
    43  H    0.174801
    44  H    0.169916
    45  H    0.143935
    46  H    0.149914
    47  H    0.143031
    48  H    0.168402
 Sum of Mulliken charges =  -0.00000

 Dipole moment (field-independent basis, Debye):
    X=              0.8314    Y=             -1.2191    Z=              1.5041  Tot=              2.1070
 Quadrupole moment (field-independent basis, Debye-Ang):
   XX=           -125.5850   YY=           -150.7234   ZZ=           -156.3109
   XY=              6.2309   XZ=             -4.8087   YZ=              0.9897

 Normal termination of Gaussian 16 at Sat Nov  5 09:38:12 2022.
