 Gaussian 16, Revision B.01,
 Gaussian 16:  ES64L-G16RevB.01 20-Dec-2017

 -----------------------------
 #p b3lyp/6-31g(d) opt SCF=XQC
 -----------------------------

 ------------------------------
 Gaussian input prepared by ASE
 ------------------------------
 Symbolic Z-matrix:
 Charge =  0 Multiplicity = 1

 SCF Done:  E(RB3LYP) =  -1107.69462736     A.U. after   15 cycles
 SCF Done:  E(RB3LYP) =  -1107.70037716     A.U. after   12 cycles
 SCF Done:  E(RB3LYP) =  -1107.70088626     A.U. after   12 cycles
 SCF Done:  E(RB3LYP) =  -1107.70113801     A.U. after   12 cycles
 SCF Done:  E(RB3LYP) =  -1107.70129643     A.U. after   11 cycles
 SCF Done:  E(RB3LYP) =  -1107.70154709     A.U. after   12 cycles
 SCF Done:  E(RB3LYP) =  -1107.70179731     A.U. after   11 cycles
 SCF Done:  E(RB3LYP) =  -1107.70190839     A.U. after   11 cycles
 SCF Done:  E(RB3LYP) =  -1107.70196797     A.U. after   11 cycles
 SCF Done:  E(RB3LYP) =  -1107.70201090     A.U. after   10 cycles
 SCF Done:  E(RB3LYP) =  -1107.70202200     A.U. after   11 cycles
 SCF Done:  E(RB3LYP) =  -1107.70202565     A.U. after   10 cycles
 SCF Done:  E(RB3LYP) =  -1107.70202854     A.U. after    9 cycles
 SCF Done:  E(RB3LYP) =  -1107.70203223     A.U. after    9 cycles
 SCF Done:  E(RB3LYP) =  -1107.70203387     A.U. after    9 cycles
 SCF Done:  E(RB3LYP) =  -1107.70203435     A.U. after    8 cycles
 SCF Done:  E(RB3LYP) =  -1107.70203453     A.U. after    8 cycles
 SCF Done:  E(RB3LYP) =  -1107.70203460     A.U. after    7 cycles
 SCF Done:  E(RB3LYP) =  -1107.70203463     A.U. after    7 cycles
 SCF Done:  E(RB3LYP) =  -1107.70203464     A.U. after    7 cycles
 Optimization completed.
    -- Stationary point found.

                         Standard orientation:
 ---------------------------------------------------------------------
 Center     Atomic      Atomic             Coordinates (Angstroms)
 Number     Number       Type             X           Y           Z
 ---------------------------------------------------------------------
      1          8           0        0.835721   -2.543365    0.409894
      2          6           0        1.055026   -1.349071    0.222698
      3          7           0        0.050905   -0.427374    0.069235
      4          6           0       -1.355015   -0.792948    0.070801
      5          6           0       -2.048447   -0.770715   -1.328866
      6          6           0       -3.308137    0.093668   -1.126556
      7          7           0       -3.536782    0.045727    0.321335
      8          6           0       -4.515810    0.999379    0.822476
      9          6           0       -5.931180    0.691964    0.367927
     10          6           0       -6.776923    1.713004   -0.077619
     11          6           0       -8.094101    1.438123   -0.452644
     12          6           0       -8.578827    0.131476   -0.393398
     13          6           0       -7.739062   -0.896753    0.043218
     14          6           0       -6.426738   -0.618091    0.422799
     15          6           0       -2.212990    0.168230    0.916003
     16          6           0        2.457487   -0.813686    0.151803
     17          6           0        2.800737    0.527384    0.375966
     18          6           0        4.123342    0.952264    0.307170
     19          6           0        5.132161    0.030732    0.002639
     20          7           0        6.476663    0.469318   -0.065626
     21          6           0        7.619351   -0.283370   -0.011934
     22          6           0        8.680212    0.588271   -0.105918
     23          6           0        8.079391    1.865214   -0.211428
     24          7           0        6.754023    1.796571   -0.185463
     25          6           0        4.804611   -1.312642   -0.223767
     26          6           0        3.480773   -1.725829   -0.134115
     27          1           0        0.293991    0.493690   -0.268462
     28          1           0       -1.393018   -1.799217    0.487653
     29          1           0       -1.386293   -0.350850   -2.092831
     30          1           0       -2.302537   -1.787399   -1.641636
     31          1           0       -4.184348   -0.274741   -1.667184
     32          1           0       -3.122070    1.133157   -1.465554
     33          1           0       -4.256244    2.039141    0.536159
     34          1           0       -4.472604    0.961919    1.920106
     35          1           0       -6.401503    2.732812   -0.132457
     36          1           0       -8.737164    2.244109   -0.796807
     37          1           0       -9.601983   -0.086263   -0.688332
     38          1           0       -8.108658   -1.918096    0.089087
     39          1           0       -5.766516   -1.414821    0.753708
     40          1           0       -1.809100    1.201412    0.833150
     41          1           0       -2.228439   -0.095149    1.979027
     42          1           0        2.040310    1.253433    0.650827
     43          1           0        4.392794    1.984767    0.491106
     44          1           0        7.590756   -1.354761    0.112600
     45          1           0        9.731695    0.341176   -0.092149
     46          1           0        8.559409    2.830479   -0.307774
     47          1           0        5.572995   -2.032079   -0.486041
     48          1           0        3.213919   -2.765106   -0.293249
 ---------------------------------------------------------------------

 The electronic state is 1-A.
 Alpha  occ. eigenvalues --  -19.10904 -14.42548 -14.36022 -14.35330 -14.32877
 Alpha  occ. eigenvalues --  -10.28717 -10.25014 -10.23029 -10.22475 -10.21521
 Alpha  occ. eigenvalues --  -10.21265 -10.21241 -10.20861 -10.20813 -10.20604
 Alpha  occ. eigenvalues --  -10.20498 -10.20145 -10.20110 -10.19241 -10.19026
 Alpha  occ. eigenvalues --  -10.18734 -10.18667 -10.18654 -10.18612 -10.18593
 Alpha  occ. eigenvalues --  -10.18230  -1.05608  -1.02849  -0.94353  -0.91636
 Alpha  occ. eigenvalues --   -0.88441  -0.84970  -0.83621  -0.79415  -0.78772
 Alpha  occ. eigenvalues --   -0.76027  -0.75199  -0.74204  -0.73904  -0.72503
 Alpha  occ. eigenvalues --   -0.67486  -0.65268  -0.63431  -0.60572  -0.60341
 Alpha  occ. eigenvalues --   -0.59464  -0.59271  -0.58957  -0.57151  -0.56663
 Alpha  occ. eigenvalues --   -0.55458  -0.53133  -0.51107  -0.49674  -0.49020
 Alpha  occ. eigenvalues --   -0.47411  -0.47009  -0.45711  -0.45697  -0.45514
 Alpha  occ. eigenvalues --   -0.44836  -0.43865  -0.43708  -0.43429  -0.42980
 Alpha  occ. eigenvalues --   -0.41847  -0.41682  -0.41500  -0.41083  -0.40332
 Alpha  occ. eigenvalues --   -0.39404  -0.38368  -0.37920  -0.37529  -0.37300
 Alpha  occ. eigenvalues --   -0.35836  -0.35675  -0.35206  -0.34617  -0.33663
 Alpha  occ. eigenvalues --   -0.33653  -0.32790  -0.29532  -0.29497  -0.26635
 Alpha  occ. eigenvalues --   -0.25532  -0.25467  -0.24629  -0.24518  -0.24083
 Alpha  occ. eigenvalues --   -0.22943  -0.22047
 Alpha virt. eigenvalues --   -0.04580  -0.01486   0.00006   0.00344   0.01506
 Alpha virt. eigenvalues --    0.06548   0.06903   0.07401   0.08658   0.09347
 Alpha virt. eigenvalues --    0.09886   0.10419   0.11577   0.12267   0.13003

 Mulliken charges:
               1
     1  O   -0.523430
     2  C    0.562020
     3  N   -0.631435
     4  C    0.037979
     5  C   -0.297719
     6  C   -0.122656
     7  N   -0.403598
     8  C   -0.190073
     9  C    0.145564
    10  C   -0.186701
    11  C   -0.128663
    12  C   -0.129291
    13  C   -0.131402
    14  C   -0.165369
    15  C   -0.119760
    16  C    0.079286
    17  C   -0.198906
    18  C   -0.157446
    19  C    0.349495
    20  N   -0.379171
    21  C    0.083129
    22  C   -0.252494
    23  C    0.060863
    24  N   -0.288268
    25  C   -0.172251
    26  C   -0.174358
    27  H    0.320352
    28  H    0.192130
    29  H    0.140566
    30  H    0.162855
    31  H    0.158817
    32  H    0.107419
    33  H    0.115295
    34  H    0.154326
    35  H    0.121609
    36  H    0.127757
    37  H    0.127723
    38  H    0.129245
    39  H    0.140452
    40  H    0.097884
    41  H    0.154226
    42  H    0.133998
    43  H    0.174801
    44  H    0.169917
    45  H    0.143935
    46  H    0.149915
    47  H    0.143031
    48  H    0.168402
 Sum of Mulliken charges =  -0.00000

 Dipole moment (field-independent basis, Debye):
    X=              0.8259    Y=              1.7725    Z=             -0.7848  Tot=              2.1071
 Quadrupole moment (field-independent basis, Debye-Ang):
   XX=           -126.2098   YY=           -152.5773   ZZ=           -154.3316
   XY=             -8.2694   XZ=              2.0661   YZ=              2.7143

 Normal termination of Gaussian 16 at Fri Nov  4 21:49:17 2022.
