 Gaussian 16, Revision B.01,
 Gaussian 16:  ES64L-G16RevB.01 20-Dec-2017

 -----------------------------
 #p b3lyp/6-31g(d) opt SCF=XQC
 -----------------------------

 ------------------------------
 Gaussian input prepared by ASE
 ------------------------------
 Symbolic Z-matrix:
 Charge =  0 Multiplicity = 1

 SCF Done:  E(RB3LYP) =  -1394.15901060     A.U. after   15 cycles
 SCF Done:  E(RB3LYP) =  -1394.16572638     A.U. after   13 cycles
 SCF Done:  E(RB3LYP) =  -1394.16659145     A.U. after   12 cycles
 SCF Done:  E(RB3LYP) =  -1394.16688356     A.U. after   12 cycles
 SCF Done:  E(RB3LYP) =  -1394.16698455     A.U. after   12 cycles
 SCF Done:  E(RB3LYP) =  -1394.16701730     A.U. after   11 cycles
 SCF Done:  E(RB3LYP) =  -1394.16703374     A.U. after   11 cycles
 SCF Done:  E(RB3LYP) =  -1394.16703813     A.U. after    9 cycles
 SCF Done:  E(RB3LYP) =  -1394.16703882     A.U. after    8 cycles
 SCF Done:  E(RB3LYP) =  -1394.16703918     A.U. after    8 cycles
 SCF Done:  E(RB3LYP) =  -1394.16703941     A.U. after    8 cycles
 SCF Done:  E(RB3LYP) =  -1394.16703961     A.U. after    8 cycles
 SCF Done:  E(RB3LYP) =  -1394.16703979     A.U. after    8 cycles
 SCF Done:  E(RB3LYP) =  -1394.16703994     A.U. after    8 cycles
 SCF Done:  E(RB3LYP) =  -1394.16703997     A.U. after    8 cycles
 Optimization completed.
    -- Stationary point found.

                         Standard orientation:
 ---------------------------------------------------------------------
 Center     Atomic      Atomic             Coordinates (Angstroms)
 Number     Number       Type             X           Y           Z
 ---------------------------------------------------------------------
      1          6           0       -7.424788   -0.401378    0.809811
      2          6           0       -6.091731    0.248903    0.692856
      3          6           0       -5.614704    1.489186    1.019663
      4          6           0       -4.236111    1.505198    0.658014
      5          6           0       -3.958436    0.268137    0.131543
      6          6           0       -2.759723   -0.330249   -0.406549
      7          7           0       -2.674823   -1.546480   -0.881442
      8          6           0       -1.400043   -1.812347   -1.306760
      9          6           0       -0.468295   -0.816464   -1.183277
     10          6           0        0.984815   -0.876374   -1.591109
     11          7           0        1.962374   -0.653177   -0.535295
     12          6           0        2.026281   -1.659104    0.527960
     13          6           0        3.217421   -2.612267    0.400833
     14          6           0        4.530086   -1.857763    0.132299
     15          6           0        4.661467   -0.529836    0.887132
     16          8           0        4.339812   -0.789355    2.267058
     17          6           0        3.878492    0.647564    0.302752
     18          6           0        4.488727    1.903825    0.426753
     19          6           0        3.952494    3.067295   -0.119626
     20          6           0        2.759479    2.970556   -0.832510
     21          6           0        2.114644    1.744833   -0.961609
     22          6           0        2.636777    0.561129   -0.393622
     23         16           0       -1.239939    0.578427   -0.458595
     24          8           0       -5.090953   -0.502716    0.151226
     25          1           0       -7.806179   -0.709168   -0.171459
     26          1           0       -7.377214   -1.298765    1.438699
     27          1           0       -8.141130    0.294031    1.255314
     28          1           0       -6.182838    2.293831    1.465457
     29          1           0       -3.539778    2.324788    0.772109
     30          1           0       -1.182024   -2.790912   -1.723849
     31          1           0        1.143450   -1.882417   -2.005135
     32          1           0        1.193822   -0.179398   -2.408296
     33          1           0        2.090533   -1.144835    1.490506
     34          1           0        1.081868   -2.214655    0.522871
     35          1           0        3.049713   -3.340629   -0.403789
     36          1           0        3.293635   -3.180484    1.335167
     37          1           0        5.377972   -2.496992    0.405100
     38          1           0        4.629595   -1.640686   -0.937710
     39          1           0        5.719944   -0.231949    0.831885
     40          1           0        4.309096    0.070194    2.716314
     41          1           0        5.446059    1.956151    0.943747
     42          1           0        4.464440    4.018412   -0.008705
     43          1           0        2.312733    3.853343   -1.282880
     44          1           0        1.170474    1.714435   -1.494261
 ---------------------------------------------------------------------

 The electronic state is 1-A.
 Alpha  occ. eigenvalues --  -88.91115 -19.21374 -19.13907 -14.34621 -14.33035
 Alpha  occ. eigenvalues --  -10.25909 -10.24924 -10.24916 -10.23798 -10.23526
 Alpha  occ. eigenvalues --  -10.22931 -10.22291 -10.21771 -10.20566 -10.19844
 Alpha  occ. eigenvalues --  -10.19598 -10.18959 -10.18720 -10.18643 -10.18629
 Alpha  occ. eigenvalues --  -10.18126 -10.17805 -10.17732 -10.17613  -7.97235
 Alpha  occ. eigenvalues --   -5.93632  -5.93288  -5.92925  -1.11141  -1.01062
 Alpha  occ. eigenvalues --   -0.96072  -0.94388  -0.84277  -0.80947  -0.80589
 Alpha  occ. eigenvalues --   -0.79676  -0.78797  -0.75663  -0.75280  -0.73702
 Alpha  occ. eigenvalues --   -0.71935  -0.68678  -0.66440  -0.64990  -0.61431
 Alpha  occ. eigenvalues --   -0.59682  -0.58748  -0.57476  -0.56663  -0.55472
 Alpha  occ. eigenvalues --   -0.54954  -0.52223  -0.50609  -0.50293  -0.48306
 Alpha  occ. eigenvalues --   -0.47389  -0.46734  -0.46396  -0.45769  -0.44637
 Alpha  occ. eigenvalues --   -0.43698  -0.43369  -0.42895  -0.42114  -0.41742
 Alpha  occ. eigenvalues --   -0.41343  -0.40812  -0.40050  -0.39771  -0.39305
 Alpha  occ. eigenvalues --   -0.39119  -0.37894  -0.37091  -0.36913  -0.36531
 Alpha  occ. eigenvalues --   -0.35502  -0.35337  -0.34335  -0.33675  -0.32925
 Alpha  occ. eigenvalues --   -0.31176  -0.28564  -0.28380  -0.27741  -0.26742
 Alpha  occ. eigenvalues --   -0.26690  -0.26224  -0.24337  -0.20362  -0.18897
 Alpha virt. eigenvalues --   -0.04868  -0.00367   0.01017   0.02157   0.02677
 Alpha virt. eigenvalues --    0.05774   0.06953   0.08481   0.09953   0.10399
 Alpha virt. eigenvalues --    0.10636   0.10932   0.11832   0.12058   0.13672

 Mulliken charges:
               1
     1  C   -0.533318
     2  C    0.369080
     3  C   -0.217930
     4  C   -0.203538
     5  C    0.351220
     6  C    0.007332
     7  N   -0.428679
     8  C    0.028247
     9  C   -0.108436
    10  C   -0.234864
    11  N   -0.480785
    12  C   -0.168008
    13  C   -0.247352
    14  C   -0.275386
    15  C    0.056491
    16  O   -0.623592
    17  C    0.098159
    18  C   -0.212437
    19  C   -0.130861
    20  C   -0.140218
    21  C   -0.190825
    22  C    0.298422
    23  S    0.237518
    24  O   -0.458833
    25  H    0.178547
    26  H    0.178769
    27  H    0.167245
    28  H    0.141587
    29  H    0.156043
    30  H    0.147047
    31  H    0.165780
    32  H    0.177410
    33  H    0.172916
    34  H    0.147228
    35  H    0.125868
    36  H    0.149560
    37  H    0.142767
    38  H    0.144963
    39  H    0.121619
    40  H    0.387169
    41  H    0.122300
    42  H    0.122363
    43  H    0.127402
    44  H    0.132012
 Sum of Mulliken charges =  -0.00000

 Dipole moment (field-independent basis, Debye):
    X=             -0.7470    Y=              1.5309    Z=              0.0054  Tot=              1.7034
 Quadrupole moment (field-independent basis, Debye-Ang):
   XX=           -128.6244   YY=           -141.5299   ZZ=           -146.2240
   XY=             -4.0758   XZ=             -6.9617   YZ=              5.2301

 Normal termination of Gaussian 16 at Fri Nov  4 21:45:03 2022.
