 Gaussian 16, Revision B.01,
 Gaussian 16:  ES64L-G16RevB.01 20-Dec-2017

 -------------------------------------------------------------------
 #p b3lyp/6-31g(d) 6D 10F nosymm GFInput td=(50-50,nstate=2) SCF=XQC
 -------------------------------------------------------------------

 ------------------------------
 Gaussian input prepared by ASE
 ------------------------------
 Symbolic Z-matrix:
 Charge =  0 Multiplicity = 1

                          Input orientation:
 ---------------------------------------------------------------------
 Center     Atomic      Atomic             Coordinates (Angstroms)
 Number     Number       Type             X           Y           Z
 ---------------------------------------------------------------------
      1          6           0        7.728134    0.121008    0.214502
      2          6           0        6.369309   -0.469233    0.351589
      3          6           0        5.873078   -1.547848    1.032034
      4          6           0        4.474308   -1.593243    0.761945
      5          6           0        4.204869   -0.534613   -0.069500
      6          6           0        2.994705   -0.046857   -0.687657
      7          7           0        2.920156    0.996233   -1.474014
      8          6           0        1.630258    1.199098   -1.888327
      9          6           0        0.675595    0.322452   -1.446404
     10          6           0       -0.797926    0.341106   -1.777808
     11          7           0       -1.712439    0.463567   -0.651376
     12          6           0       -1.674111    1.723395    0.095516
     13          6           0       -2.838410    2.663794   -0.226282
     14          6           0       -4.190138    1.931032   -0.207061
     15          6           0       -4.317023    0.867818    0.890164
     16          8           0       -3.898739    1.477766    2.126291
     17          6           0       -3.613098   -0.461876    0.612274
     18          6           0       -4.255771   -1.604559    1.109470
     19          6           0       -3.795027   -2.898202    0.877220
     20          6           0       -2.647790   -3.059291    0.103435
     21          6           0       -1.971958   -1.949065   -0.392066
     22          6           0       -2.416571   -0.630786   -0.145391
     23         16           0        1.445178   -0.858326   -0.407257
     24          8           0        5.361456    0.154911   -0.322599
     25          1           0        8.055675    0.129874   -0.832265
     26          1           0        7.751172    1.157185    0.573492
     27          1           0        8.447994   -0.461196    0.795926
     28          1           0        6.441484   -2.227535    1.651632
     29          1           0        3.759734   -2.314812    1.133895
     30          1           0        1.418710    2.036263   -2.546723
     31          1           0       -0.949131    1.202547   -2.443963
     32          1           0       -1.082282   -0.541138   -2.359222
     33          1           0       -1.693460    1.495243    1.164473
     34          1           0       -0.713929    2.208682   -0.112147
     35          1           0       -2.698553    3.135582   -1.208071
     36          1           0       -2.835294    3.468522    0.518070
     37          1           0       -4.996853    2.661876   -0.076597
     38          1           0       -4.365498    1.435381   -1.169102
     39          1           0       -5.386232    0.619294    0.974953
     40          1           0       -3.867949    0.773056    2.792651
     41          1           0       -5.179065   -1.466011    1.670573
     42          1           0       -4.330304   -3.756189    1.272635
     43          1           0       -2.260731   -4.052608   -0.109252
     44          1           0       -1.063532   -2.112296   -0.961467
 ---------------------------------------------------------------------

 SCF Done:  E(RB3LYP) =  -1394.16703406     A.U. after   15 cycles

 Excitation energies and oscillator strengths:

 Excited state symmetry could not be determined.
 Excited State   1:      Triplet-?Sym    2.4143 eV  513.54 nm  f=0.0000  <S**2>=2.000
      86 -> 95         0.10365
      89 -> 91         0.65777
      90 -> 91         0.21692
 This state for optimization and/or second-order correction.
 Total Energy, E(TD-HF/TD-DFT) =  -1394.07831081
 Copying the excited state density for this state as the 1-particle RhoCI density.

 Excited state symmetry could not be determined.
 Excited State   2:      Triplet-?Sym    3.2032 eV  387.06 nm  f=0.0000  <S**2>=2.000
      89 -> 91        -0.21528
      90 -> 91         0.65573

 Excited state symmetry could not be determined.
 Excited State   3:      Singlet-?Sym    3.2508 eV  381.40 nm  f=0.0352  <S**2>=0.000
      90 -> 91         0.70207

 Excited state symmetry could not be determined.
 Excited State   4:      Singlet-?Sym    3.9730 eV  312.06 nm  f=0.7017  <S**2>=0.000
      89 -> 91         0.69961

 Alpha  occ. eigenvalues --  -88.91115 -19.21374 -19.13907 -14.34620 -14.33035
 Alpha  occ. eigenvalues --  -10.25909 -10.24924 -10.24916 -10.23798 -10.23526
 Alpha  occ. eigenvalues --  -10.22931 -10.22291 -10.21771 -10.20566 -10.19844
 Alpha  occ. eigenvalues --  -10.19598 -10.18959 -10.18720 -10.18643 -10.18629
 Alpha  occ. eigenvalues --  -10.18126 -10.17805 -10.17732 -10.17613  -7.97235
 Alpha  occ. eigenvalues --   -5.93632  -5.93288  -5.92925  -1.11141  -1.01062
 Alpha  occ. eigenvalues --   -0.96072  -0.94388  -0.84277  -0.80947  -0.80588
 Alpha  occ. eigenvalues --   -0.79676  -0.78797  -0.75663  -0.75280  -0.73702
 Alpha  occ. eigenvalues --   -0.71935  -0.68678  -0.66440  -0.64990  -0.61431
 Alpha  occ. eigenvalues --   -0.59682  -0.58748  -0.57476  -0.56663  -0.55472
 Alpha  occ. eigenvalues --   -0.54954  -0.52223  -0.50609  -0.50293  -0.48306
 Alpha  occ. eigenvalues --   -0.47389  -0.46734  -0.46396  -0.45769  -0.44637
 Alpha  occ. eigenvalues --   -0.43698  -0.43369  -0.42895  -0.42114  -0.41742
 Alpha  occ. eigenvalues --   -0.41343  -0.40812  -0.40050  -0.39771  -0.39305
 Alpha  occ. eigenvalues --   -0.39119  -0.37894  -0.37091  -0.36913  -0.36532
 Alpha  occ. eigenvalues --   -0.35502  -0.35337  -0.34335  -0.33675  -0.32925
 Alpha  occ. eigenvalues --   -0.31176  -0.28564  -0.28380  -0.27741  -0.26742
 Alpha  occ. eigenvalues --   -0.26690  -0.26224  -0.24337  -0.20362  -0.18897
 Alpha virt. eigenvalues --   -0.04868  -0.00367   0.01017   0.02157   0.02677
 Alpha virt. eigenvalues --    0.05774   0.06953   0.08481   0.09953   0.10399
 Alpha virt. eigenvalues --    0.10636   0.10932   0.11832   0.12058   0.13672

 Mulliken charges:
               1
     1  C   -0.533317
     2  C    0.369081
     3  C   -0.217929
     4  C   -0.203535
     5  C    0.351215
     6  C    0.007326
     7  N   -0.428675
     8  C    0.028245
     9  C   -0.108441
    10  C   -0.234870
    11  N   -0.480769
    12  C   -0.168027
    13  C   -0.247328
    14  C   -0.275377
    15  C    0.056468
    16  O   -0.623588
    17  C    0.098155
    18  C   -0.212436
    19  C   -0.130852
    20  C   -0.140228
    21  C   -0.190822
    22  C    0.298423
    23  S    0.237531
    24  O   -0.458833
    25  H    0.178548
    26  H    0.178768
    27  H    0.167244
    28  H    0.141585
    29  H    0.156042
    30  H    0.147047
    31  H    0.165780
    32  H    0.177412
    33  H    0.172918
    34  H    0.147229
    35  H    0.125865
    36  H    0.149555
    37  H    0.142765
    38  H    0.144959
    39  H    0.121621
    40  H    0.387171
    41  H    0.122301
    42  H    0.122363
    43  H    0.127403
    44  H    0.132009
 Sum of Mulliken charges =  -0.00000

 Dipole moment (field-independent basis, Debye):
    X=              0.6940    Y=             -1.5065    Z=              0.3876  Tot=              1.7034
 Quadrupole moment (field-independent basis, Debye-Ang):
   XX=           -127.7554   YY=           -144.0412   ZZ=           -143.9234
   XY=             -3.5887   XZ=              6.7818   YZ=             -5.8614

 Normal termination of Gaussian 16 at Sat Nov  5 09:35:25 2022.
