 Gaussian 16, Revision B.01,
 Gaussian 16:  ES64L-G16RevB.01 20-Dec-2017

 -----------------------------
 #p b3lyp/6-31g(d) opt SCF=XQC
 -----------------------------

 ------------------------------
 Gaussian input prepared by ASE
 ------------------------------
 Symbolic Z-matrix:
 Charge =  0 Multiplicity = 1

 SCF Done:  E(RB3LYP) =  -1626.15786296     A.U. after   16 cycles
 SCF Done:  E(RB3LYP) =  -1626.16860882     A.U. after   15 cycles
 SCF Done:  E(RB3LYP) =  -1626.17090099     A.U. after   13 cycles
 SCF Done:  E(RB3LYP) =  -1626.17360289     A.U. after   12 cycles
 SCF Done:  E(RB3LYP) =  -1626.17402983     A.U. after   12 cycles
 SCF Done:  E(RB3LYP) =  -1626.17435652     A.U. after   13 cycles
 SCF Done:  E(RB3LYP) =  -1626.17460658     A.U. after   11 cycles
 SCF Done:  E(RB3LYP) =  -1626.17464453     A.U. after   10 cycles
 SCF Done:  E(RB3LYP) =  -1626.17465311     A.U. after   10 cycles
 SCF Done:  E(RB3LYP) =  -1626.17465819     A.U. after    9 cycles
 SCF Done:  E(RB3LYP) =  -1626.17466203     A.U. after   10 cycles
 SCF Done:  E(RB3LYP) =  -1626.17466317     A.U. after    8 cycles
 SCF Done:  E(RB3LYP) =  -1626.17466357     A.U. after    8 cycles
 SCF Done:  E(RB3LYP) =  -1626.17466382     A.U. after    8 cycles
 SCF Done:  E(RB3LYP) =  -1626.17466385     A.U. after    7 cycles
 SCF Done:  E(RB3LYP) =  -1626.17466386     A.U. after    7 cycles
 Optimization completed.
    -- Stationary point found.

                         Standard orientation:
 ---------------------------------------------------------------------
 Center     Atomic      Atomic             Coordinates (Angstroms)
 Number     Number       Type             X           Y           Z
 ---------------------------------------------------------------------
      1          6           0       -6.069153    5.691706   -0.336350
      2          6           0       -4.817102    5.282537   -0.533532
      3          6           0       -4.144493    4.216894    0.278468
      4          8           0       -3.578969    3.266499   -0.625152
      5          6           0       -2.852391    2.231095   -0.109576
      6          6           0       -2.293553    1.352871   -1.052557
      7          6           0       -1.540586    0.266781   -0.634325
      8          6           0       -1.321109    0.021550    0.730222
      9          6           0       -0.499162   -1.176700    1.195468
     10          6           0        0.932585   -1.224845    0.666457
     11          6           0        1.850984   -0.261388    0.954845
     12          8           0        1.412637    0.784244    1.709723
     13          6           0        3.266499   -0.183099    0.535556
     14          6           0        4.133944   -1.286919    0.579961
     15          6           0        5.471234   -1.138939    0.235486
     16          6           0        5.971563    0.102535   -0.163226
     17          6           0        5.117404    1.219339   -0.191718
     18          6           0        3.778972    1.071810    0.158706
     19          8           0        5.559602    2.462778   -0.569763
     20          6           0        6.982711    2.593152   -0.569001
     21          6           0        7.620582    1.384820   -1.234209
     22          8           0        7.290683    0.194227   -0.513317
     23          6           0        1.104385   -2.427847   -0.149306
     24          8           0        2.060880   -2.835453   -0.786972
     25          6           0       -0.219637   -3.207670   -0.041931
     26          8           0       -0.458207   -4.302035   -0.529530
     27          7           0       -1.057285   -2.458008    0.733566
     28          6           0       -2.363479   -2.958892    1.162545
     29          6           0       -3.524055   -2.640501    0.233540
     30          6           0       -4.545709   -1.773474    0.633272
     31          6           0       -5.622980   -1.503525   -0.213080
     32          6           0       -5.687735   -2.100718   -1.471997
     33          6           0       -4.672134   -2.970342   -1.878092
     34          6           0       -3.598530   -3.242914   -1.031095
     35          6           0       -1.880908    0.899638    1.655231
     36          6           0       -2.644519    2.001134    1.253751
     37          1           0       -6.705832    5.242970    0.423449
     38          1           0       -6.506949    6.493773   -0.923846
     39          1           0       -4.200365    5.738872   -1.306562
     40          1           0       -4.861225    3.729041    0.954098
     41          1           0       -3.342246    4.653127    0.895141
     42          1           0       -2.471292    1.543067   -2.106308
     43          1           0       -1.125539   -0.408199   -1.378061
     44          1           0       -0.493307   -1.169206    2.295855
     45          1           0        2.179844    1.324550    1.962561
     46          1           0        3.759645   -2.259247    0.869296
     47          1           0        6.151535   -1.984265    0.256574
     48          1           0        3.139228    1.947211    0.085494
     49          1           0        7.346275    2.689696    0.463350
     50          1           0        7.206973    3.513097   -1.114663
     51          1           0        8.711105    1.454362   -1.227861
     52          1           0        7.270862    1.295807   -2.271285
     53          1           0       -2.561732   -2.556411    2.161987
     54          1           0       -2.252556   -4.045250    1.249128
     55          1           0       -4.494987   -1.297993    1.610088
     56          1           0       -6.408079   -0.825166    0.110931
     57          1           0       -6.524838   -1.891656   -2.133086
     58          1           0       -4.719283   -3.443143   -2.855801
     59          1           0       -2.809928   -3.923414   -1.339826
     60          1           0       -1.715839    0.734740    2.717858
     61          1           0       -3.065249    2.659074    2.005531
 ---------------------------------------------------------------------

 The electronic state is 1-A.
 Alpha  occ. eigenvalues --  -19.20489 -19.19668 -19.19531 -19.17611 -19.12564
 Alpha  occ. eigenvalues --  -19.10603 -14.36287 -10.28242 -10.26925 -10.26521
 Alpha  occ. eigenvalues --  -10.26452 -10.26366 -10.26226 -10.26225 -10.24940
 Alpha  occ. eigenvalues --  -10.24575 -10.24066 -10.22153 -10.21625 -10.20965
 Alpha  occ. eigenvalues --  -10.20114 -10.20035 -10.19964 -10.19441 -10.19258
 Alpha  occ. eigenvalues --  -10.19005 -10.18799 -10.18681 -10.18637 -10.18612
 Alpha  occ. eigenvalues --  -10.18174 -10.17987 -10.17933 -10.17896 -10.17769
 Alpha  occ. eigenvalues --  -10.17292  -1.10141  -1.08758  -1.06551  -1.06256
 Alpha  occ. eigenvalues --   -1.03525  -1.01004  -0.94505  -0.87323  -0.85159
 Alpha  occ. eigenvalues --   -0.84348  -0.81437  -0.80036  -0.79340  -0.77147
 Alpha  occ. eigenvalues --   -0.75979  -0.75404  -0.74479  -0.73230  -0.73119
 Alpha  occ. eigenvalues --   -0.70659  -0.70179  -0.68560  -0.66709  -0.64936
 Alpha  occ. eigenvalues --   -0.63108  -0.61322  -0.60012  -0.59346  -0.58873
 Alpha  occ. eigenvalues --   -0.57946  -0.56919  -0.56629  -0.55805  -0.54303
 Alpha  occ. eigenvalues --   -0.53542  -0.52873  -0.52454  -0.50644  -0.50357
 Alpha  occ. eigenvalues --   -0.49310  -0.48771  -0.48351  -0.47469  -0.46925
 Alpha  occ. eigenvalues --   -0.46051  -0.45604  -0.45195  -0.45068  -0.44893
 Alpha  occ. eigenvalues --   -0.44698  -0.44153  -0.43789  -0.43462  -0.42668
 Alpha  occ. eigenvalues --   -0.42024  -0.41706  -0.41518  -0.41191  -0.40916
 Alpha  occ. eigenvalues --   -0.40820  -0.40523  -0.40224  -0.39722  -0.39342
 Alpha  occ. eigenvalues --   -0.38280  -0.37793  -0.37459  -0.37339  -0.36695
 Alpha  occ. eigenvalues --   -0.36085  -0.34970  -0.34884  -0.34828  -0.34686
 Alpha  occ. eigenvalues --   -0.33456  -0.33275  -0.32777  -0.32458  -0.31817
 Alpha  occ. eigenvalues --   -0.31564  -0.27396  -0.27135  -0.25851  -0.25017
 Alpha  occ. eigenvalues --   -0.24265  -0.24154  -0.23802  -0.23284  -0.22201
 Alpha  occ. eigenvalues --   -0.21670  -0.21039
 Alpha virt. eigenvalues --   -0.06977  -0.01564  -0.00431  -0.00065   0.00423
 Alpha virt. eigenvalues --    0.00593   0.01218   0.01291   0.04158   0.06844
 Alpha virt. eigenvalues --    0.07549   0.09329   0.09486   0.10307   0.10641

 Mulliken charges:
               1
     1  C   -0.333466
     2  C   -0.052776
     3  C   -0.079576
     4  O   -0.520182
     5  C    0.381948
     6  C   -0.171818
     7  C   -0.181833
     8  C    0.226776
     9  C   -0.115348
    10  C    0.004434
    11  C    0.253091
    12  O   -0.597998
    13  C    0.083715
    14  C   -0.123060
    15  C   -0.200076
    16  C    0.342607
    17  C    0.340313
    18  C   -0.278141
    19  O   -0.523243
    20  C   -0.063743
    21  C   -0.064309
    22  O   -0.515229
    23  C    0.311055
    24  O   -0.481682
    25  C    0.573638
    26  O   -0.524376
    27  N   -0.441550
    28  C   -0.245381
    29  C    0.172031
    30  C   -0.174987
    31  C   -0.127079
    32  C   -0.127508
    33  C   -0.132266
    34  C   -0.188849
    35  C   -0.202936
    36  C   -0.199532
    37  H    0.142956
    38  H    0.149974
    39  H    0.146584
    40  H    0.145111
    41  H    0.147412
    42  H    0.141208
    43  H    0.140690
    44  H    0.149413
    45  H    0.415174
    46  H    0.164829
    47  H    0.155352
    48  H    0.157331
    49  H    0.161334
    50  H    0.166047
    51  H    0.166313
    52  H    0.168717
    53  H    0.147876
    54  H    0.186002
    55  H    0.119906
    56  H    0.123733
    57  H    0.125499
    58  H    0.130009
    59  H    0.172220
    60  H    0.123248
    61  H    0.130400
 Sum of Mulliken charges =  -0.00000

 Dipole moment (field-independent basis, Debye):
    X=              2.8219    Y=              8.0261    Z=              3.4851  Tot=              9.1938
 Quadrupole moment (field-independent basis, Debye-Ang):
   XX=           -157.3382   YY=           -214.9700   ZZ=           -195.2733
   XY=             10.0780   XZ=             -4.7872   YZ=             -6.2640

 Normal termination of Gaussian 16 at Fri Nov  4 22:11:19 2022.
