 Gaussian 16, Revision B.01,
 Gaussian 16:  ES64L-G16RevB.01 20-Dec-2017

 -------------------------------------------------------------------
 #p b3lyp/6-31g(d) 6D 10F nosymm GFInput td=(50-50,nstate=2) SCF=XQC
 -------------------------------------------------------------------

 ------------------------------
 Gaussian input prepared by ASE
 ------------------------------
 Symbolic Z-matrix:
 Charge =  0 Multiplicity = 1

                          Input orientation:
 ---------------------------------------------------------------------
 Center     Atomic      Atomic             Coordinates (Angstroms)
 Number     Number       Type             X           Y           Z
 ---------------------------------------------------------------------
      1          6           0       -5.209273    5.436238    2.525480
      2          6           0       -4.049136    5.070861    1.982788
      3          6           0       -3.354668    3.775777    2.279116
      4          8           0       -3.033788    3.153824    1.034203
      5          6           0       -2.331722    1.982286    1.054174
      6          6           0       -2.017153    1.441590   -0.203396
      7          6           0       -1.309674    0.253074   -0.294886
      8          6           0       -0.894768   -0.432004    0.857859
      9          6           0       -0.122229   -1.744203    0.762094
     10          6           0        1.193781   -1.666398   -0.008707
     11          6           0        2.231793   -0.882467    0.394847
     12          8           0        2.020445   -0.126368    1.507943
     13          6           0        3.561371   -0.720538   -0.230946
     14          6           0        4.318874   -1.807616   -0.697101
     15          6           0        5.590206   -1.601602   -1.216890
     16          6           0        6.131428   -0.316105   -1.288535
     17          6           0        5.390762    0.777578   -0.805912
     18          6           0        4.119319    0.570084   -0.280233
     19          8           0        5.878423    2.060190   -0.847014
     20          6           0        7.288584    2.133799   -1.066706
     21          6           0        7.695506    1.187825   -2.184290
     22          8           0        7.378802   -0.160789   -1.827965
     23          6           0        1.118860   -2.542006   -1.179132
     24          8           0        1.917157   -2.751745   -2.077116
     25          6           0       -0.236307   -3.267769   -1.081778
     26          8           0       -0.650962   -4.133789   -1.837009
     27          7           0       -0.863873   -2.784117    0.030555
     28          6           0       -2.123480   -3.352130    0.512015
     29          6           0       -3.385295   -2.707679   -0.039224
     30          6           0       -4.243904   -1.984027    0.794092
     31          6           0       -5.414913   -1.415220    0.289220
     32          6           0       -5.738386   -1.565664   -1.059274
     33          6           0       -4.886998   -2.289481   -1.898221
     34          6           0       -3.719729   -2.860849   -1.392901
     35          6           0       -1.213217    0.114469    2.098831
     36          6           0       -1.927007    1.312431    2.212731
     37          1           0       -5.752558    4.786200    3.208349
     38          1           0       -5.660880    6.400894    2.311898
     39          1           0       -3.526892    5.733089    1.293661
     40          1           0       -3.993892    3.119068    2.885999
     41          1           0       -2.426019    3.958512    2.843390
     42          1           0       -2.345587    1.971692   -1.091811
     43          1           0       -1.085197   -0.155786   -1.276440
     44          1           0        0.063181   -2.096877    1.787855
     45          1           0        2.865101    0.274759    1.772741
     46          1           0        3.908507   -2.807537   -0.665571
     47          1           0        6.183928   -2.430440   -1.588846
     48          1           0        3.559737    1.442955    0.045228
     49          1           0        7.822546    1.875075   -0.141939
     50          1           0        7.505038    3.173194   -1.325828
     51          1           0        8.774243    1.213671   -2.356847
     52          1           0        7.175071    1.454727   -3.113626
     53          1           0       -2.118545   -3.291696    1.605863
     54          1           0       -2.100683   -4.410302    0.229655
     55          1           0       -3.991329   -1.855875    1.844144
     56          1           0       -6.070865   -0.853210    0.949073
     57          1           0       -6.648949   -1.123214   -1.454999
     58          1           0       -5.135961   -2.414933   -2.948915
     59          1           0       -3.058047   -3.429995   -2.039847
     60          1           0       -0.893451   -0.394200    3.005815
     61          1           0       -2.157330    1.702765    3.197445
 ---------------------------------------------------------------------

 SCF Done:  E(RB3LYP) =  -1626.17465415     A.U. after   15 cycles

 Excitation energies and oscillator strengths:

 Excited state symmetry could not be determined.
 Excited State   1:      Triplet-?Sym    2.3510 eV  527.37 nm  f=0.0000  <S**2>=2.000
     117 ->128        -0.11251
     121 ->128         0.14324
     126 ->128         0.49166
     127 ->128         0.43356
 This state for optimization and/or second-order correction.
 Total Energy, E(TD-HF/TD-DFT) =  -1626.08825758
 Copying the excited state density for this state as the 1-particle RhoCI density.

 Excited state symmetry could not be determined.
 Excited State   2:      Triplet-?Sym    2.4740 eV  501.16 nm  f=0.0000  <S**2>=2.000
     119 ->128        -0.18384
     121 ->128         0.21572
     122 ->128         0.14460
     124 ->128        -0.10847
     125 ->128         0.52574
     126 ->128        -0.19509
     127 ->128         0.20564

 Excited state symmetry could not be determined.
 Excited State   3:      Singlet-?Sym    2.7704 eV  447.54 nm  f=0.0035  <S**2>=0.000
     125 ->128        -0.23414
     126 ->128         0.52616
     127 ->128         0.36501

 Excited state symmetry could not be determined.
 Excited State   4:      Singlet-?Sym    3.3066 eV  374.96 nm  f=0.0475  <S**2>=0.000
     126 ->128        -0.39560
     127 ->128         0.58048

 Alpha  occ. eigenvalues --  -19.20489 -19.19668 -19.19531 -19.17611 -19.12564
 Alpha  occ. eigenvalues --  -19.10603 -14.36287 -10.28242 -10.26925 -10.26521
 Alpha  occ. eigenvalues --  -10.26452 -10.26366 -10.26226 -10.26225 -10.24940
 Alpha  occ. eigenvalues --  -10.24575 -10.24066 -10.22153 -10.21625 -10.20965
 Alpha  occ. eigenvalues --  -10.20114 -10.20035 -10.19964 -10.19442 -10.19258
 Alpha  occ. eigenvalues --  -10.19005 -10.18799 -10.18681 -10.18637 -10.18612
 Alpha  occ. eigenvalues --  -10.18174 -10.17987 -10.17933 -10.17896 -10.17769
 Alpha  occ. eigenvalues --  -10.17291  -1.10141  -1.08758  -1.06551  -1.06256
 Alpha  occ. eigenvalues --   -1.03525  -1.01004  -0.94505  -0.87322  -0.85159
 Alpha  occ. eigenvalues --   -0.84348  -0.81437  -0.80036  -0.79340  -0.77147
 Alpha  occ. eigenvalues --   -0.75979  -0.75404  -0.74479  -0.73230  -0.73119
 Alpha  occ. eigenvalues --   -0.70659  -0.70179  -0.68560  -0.66709  -0.64936
 Alpha  occ. eigenvalues --   -0.63108  -0.61322  -0.60012  -0.59346  -0.58873
 Alpha  occ. eigenvalues --   -0.57946  -0.56919  -0.56629  -0.55805  -0.54303
 Alpha  occ. eigenvalues --   -0.53542  -0.52873  -0.52454  -0.50644  -0.50357
 Alpha  occ. eigenvalues --   -0.49310  -0.48771  -0.48351  -0.47469  -0.46925
 Alpha  occ. eigenvalues --   -0.46051  -0.45604  -0.45195  -0.45068  -0.44893
 Alpha  occ. eigenvalues --   -0.44698  -0.44153  -0.43789  -0.43462  -0.42668
 Alpha  occ. eigenvalues --   -0.42024  -0.41706  -0.41518  -0.41191  -0.40916
 Alpha  occ. eigenvalues --   -0.40819  -0.40523  -0.40224  -0.39722  -0.39342
 Alpha  occ. eigenvalues --   -0.38280  -0.37793  -0.37459  -0.37339  -0.36695
 Alpha  occ. eigenvalues --   -0.36085  -0.34970  -0.34884  -0.34828  -0.34686
 Alpha  occ. eigenvalues --   -0.33456  -0.33275  -0.32777  -0.32458  -0.31817
 Alpha  occ. eigenvalues --   -0.31564  -0.27396  -0.27135  -0.25851  -0.25017
 Alpha  occ. eigenvalues --   -0.24265  -0.24154  -0.23802  -0.23284  -0.22201
 Alpha  occ. eigenvalues --   -0.21671  -0.21039
 Alpha virt. eigenvalues --   -0.06977  -0.01564  -0.00431  -0.00065   0.00423
 Alpha virt. eigenvalues --    0.00593   0.01218   0.01291   0.04158   0.06844
 Alpha virt. eigenvalues --    0.07549   0.09329   0.09486   0.10307   0.10641

 Mulliken charges:
               1
     1  C   -0.333464
     2  C   -0.052782
     3  C   -0.079572
     4  O   -0.520186
     5  C    0.381946
     6  C   -0.171821
     7  C   -0.181810
     8  C    0.226752
     9  C   -0.115343
    10  C    0.004483
    11  C    0.253053
    12  O   -0.597990
    13  C    0.083719
    14  C   -0.123066
    15  C   -0.200069
    16  C    0.342619
    17  C    0.340290
    18  C   -0.278136
    19  O   -0.523239
    20  C   -0.063739
    21  C   -0.064307
    22  O   -0.515234
    23  C    0.311036
    24  O   -0.481677
    25  C    0.573657
    26  O   -0.524377
    27  N   -0.441567
    28  C   -0.245391
    29  C    0.172009
    30  C   -0.174966
    31  C   -0.127078
    32  C   -0.127519
    33  C   -0.132262
    34  C   -0.188827
    35  C   -0.202938
    36  C   -0.199528
    37  H    0.142955
    38  H    0.149974
    39  H    0.146584
    40  H    0.145110
    41  H    0.147412
    42  H    0.141208
    43  H    0.140688
    44  H    0.149415
    45  H    0.415173
    46  H    0.164829
    47  H    0.155351
    48  H    0.157332
    49  H    0.161334
    50  H    0.166046
    51  H    0.166312
    52  H    0.168715
    53  H    0.147876
    54  H    0.186004
    55  H    0.119902
    56  H    0.123731
    57  H    0.125498
    58  H    0.130007
    59  H    0.172215
    60  H    0.123248
    61  H    0.130400
 Sum of Mulliken charges =  -0.00000

 Dipole moment (field-independent basis, Debye):
    X=              4.0796    Y=              6.3439    Z=              5.2572  Tot=              9.1938
 Quadrupole moment (field-independent basis, Debye-Ang):
   XX=           -156.4212   YY=           -212.9917   ZZ=           -199.9117
   XY=              7.8333   XZ=             -8.3728   YZ=            -14.2982

 Normal termination of Gaussian 16 at Sat Nov  5 09:34:48 2022.
