 Gaussian 16, Revision B.01,
 Gaussian 16:  ES64L-G16RevB.01 20-Dec-2017

 -----------------------------
 #p b3lyp/6-31g(d) opt SCF=XQC
 -----------------------------

 ------------------------------
 Gaussian input prepared by ASE
 ------------------------------
 Symbolic Z-matrix:
 Charge =  0 Multiplicity = 1

 SCF Done:  E(RB3LYP) =  -1529.33480774     A.U. after   15 cycles
 SCF Done:  E(RB3LYP) =  -1529.33666454     A.U. after   14 cycles
 SCF Done:  E(RB3LYP) =  -1529.34079349     A.U. after   15 cycles
 SCF Done:  E(RB3LYP) =  -1529.34284893     A.U. after   14 cycles
 SCF Done:  E(RB3LYP) =  -1529.34322268     A.U. after   12 cycles
 SCF Done:  E(RB3LYP) =  -1529.34360609     A.U. after   12 cycles
 SCF Done:  E(RB3LYP) =  -1529.34409660     A.U. after   12 cycles
 SCF Done:  E(RB3LYP) =  -1529.34400273     A.U. after   13 cycles
 SCF Done:  E(RB3LYP) =  -1529.34485031     A.U. after   11 cycles
 SCF Done:  E(RB3LYP) =  -1529.34535687     A.U. after   12 cycles
 SCF Done:  E(RB3LYP) =  -1529.34562339     A.U. after   10 cycles
 SCF Done:  E(RB3LYP) =  -1529.34583778     A.U. after   12 cycles
 SCF Done:  E(RB3LYP) =  -1529.34586529     A.U. after   11 cycles
 SCF Done:  E(RB3LYP) =  -1529.34588039     A.U. after   10 cycles
 SCF Done:  E(RB3LYP) =  -1529.34590749     A.U. after   11 cycles
 SCF Done:  E(RB3LYP) =  -1529.34590284     A.U. after   11 cycles
 SCF Done:  E(RB3LYP) =  -1529.34591500     A.U. after   10 cycles
 SCF Done:  E(RB3LYP) =  -1529.34591535     A.U. after    8 cycles
 SCF Done:  E(RB3LYP) =  -1529.34591543     A.U. after    7 cycles
 SCF Done:  E(RB3LYP) =  -1529.34591545     A.U. after    6 cycles
 Optimization completed.
    -- Stationary point found.

                         Standard orientation:
 ---------------------------------------------------------------------
 Center     Atomic      Atomic             Coordinates (Angstroms)
 Number     Number       Type             X           Y           Z
 ---------------------------------------------------------------------
      1          6           0        7.137535   -0.942294   -0.315679
      2          8           0        6.184203    0.096454   -0.155390
      3          6           0        4.859154   -0.229943   -0.223494
      4          6           0        4.368519   -1.513601   -0.468816
      5          6           0        2.986546   -1.738850   -0.498147
      6          6           0        2.091108   -0.702621   -0.288058
      7          6           0        2.561744    0.606853   -0.041076
      8          6           0        1.686064    1.738747    0.213536
      9          6           0        0.343274    1.841303    0.201814
     10          8           0       -0.547427    0.809307   -0.093473
     11          6           0       -1.822575    1.317966    0.010996
     12          6           0       -1.824008    2.671989    0.363384
     13          6           0       -3.021248    3.375722    0.489262
     14          6           0       -4.206687    2.698895    0.244895
     15          6           0       -4.172441    1.340844   -0.111023
     16          6           0       -2.990288    0.583517   -0.216790
     17          6           0       -3.081475   -0.876174   -0.635750
     18          6           0       -1.984775   -1.807421   -0.139863
     19          6           0       -1.376905   -2.704531   -1.026764
     20          6           0       -0.431111   -3.630055   -0.592877
     21          6           0       -0.069574   -3.667550    0.756752
     22          8           0        0.878406   -4.579736    1.129813
     23          6           0       -0.670569   -2.783670    1.660077
     24          6           0       -1.620336   -1.869048    1.210440
     25          6           0       -4.453739   -1.424392   -0.176186
     26          6           0       -5.617441   -0.545726   -0.562365
     27          8           0       -6.694170   -0.924881   -0.937612
     28          8           0       -5.411594    0.809067   -0.417886
     29          6           0       -0.421162    3.085915    0.506235
     30          8           0        0.041618    4.180263    0.799642
     31          6           0        3.955869    0.834132   -0.012731
     32          8           0        4.427429    2.085905    0.291017
     33          6           0        5.047366    2.802164   -0.783765
     34          1           0        7.067991   -1.406949   -1.308230
     35          1           0        7.021583   -1.716501    0.453945
     36          1           0        8.114751   -0.468707   -0.206512
     37          1           0        5.049794   -2.341497   -0.628988
     38          1           0        2.615733   -2.744150   -0.673642
     39          1           0        1.026085   -0.892049   -0.309488
     40          1           0        2.174844    2.674584    0.469013
     41          1           0       -3.010510    4.426739    0.760792
     42          1           0       -5.172796    3.187840    0.302881
     43          1           0       -3.062240   -0.907786   -1.735266
     44          1           0       -1.646383   -2.681051   -2.080304
     45          1           0        0.036377   -4.323641   -1.284710
     46          1           0        1.062337   -4.476603    2.076572
     47          1           0       -0.390059   -2.804596    2.711528
     48          1           0       -2.069264   -1.183418    1.925048
     49          1           0       -4.454676   -1.506395    0.919717
     50          1           0       -4.636611   -2.422733   -0.577987
     51          1           0        4.342058    2.944246   -1.612635
     52          1           0        5.324878    3.775233   -0.373260
     53          1           0        5.941318    2.283389   -1.141418
 ---------------------------------------------------------------------

 The electronic state is 1-A.
 Alpha  occ. eigenvalues --  -19.21603 -19.21363 -19.19098 -19.18714 -19.16664
 Alpha  occ. eigenvalues --  -19.14931 -19.12895 -10.33148 -10.27900 -10.27159
 Alpha  occ. eigenvalues --  -10.27084 -10.26167 -10.25394 -10.25046 -10.24940
 Alpha  occ. eigenvalues --  -10.24743 -10.23205 -10.23121 -10.22406 -10.21846
 Alpha  occ. eigenvalues --  -10.21512 -10.20619 -10.20592 -10.20525 -10.20479
 Alpha  occ. eigenvalues --  -10.20469 -10.20359 -10.20284 -10.19927 -10.19741
 Alpha  occ. eigenvalues --  -10.19715 -10.19201 -10.18612  -1.12218  -1.10808
 Alpha  occ. eigenvalues --   -1.07688  -1.07082  -1.04801  -1.04059  -1.02418
 Alpha  occ. eigenvalues --   -0.88310  -0.86793  -0.85766  -0.83142  -0.80398
 Alpha  occ. eigenvalues --   -0.78530  -0.76392  -0.76108  -0.76041  -0.75099
 Alpha  occ. eigenvalues --   -0.74614  -0.71181  -0.69749  -0.68146  -0.67437
 Alpha  occ. eigenvalues --   -0.64754  -0.63607  -0.62791  -0.60439  -0.60056
 Alpha  occ. eigenvalues --   -0.59581  -0.57087  -0.55635  -0.55264  -0.53346
 Alpha  occ. eigenvalues --   -0.52269  -0.51957  -0.51152  -0.50524  -0.50094
 Alpha  occ. eigenvalues --   -0.49495  -0.48222  -0.47936  -0.47719  -0.46742
 Alpha  occ. eigenvalues --   -0.46223  -0.46049  -0.45632  -0.45327  -0.45157
 Alpha  occ. eigenvalues --   -0.44146  -0.44056  -0.43400  -0.43221  -0.43058
 Alpha  occ. eigenvalues --   -0.42582  -0.41629  -0.41314  -0.41105  -0.40471
 Alpha  occ. eigenvalues --   -0.39827  -0.39449  -0.38657  -0.38513  -0.37763
 Alpha  occ. eigenvalues --   -0.37449  -0.37229  -0.36511  -0.36358  -0.35605
 Alpha  occ. eigenvalues --   -0.35283  -0.34683  -0.34028  -0.33765  -0.33059
 Alpha  occ. eigenvalues --   -0.32714  -0.29171  -0.28362  -0.27783  -0.26448
 Alpha  occ. eigenvalues --   -0.26073  -0.24763  -0.24424  -0.22864  -0.22092
 Alpha  occ. eigenvalues --   -0.21610
 Alpha virt. eigenvalues --   -0.08218  -0.03062  -0.01719  -0.00995  -0.00283
 Alpha virt. eigenvalues --    0.00492   0.00775   0.03900   0.05729   0.07962
 Alpha virt. eigenvalues --    0.08358   0.08796   0.09329   0.09936   0.10689

 Mulliken charges:
               1
     1  C   -0.216617
     2  O   -0.508981
     3  C    0.355753
     4  C   -0.203559
     5  C   -0.148815
     6  C   -0.208430
     7  C    0.129285
     8  C   -0.281795
     9  C    0.335290
    10  O   -0.571452
    11  C    0.252322
    12  C    0.079089
    13  C   -0.181292
    14  C   -0.191129
    15  C    0.308285
    16  C    0.062857
    17  C   -0.253077
    18  C    0.196512
    19  C   -0.203455
    20  C   -0.165733
    21  C    0.357388
    22  O   -0.645315
    23  C   -0.191288
    24  C   -0.184491
    25  C   -0.380598
    26  C    0.603074
    27  O   -0.429548
    28  O   -0.501088
    29  C    0.332969
    30  O   -0.493239
    31  C    0.242665
    32  O   -0.519273
    33  C   -0.214109
    34  H    0.153299
    35  H    0.155285
    36  H    0.173175
    37  H    0.136951
    38  H    0.143772
    39  H    0.178529
    40  H    0.193384
    41  H    0.166358
    42  H    0.158896
    43  H    0.170137
    44  H    0.133921
    45  H    0.145055
    46  H    0.411153
    47  H    0.127582
    48  H    0.135950
    49  H    0.187924
    50  H    0.190257
    51  H    0.145767
    52  H    0.165848
    53  H    0.164553
 Sum of Mulliken charges =  -0.00000

 Dipole moment (field-independent basis, Debye):
    X=              4.7115    Y=             -3.9222    Z=              0.3043  Tot=              6.1379
 Quadrupole moment (field-independent basis, Debye-Ang):
   XX=           -187.6880   YY=           -191.2581   ZZ=           -178.6112
   XY=            -13.6052   XZ=            -13.6791   YZ=             -9.8836

 Normal termination of Gaussian 16 at Fri Nov  4 22:34:02 2022.
