 Gaussian 16, Revision B.01,
 Gaussian 16:  ES64L-G16RevB.01 20-Dec-2017

 -------------------------------------------------------------------
 #p b3lyp/6-31g(d) 6D 10F nosymm GFInput td=(50-50,nstate=2) SCF=XQC
 -------------------------------------------------------------------

 ------------------------------
 Gaussian input prepared by ASE
 ------------------------------
 Symbolic Z-matrix:
 Charge =  0 Multiplicity = 1

                          Input orientation:
 ---------------------------------------------------------------------
 Center     Atomic      Atomic             Coordinates (Angstroms)
 Number     Number       Type             X           Y           Z
 ---------------------------------------------------------------------
      1          6           0        4.488427   -3.600653   -3.576037
      2          8           0        4.401372   -2.341954   -2.926706
      3          6           0        3.213490   -1.998406   -2.345468
      4          6           0        2.061278   -2.786218   -2.366518
      5          6           0        0.900836   -2.343123   -1.719612
      6          6           0        0.875290   -1.127319   -1.055622
      7          6           0        2.027162   -0.309210   -1.022275
      8          6           0        2.085424    0.965196   -0.325623
      9          6           0        1.137267    1.661591    0.329948
     10          8           0       -0.197110    1.281180    0.472366
     11          6           0       -0.830532    2.255045    1.211296
     12          6           0        0.036137    3.292979    1.570649
     13          6           0       -0.426011    4.389711    2.297331
     14          6           0       -1.768478    4.426712    2.643001
     15          6           0       -2.614313    3.371599    2.264250
     16          6           0       -2.184184    2.230625    1.560415
     17          6           0       -3.202992    1.165048    1.184757
     18          6           0       -2.690552   -0.260478    1.039305
     19          6           0       -3.073320   -1.030488   -0.065901
     20          6           0       -2.694692   -2.364827   -0.190650
     21          6           0       -1.909145   -2.955937    0.802887
     22          8           0       -1.545918   -4.262169    0.624701
     23          6           0       -1.521841   -2.205001    1.918469
     24          6           0       -1.915546   -0.873429    2.031065
     25          6           0       -4.335294    1.188136    2.239369
     26          6           0       -4.882177    2.567422    2.511175
     27          8           0       -6.035908    2.844523    2.701004
     28          8           0       -3.943644    3.573411    2.587674
     29          6           0        1.358639    2.966086    1.019425
     30          8           0        2.407538    3.592875    1.088685
     31          6           0        3.197340   -0.755794   -1.675949
     32          8           0        4.341472   -0.003380   -1.595943
     33          6           0        4.759873    0.635548   -2.808056
     34          1           0        3.792235   -3.669317   -4.422501
     35          1           0        4.292310   -4.426470   -2.879815
     36          1           0        5.513058   -3.675132   -3.944462
     37          1           0        2.059356   -3.744421   -2.873514
     38          1           0        0.015080   -2.971049   -1.728259
     39          1           0       -0.027052   -0.799535   -0.556672
     40          1           0        3.053398    1.457832   -0.308276
     41          1           0        0.254731    5.190609    2.568689
     42          1           0       -2.201157    5.258017    3.188451
     43          1           0       -3.643017    1.452514    0.218296
     44          1           0       -3.680163   -0.579692   -0.847975
     45          1           0       -2.994906   -2.957226   -1.049239
     46          1           0       -0.977132   -4.536307    1.361011
     47          1           0       -0.906252   -2.658016    2.693389
     48          1           0       -1.596746   -0.302802    2.899996
     49          1           0       -3.944149    0.797748    3.189280
     50          1           0       -5.167559    0.547616    1.941645
     51          1           0        3.982007    1.317177   -3.175451
     52          1           0        5.652402    1.209472   -2.550386
     53          1           0        5.003666   -0.100321   -3.579584
 ---------------------------------------------------------------------

 SCF Done:  E(RB3LYP) =  -1529.34591957     A.U. after   15 cycles

 Excitation energies and oscillator strengths:

 Excited state symmetry could not be determined.
 Excited State   1:      Triplet-?Sym    2.0598 eV  601.93 nm  f=0.0000  <S**2>=2.000
     107 ->117         0.10850
     116 ->117         0.67082
     116 ->118         0.12766
 This state for optimization and/or second-order correction.
 Total Energy, E(TD-HF/TD-DFT) =  -1529.27022354
 Copying the excited state density for this state as the 1-particle RhoCI density.

 Excited state symmetry could not be determined.
 Excited State   2:      Triplet-?Sym    2.7972 eV  443.25 nm  f=0.0000  <S**2>=2.000
     112 ->117         0.65721
     114 ->117        -0.17688
     115 ->117        -0.10813

 Excited state symmetry could not be determined.
 Excited State   3:      Singlet-?Sym    3.1892 eV  388.76 nm  f=0.0004  <S**2>=0.000
     112 ->117         0.62103
     114 ->117        -0.27644
     115 ->117        -0.14783

 Excited state symmetry could not be determined.
 Excited State   4:      Singlet-?Sym    3.2736 eV  378.74 nm  f=0.0311  <S**2>=0.000
     112 ->117         0.12377
     115 ->117         0.67074
     116 ->117         0.14345

 Alpha  occ. eigenvalues --  -19.21603 -19.21363 -19.19097 -19.18714 -19.16664
 Alpha  occ. eigenvalues --  -19.14931 -19.12895 -10.33148 -10.27900 -10.27159
 Alpha  occ. eigenvalues --  -10.27084 -10.26167 -10.25394 -10.25046 -10.24940
 Alpha  occ. eigenvalues --  -10.24743 -10.23205 -10.23121 -10.22406 -10.21845
 Alpha  occ. eigenvalues --  -10.21512 -10.20619 -10.20592 -10.20525 -10.20479
 Alpha  occ. eigenvalues --  -10.20469 -10.20360 -10.20284 -10.19927 -10.19741
 Alpha  occ. eigenvalues --  -10.19715 -10.19201 -10.18612  -1.12218  -1.10808
 Alpha  occ. eigenvalues --   -1.07688  -1.07081  -1.04801  -1.04059  -1.02418
 Alpha  occ. eigenvalues --   -0.88310  -0.86793  -0.85766  -0.83142  -0.80398
 Alpha  occ. eigenvalues --   -0.78530  -0.76392  -0.76108  -0.76041  -0.75099
 Alpha  occ. eigenvalues --   -0.74614  -0.71181  -0.69749  -0.68146  -0.67437
 Alpha  occ. eigenvalues --   -0.64754  -0.63607  -0.62791  -0.60439  -0.60056
 Alpha  occ. eigenvalues --   -0.59581  -0.57087  -0.55635  -0.55264  -0.53346
 Alpha  occ. eigenvalues --   -0.52269  -0.51957  -0.51152  -0.50524  -0.50094
 Alpha  occ. eigenvalues --   -0.49495  -0.48222  -0.47936  -0.47719  -0.46742
 Alpha  occ. eigenvalues --   -0.46223  -0.46049  -0.45632  -0.45327  -0.45157
 Alpha  occ. eigenvalues --   -0.44146  -0.44056  -0.43400  -0.43221  -0.43058
 Alpha  occ. eigenvalues --   -0.42582  -0.41629  -0.41314  -0.41105  -0.40471
 Alpha  occ. eigenvalues --   -0.39827  -0.39449  -0.38657  -0.38513  -0.37763
 Alpha  occ. eigenvalues --   -0.37449  -0.37229  -0.36511  -0.36358  -0.35605
 Alpha  occ. eigenvalues --   -0.35283  -0.34683  -0.34028  -0.33765  -0.33059
 Alpha  occ. eigenvalues --   -0.32714  -0.29171  -0.28362  -0.27783  -0.26448
 Alpha  occ. eigenvalues --   -0.26073  -0.24763  -0.24424  -0.22864  -0.22092
 Alpha  occ. eigenvalues --   -0.21610
 Alpha virt. eigenvalues --   -0.08218  -0.03062  -0.01719  -0.00995  -0.00283
 Alpha virt. eigenvalues --    0.00492   0.00775   0.03900   0.05729   0.07962
 Alpha virt. eigenvalues --    0.08358   0.08796   0.09329   0.09936   0.10689

 Mulliken charges:
               1
     1  C   -0.216615
     2  O   -0.508972
     3  C    0.355746
     4  C   -0.203560
     5  C   -0.148812
     6  C   -0.208433
     7  C    0.129324
     8  C   -0.281823
     9  C    0.335298
    10  O   -0.571455
    11  C    0.252299
    12  C    0.079108
    13  C   -0.181297
    14  C   -0.191131
    15  C    0.308299
    16  C    0.062836
    17  C   -0.253065
    18  C    0.196509
    19  C   -0.203450
    20  C   -0.165734
    21  C    0.357396
    22  O   -0.645319
    23  C   -0.191290
    24  C   -0.184496
    25  C   -0.380584
    26  C    0.603071
    27  O   -0.429549
    28  O   -0.501086
    29  C    0.332969
    30  O   -0.493240
    31  C    0.242634
    32  O   -0.519266
    33  C   -0.214107
    34  H    0.153298
    35  H    0.155285
    36  H    0.173174
    37  H    0.136951
    38  H    0.143771
    39  H    0.178531
    40  H    0.193390
    41  H    0.166358
    42  H    0.158896
    43  H    0.170135
    44  H    0.133920
    45  H    0.145055
    46  H    0.411153
    47  H    0.127582
    48  H    0.135950
    49  H    0.187923
    50  H    0.190254
    51  H    0.145766
    52  H    0.165848
    53  H    0.164554
 Sum of Mulliken charges =  -0.00000

 Dipole moment (field-independent basis, Debye):
    X=              1.5174    Y=             -5.5219    Z=             -2.2091  Tot=              6.1379
 Quadrupole moment (field-independent basis, Debye-Ang):
   XX=           -211.0434   YY=           -181.4085   ZZ=           -170.3759
   XY=             -2.6776   XZ=             -3.8554   YZ=             -2.3915

 Normal termination of Gaussian 16 at Sat Nov  5 09:44:14 2022.
