 Gaussian 16, Revision B.01,
 Gaussian 16:  ES64L-G16RevB.01 20-Dec-2017

 -------------------------------------------------------------------
 #p b3lyp/6-31g(d) 6D 10F nosymm GFInput td=(50-50,nstate=2) SCF=XQC
 -------------------------------------------------------------------

 ------------------------------
 Gaussian input prepared by ASE
 ------------------------------
 Symbolic Z-matrix:
 Charge =  0 Multiplicity = 1

                          Input orientation:
 ---------------------------------------------------------------------
 Center     Atomic      Atomic             Coordinates (Angstroms)
 Number     Number       Type             X           Y           Z
 ---------------------------------------------------------------------
      1          6           0       -0.422476   -4.318455   -0.371664
      2          6           0       -1.644607   -3.884380   -1.186200
      3          6           0       -2.778471   -3.284956   -0.341503
      4          7           0       -2.412066   -2.053909    0.358183
      5          6           0       -2.537995   -0.821513   -0.221541
      6          8           0       -2.984470   -0.660556   -1.348978
      7          6           0       -2.078503    0.360775    0.668342
      8          6           0       -3.076465    0.682812    1.829067
      9          6           0       -4.556006    0.879991    1.542523
     10          6           0       -5.158485    2.125088    1.767937
     11          6           0       -6.527889    2.307707    1.566842
     12          6           0       -7.321844    1.243394    1.140304
     13          6           0       -6.737226   -0.006238    0.925115
     14          6           0       -5.370008   -0.186867    1.130810
     15          7           0       -1.687239    1.506884   -0.150781
     16          6           0       -2.713057    2.356782   -0.771897
     17          6           0       -2.861287    3.746192   -0.169405
     18          6           0       -3.912408    4.556839   -0.621472
     19          6           0       -4.095584    5.842186   -0.114945
     20          6           0       -3.228214    6.342040    0.860077
     21          6           0       -2.178284    5.544937    1.314610
     22          6           0       -1.995632    4.258065    0.800481
     23          6           0       -0.414288    1.621097   -0.681232
     24          8           0       -0.141113    2.504974   -1.484907
     25          6           0        0.660132    0.624316   -0.229333
     26          6           0        2.001289    0.882913   -0.938646
     27          6           0        3.059383   -0.107823   -0.507347
     28          6           0        3.892092    0.162616    0.590499
     29          6           0        4.838815   -0.761778    1.022527
     30          6           0        4.960191   -1.976202    0.342975
     31         16           0        6.155420   -3.184207    0.909962
     32          8           0        5.907532   -4.428695    0.171080
     33          8           0        6.187726   -3.167344    2.377211
     34          7           0        7.647217   -2.500585    0.453954
     35          6           0        8.152235   -2.820646   -0.863227
     36          6           0        7.782892   -1.900485   -2.000591
     37          6           0        9.178205   -1.873732   -1.432571
     38          6           0        4.147413   -2.274050   -0.750195
     39          6           0        3.204136   -1.335485   -1.168162
     40          1           0        0.343444   -4.763173   -1.015771
     41          1           0        0.041732   -3.469327    0.144464
     42          1           0       -0.690866   -5.066020    0.385786
     43          1           0       -2.053719   -4.748230   -1.727187
     44          1           0       -1.355392   -3.148268   -1.945898
     45          1           0       -3.116708   -4.007659    0.411036
     46          1           0       -3.628466   -3.040722   -0.983543
     47          1           0       -1.946780   -2.129583    1.251843
     48          1           0       -1.175416    0.036661    1.190977
     49          1           0       -2.976074   -0.146290    2.542591
     50          1           0       -2.683708    1.569637    2.337431
     51          1           0       -4.549431    2.961813    2.097328
     52          1           0       -6.970209    3.284170    1.745022
     53          1           0       -8.388051    1.382980    0.983077
     54          1           0       -7.347605   -0.845763    0.602806
     55          1           0       -4.935530   -1.170834    0.980754
     56          1           0       -2.452845    2.457787   -1.829504
     57          1           0       -3.663422    1.823797   -0.726334
     58          1           0       -4.595939    4.172832   -1.376126
     59          1           0       -4.917219    6.453759   -0.479258
     60          1           0       -3.369229    7.343497    1.257909
     61          1           0       -1.492618    5.924817    2.068009
     62          1           0       -1.170447    3.648126    1.154388
     63          1           0        0.801904    0.690250    0.858404
     64          1           0        0.329951   -0.402982   -0.431149
     65          1           0        1.843252    0.829720   -2.020208
     66          1           0        2.323112    1.907187   -0.727356
     67          1           0        3.796016    1.112071    1.112089
     68          1           0        5.472598   -0.551623    1.877831
     69          1           0        8.299857   -2.710317    1.209449
     70          1           0        8.257305   -3.879196   -1.094508
     71          1           0        7.623218   -2.349314   -2.976445
     72          1           0        7.133545   -1.062336   -1.770614
     73          1           0        9.990985   -2.303873   -2.010487
     74          1           0        9.454552   -1.017621   -0.824467
     75          1           0        4.255878   -3.227979   -1.254657
     76          1           0        2.571262   -1.559696   -2.023705
 ---------------------------------------------------------------------

 SCF Done:  E(RB3LYP) =  -2066.85296998     A.U. after   15 cycles

 Excitation energies and oscillator strengths:

 Excited state symmetry could not be determined.
 Excited State   1:      Triplet-?Sym    3.6442 eV  340.22 nm  f=0.0000  <S**2>=2.000
     136 ->147        -0.28583
     138 ->148        -0.38136
     140 ->147         0.35298
     141 ->147        -0.11336
     142 ->147         0.24218
     143 ->147         0.21271
 This state for optimization and/or second-order correction.
 Total Energy, E(TD-HF/TD-DFT) =  -2066.71904824
 Copying the excited state density for this state as the 1-particle RhoCI density.

 Excited state symmetry could not be determined.
 Excited State   2:      Triplet-?Sym    3.7192 eV  333.37 nm  f=0.0000  <S**2>=2.000
     141 ->149         0.19681
     141 ->150        -0.29381
     141 ->152        -0.15123
     141 ->153        -0.10462
     142 ->149        -0.24719
     142 ->150        -0.19401
     143 ->149         0.22717
     144 ->149        -0.11153
     144 ->150        -0.11477
     144 ->151        -0.10800
     144 ->152        -0.10553
     145 ->149        -0.27529
     146 ->150        -0.15923

 Excited state symmetry could not be determined.
 Excited State   3:      Singlet-?Sym    4.9814 eV  248.89 nm  f=0.0000  <S**2>=0.000
     145 ->147         0.37803
     146 ->147         0.58973

 Excited state symmetry could not be determined.
 Excited State   4:      Singlet-?Sym    5.0634 eV  244.86 nm  f=0.0047  <S**2>=0.000
     145 ->147         0.58205
     146 ->147        -0.38669

 Alpha  occ. eigenvalues --  -89.10745 -19.14060 -19.13866 -19.12448 -19.11330
 Alpha  occ. eigenvalues --  -14.37463 -14.36620 -14.36511 -10.29596 -10.28651
 Alpha  occ. eigenvalues --  -10.25213 -10.23465 -10.23102 -10.22682 -10.21581
 Alpha  occ. eigenvalues --  -10.21375 -10.21254 -10.21233 -10.21126 -10.20845
 Alpha  occ. eigenvalues --  -10.20650 -10.20590 -10.20094 -10.19974 -10.19721
 Alpha  occ. eigenvalues --  -10.19663 -10.19329 -10.19068 -10.19017 -10.18992
 Alpha  occ. eigenvalues --  -10.18961 -10.18926 -10.18782 -10.18611 -10.18436
 Alpha  occ. eigenvalues --  -10.18422 -10.18237 -10.18117 -10.18079  -8.13310
 Alpha  occ. eigenvalues --   -6.09795  -6.09727  -6.09616  -1.10581  -1.04539
 Alpha  occ. eigenvalues --   -1.03312  -0.99673  -0.93541  -0.93319  -0.93280
 Alpha  occ. eigenvalues --   -0.87861  -0.85651  -0.84688  -0.84329  -0.81192
 Alpha  occ. eigenvalues --   -0.80232  -0.78413  -0.77075  -0.76437  -0.75495
 Alpha  occ. eigenvalues --   -0.74345  -0.73800  -0.73547  -0.70169  -0.69884
 Alpha  occ. eigenvalues --   -0.67494  -0.65844  -0.63899  -0.62707  -0.61859
 Alpha  occ. eigenvalues --   -0.61365  -0.60571  -0.60554  -0.59750  -0.58769
 Alpha  occ. eigenvalues --   -0.58669  -0.58271  -0.57948  -0.55208  -0.54227
 Alpha  occ. eigenvalues --   -0.52987  -0.52219  -0.51546  -0.50840  -0.50035
 Alpha  occ. eigenvalues --   -0.49704  -0.49390  -0.48750  -0.48331  -0.47311
 Alpha  occ. eigenvalues --   -0.46932  -0.46189  -0.45904  -0.45593  -0.45156
 Alpha  occ. eigenvalues --   -0.45109  -0.44831  -0.44484  -0.43896  -0.43784
 Alpha  occ. eigenvalues --   -0.43654  -0.42644  -0.42381  -0.42068  -0.41927
 Alpha  occ. eigenvalues --   -0.41302  -0.41266  -0.41087  -0.40795  -0.40431
 Alpha  occ. eigenvalues --   -0.40213  -0.39257  -0.38764  -0.37888  -0.37872
 Alpha  occ. eigenvalues --   -0.37633  -0.36973  -0.36185  -0.35899  -0.35719
 Alpha  occ. eigenvalues --   -0.35574  -0.35289  -0.34979  -0.34877  -0.34483
 Alpha  occ. eigenvalues --   -0.34288  -0.34064  -0.33665  -0.33473  -0.33315
 Alpha  occ. eigenvalues --   -0.33271  -0.31586  -0.31058  -0.30233  -0.28930
 Alpha  occ. eigenvalues --   -0.27623  -0.26954  -0.26893  -0.26452  -0.25846
 Alpha  occ. eigenvalues --   -0.25075  -0.24913  -0.24733  -0.24199  -0.23678
 Alpha  occ. eigenvalues --   -0.23263
 Alpha virt. eigenvalues --   -0.03664  -0.01943  -0.00912  -0.00356   0.00382
 Alpha virt. eigenvalues --    0.01106   0.01255   0.02236   0.04382   0.05895
 Alpha virt. eigenvalues --    0.07921   0.08511   0.08771   0.08843   0.09113

 Mulliken charges:
               1
     1  C   -0.453085
     2  C   -0.251417
     3  C   -0.133955
     4  N   -0.601411
     5  C    0.626480
     6  O   -0.509671
     7  C   -0.099144
     8  C   -0.361061
     9  C    0.160603
    10  C   -0.186843
    11  C   -0.129002
    12  C   -0.129266
    13  C   -0.130915
    14  C   -0.177385
    15  N   -0.437363
    16  C   -0.217688
    17  C    0.158862
    18  C   -0.172108
    19  C   -0.133254
    20  C   -0.131067
    21  C   -0.134214
    22  C   -0.165916
    23  C    0.622357
    24  O   -0.510685
    25  C   -0.389168
    26  C   -0.346395
    27  C    0.168582
    28  C   -0.182145
    29  C   -0.130384
    30  C   -0.144511
    31  S    1.211326
    32  O   -0.537542
    33  O   -0.549844
    34  N   -0.698443
    35  C    0.004450
    36  C   -0.302129
    37  C   -0.326182
    38  C   -0.142651
    39  C   -0.181094
    40  H    0.157798
    41  H    0.140422
    42  H    0.143237
    43  H    0.141690
    44  H    0.160257
    45  H    0.142509
    46  H    0.182445
    47  H    0.327497
    48  H    0.148733
    49  H    0.148763
    50  H    0.169232
    51  H    0.148057
    52  H    0.133434
    53  H    0.130067
    54  H    0.130090
    55  H    0.133845
    56  H    0.195536
    57  H    0.189525
    58  H    0.127120
    59  H    0.127031
    60  H    0.125348
    61  H    0.124810
    62  H    0.117525
    63  H    0.165668
    64  H    0.167216
    65  H    0.171961
    66  H    0.169480
    67  H    0.138389
    68  H    0.172121
    69  H    0.353701
    70  H    0.175159
    71  H    0.161407
    72  H    0.174473
    73  H    0.161672
    74  H    0.166886
    75  H    0.179732
    76  H    0.140436
 Sum of Mulliken charges =  -0.00000

 Dipole moment (field-independent basis, Debye):
    X=             -0.6497    Y=             -0.4475    Z=              1.4143  Tot=              1.6194
 Quadrupole moment (field-independent basis, Debye-Ang):
   XX=           -211.4955   YY=           -245.9892   ZZ=           -242.3260
   XY=             14.3653   XZ=            -17.6722   YZ=             17.6722

 Normal termination of Gaussian 16 at Sat Nov  5 12:25:00 2022.
