 Gaussian 16, Revision B.01,
 Gaussian 16:  ES64L-G16RevB.01 20-Dec-2017

 -----------------------------
 #p b3lyp/6-31g(d) opt SCF=XQC
 -----------------------------

 ------------------------------
 Gaussian input prepared by ASE
 ------------------------------
 Symbolic Z-matrix:
 Charge =  0 Multiplicity = 1

 SCF Done:  E(RB3LYP) =  -2066.83148420     A.U. after   15 cycles
 SCF Done:  E(RB3LYP) =  -2066.84194585     A.U. after   15 cycles
 SCF Done:  E(RB3LYP) =  -2066.84413119     A.U. after   13 cycles
 SCF Done:  E(RB3LYP) =  -2066.84594254     A.U. after   14 cycles
 SCF Done:  E(RB3LYP) =  -2066.84985811     A.U. after   13 cycles
 SCF Done:  E(RB3LYP) =  -2066.85061443     A.U. after   12 cycles
 SCF Done:  E(RB3LYP) =  -2066.85188065     A.U. after   12 cycles
 SCF Done:  E(RB3LYP) =  -2066.85243315     A.U. after   12 cycles
 SCF Done:  E(RB3LYP) =  -2066.85259028     A.U. after   12 cycles
 SCF Done:  E(RB3LYP) =  -2066.85271710     A.U. after   11 cycles
 SCF Done:  E(RB3LYP) =  -2066.85295384     A.U. after    9 cycles
 SCF Done:  E(RB3LYP) =  -2066.85296035     A.U. after   10 cycles
 SCF Done:  E(RB3LYP) =  -2066.85296240     A.U. after    9 cycles
 SCF Done:  E(RB3LYP) =  -2066.85296404     A.U. after    9 cycles
 SCF Done:  E(RB3LYP) =  -2066.85296472     A.U. after    9 cycles
 SCF Done:  E(RB3LYP) =  -2066.85296499     A.U. after    7 cycles
 SCF Done:  E(RB3LYP) =  -2066.85296534     A.U. after    9 cycles
 SCF Done:  E(RB3LYP) =  -2066.85296542     A.U. after    7 cycles
 SCF Done:  E(RB3LYP) =  -2066.85296546     A.U. after    7 cycles
 SCF Done:  E(RB3LYP) =  -2066.85296547     A.U. after    6 cycles
 Optimization completed.
    -- Stationary point found.

                         Standard orientation:
 ---------------------------------------------------------------------
 Center     Atomic      Atomic             Coordinates (Angstroms)
 Number     Number       Type             X           Y           Z
 ---------------------------------------------------------------------
      1          6           0       -1.111935    4.172905   -0.530374
      2          6           0        0.131550    4.255207   -1.420580
      3          6           0        1.458126    4.191595   -0.649464
      4          7           0        1.667987    2.935876    0.070548
      5          6           0        2.252880    1.848165   -0.517264
      6          8           0        2.660160    1.855553   -1.670707
      7          6           0        2.369020    0.603671    0.398472
      8          6           0        3.476706    0.745585    1.493830
      9          6           0        4.888343    1.162156    1.114646
     10          6           0        5.959020    0.277171    1.300411
     11          6           0        7.269328    0.664209    1.013445
     12          6           0        7.532828    1.948934    0.538987
     13          6           0        6.477156    2.845598    0.362309
     14          6           0        5.169918    2.457750    0.653727
     15          7           0        2.433733   -0.622205   -0.395667
     16          6           0        3.679544   -0.994720   -1.080942
     17          6           0        4.417257   -2.187416   -0.490447
     18          6           0        5.679843   -2.509607   -1.008558
     19          6           0        6.401307   -3.595443   -0.515923
     20          6           0        5.871939   -4.381406    0.511152
     21          6           0        4.616116   -4.071029    1.031634
     22          6           0        3.894066   -2.983775    0.531382
     23          6           0        1.290312   -1.258879   -0.845180
     24          8           0        1.356298   -2.196868   -1.631042
     25          6           0       -0.069581   -0.776320   -0.325575
     26          6           0       -1.226453   -1.577015   -0.949464
     27          6           0       -2.570196   -1.093822   -0.451451
     28          6           0       -3.154661   -1.653231    0.696273
     29          6           0       -4.369807   -1.185131    1.187943
     30          6           0       -5.015995   -0.143087    0.518666
     31         16           0       -6.565604    0.485806    1.160951
     32          8           0       -6.891173    1.704471    0.409284
     33          8           0       -6.503328    0.493496    2.627311
     34          7           0       -7.671325   -0.757989    0.798879
     35          6           0       -8.338261   -0.704467   -0.483612
     36          6           0       -7.691508   -1.421688   -1.642927
     37          6           0       -8.918632   -2.001313   -0.988358
     38          6           0       -4.460616    0.433321   -0.623110
     39          6           0       -3.242004   -0.048769   -1.100544
     40          1           0       -2.028551    4.250390   -1.124589
     41          1           0       -1.157861    3.221312    0.013001
     42          1           0       -1.129238    4.983393    0.209510
     43          1           0        0.119840    5.197144   -1.985285
     44          1           0        0.125074    3.446620   -2.161386
     45          1           0        1.514318    5.007766    0.081101
     46          1           0        2.295037    4.299598   -1.343922
     47          1           0        1.264917    2.837203    0.991768
     48          1           0        1.444200    0.543959    0.977184
     49          1           0        3.087642    1.478951    2.213141
     50          1           0        3.510817   -0.211454    2.024924
     51          1           0        5.765299   -0.726812    1.666535
     52          1           0        8.081603   -0.042114    1.162424
     53          1           0        8.551922    2.252635    0.314907
     54          1           0        6.671348    3.852851    0.003173
     55          1           0        4.363345    3.174814    0.532331
     56          1           0        3.422686   -1.219199   -2.120210
     57          1           0        4.329957   -0.119438   -1.094633
     58          1           0        6.101852   -1.898928   -1.804270
     59          1           0        7.378579   -3.827401   -0.931815
     60          1           0        6.432688   -5.228034    0.898261
     61          1           0        4.190403   -4.678843    1.826232
     62          1           0        2.913628   -2.755013    0.937109
     63          1           0       -0.108890   -0.867453    0.768851
     64          1           0       -0.200383    0.290970   -0.546644
     65          1           0       -1.166765   -1.490722   -2.038763
     66          1           0       -1.088726   -2.637901   -0.719462
     67          1           0       -2.648944   -2.467674    1.209775
     68          1           0       -4.811742   -1.614359    2.081166
     69          1           0       -8.307821   -0.814162    1.594125
     70          1           0       -8.879978    0.213049   -0.706696
     71          1           0       -7.785923   -0.971034   -2.626406
     72          1           0       -6.744205   -1.916035   -1.455118
     73          1           0       -9.868146   -1.954614   -1.513583
     74          1           0       -8.785280   -2.880366   -0.365004
     75          1           0       -4.978456    1.247216   -1.118734
     76          1           0       -2.806655    0.392910   -1.993935
 ---------------------------------------------------------------------

 The electronic state is 1-A.
 Alpha  occ. eigenvalues --  -89.10745 -19.14060 -19.13866 -19.12447 -19.11330
 Alpha  occ. eigenvalues --  -14.37463 -14.36619 -14.36511 -10.29596 -10.28651
 Alpha  occ. eigenvalues --  -10.25213 -10.23465 -10.23102 -10.22682 -10.21581
 Alpha  occ. eigenvalues --  -10.21375 -10.21254 -10.21233 -10.21126 -10.20845
 Alpha  occ. eigenvalues --  -10.20650 -10.20590 -10.20094 -10.19974 -10.19721
 Alpha  occ. eigenvalues --  -10.19663 -10.19329 -10.19068 -10.19017 -10.18992
 Alpha  occ. eigenvalues --  -10.18961 -10.18926 -10.18782 -10.18611 -10.18436
 Alpha  occ. eigenvalues --  -10.18423 -10.18237 -10.18117 -10.18079  -8.13310
 Alpha  occ. eigenvalues --   -6.09795  -6.09727  -6.09616  -1.10581  -1.04539
 Alpha  occ. eigenvalues --   -1.03312  -0.99673  -0.93541  -0.93319  -0.93280
 Alpha  occ. eigenvalues --   -0.87862  -0.85651  -0.84688  -0.84329  -0.81192
 Alpha  occ. eigenvalues --   -0.80232  -0.78413  -0.77075  -0.76437  -0.75495
 Alpha  occ. eigenvalues --   -0.74345  -0.73800  -0.73547  -0.70169  -0.69884
 Alpha  occ. eigenvalues --   -0.67494  -0.65844  -0.63899  -0.62707  -0.61859
 Alpha  occ. eigenvalues --   -0.61365  -0.60571  -0.60554  -0.59750  -0.58769
 Alpha  occ. eigenvalues --   -0.58669  -0.58271  -0.57948  -0.55208  -0.54227
 Alpha  occ. eigenvalues --   -0.52987  -0.52219  -0.51546  -0.50840  -0.50035
 Alpha  occ. eigenvalues --   -0.49704  -0.49390  -0.48750  -0.48331  -0.47311
 Alpha  occ. eigenvalues --   -0.46932  -0.46189  -0.45904  -0.45593  -0.45156
 Alpha  occ. eigenvalues --   -0.45109  -0.44831  -0.44484  -0.43896  -0.43784
 Alpha  occ. eigenvalues --   -0.43654  -0.42644  -0.42381  -0.42068  -0.41927
 Alpha  occ. eigenvalues --   -0.41302  -0.41266  -0.41087  -0.40795  -0.40431
 Alpha  occ. eigenvalues --   -0.40213  -0.39257  -0.38764  -0.37888  -0.37872
 Alpha  occ. eigenvalues --   -0.37633  -0.36973  -0.36185  -0.35899  -0.35719
 Alpha  occ. eigenvalues --   -0.35574  -0.35289  -0.34979  -0.34877  -0.34483
 Alpha  occ. eigenvalues --   -0.34288  -0.34064  -0.33665  -0.33473  -0.33315
 Alpha  occ. eigenvalues --   -0.33271  -0.31586  -0.31058  -0.30233  -0.28930
 Alpha  occ. eigenvalues --   -0.27623  -0.26954  -0.26893  -0.26452  -0.25846
 Alpha  occ. eigenvalues --   -0.25075  -0.24913  -0.24733  -0.24199  -0.23678
 Alpha  occ. eigenvalues --   -0.23263
 Alpha virt. eigenvalues --   -0.03664  -0.01943  -0.00912  -0.00355   0.00382
 Alpha virt. eigenvalues --    0.01106   0.01255   0.02236   0.04382   0.05895
 Alpha virt. eigenvalues --    0.07921   0.08511   0.08771   0.08843   0.09113

 Mulliken charges:
               1
     1  C   -0.453090
     2  C   -0.251406
     3  C   -0.133956
     4  N   -0.601432
     5  C    0.626548
     6  O   -0.509683
     7  C   -0.099169
     8  C   -0.361059
     9  C    0.160619
    10  C   -0.186836
    11  C   -0.129005
    12  C   -0.129269
    13  C   -0.130910
    14  C   -0.177404
    15  N   -0.437343
    16  C   -0.217718
    17  C    0.158887
    18  C   -0.172105
    19  C   -0.133264
    20  C   -0.131068
    21  C   -0.134209
    22  C   -0.165934
    23  C    0.622320
    24  O   -0.510681
    25  C   -0.389157
    26  C   -0.346386
    27  C    0.168554
    28  C   -0.182136
    29  C   -0.130388
    30  C   -0.144508
    31  S    1.211329
    32  O   -0.537541
    33  O   -0.549843
    34  N   -0.698453
    35  C    0.004459
    36  C   -0.302135
    37  C   -0.326182
    38  C   -0.142651
    39  C   -0.181082
    40  H    0.157797
    41  H    0.140426
    42  H    0.143237
    43  H    0.141689
    44  H    0.160250
    45  H    0.142510
    46  H    0.182444
    47  H    0.327498
    48  H    0.148736
    49  H    0.148762
    50  H    0.169229
    51  H    0.148057
    52  H    0.133435
    53  H    0.130066
    54  H    0.130089
    55  H    0.133845
    56  H    0.195540
    57  H    0.189531
    58  H    0.127124
    59  H    0.127033
    60  H    0.125348
    61  H    0.124810
    62  H    0.117534
    63  H    0.165664
    64  H    0.167213
    65  H    0.171961
    66  H    0.169479
    67  H    0.138389
    68  H    0.172122
    69  H    0.353700
    70  H    0.175159
    71  H    0.161406
    72  H    0.174474
    73  H    0.161672
    74  H    0.166887
    75  H    0.179733
    76  H    0.140440
 Sum of Mulliken charges =  -0.00000

 Dipole moment (field-independent basis, Debye):
    X=              0.4907    Y=              0.7083    Z=              1.3712  Tot=              1.6195
 Quadrupole moment (field-independent basis, Debye-Ang):
   XX=           -225.0762   YY=           -229.8926   ZZ=           -244.8384
   XY=             22.6683   XZ=             22.1572   YZ=            -10.5447

 Normal termination of Gaussian 16 at Fri Nov  4 21:37:10 2022.
