 Gaussian 16, Revision B.01,
 Gaussian 16:  ES64L-G16RevB.01 20-Dec-2017

 -----------------------------
 #p b3lyp/6-31g(d) opt SCF=XQC
 -----------------------------

 ------------------------------
 Gaussian input prepared by ASE
 ------------------------------
 Symbolic Z-matrix:
 Charge =  0 Multiplicity = 1

 SCF Done:  E(RB3LYP) =  -2093.62148700     A.U. after   15 cycles
 SCF Done:  E(RB3LYP) =  -2093.63263131     A.U. after   13 cycles
 SCF Done:  E(RB3LYP) =  -2093.63389146     A.U. after   13 cycles
 SCF Done:  E(RB3LYP) =  -2093.63710635     A.U. after   12 cycles
 SCF Done:  E(RB3LYP) =  -2093.63726504     A.U. after   12 cycles
 SCF Done:  E(RB3LYP) =  -2093.63755638     A.U. after   11 cycles
 SCF Done:  E(RB3LYP) =  -2093.63769873     A.U. after   11 cycles
 SCF Done:  E(RB3LYP) =  -2093.63773969     A.U. after   11 cycles
 SCF Done:  E(RB3LYP) =  -2093.63781392     A.U. after   10 cycles
 SCF Done:  E(RB3LYP) =  -2093.63785455     A.U. after   10 cycles
 SCF Done:  E(RB3LYP) =  -2093.63809065     A.U. after    9 cycles
 SCF Done:  E(RB3LYP) =  -2093.63797051     A.U. after   11 cycles
 SCF Done:  E(RB3LYP) =  -2093.63810996     A.U. after   11 cycles
 SCF Done:  E(RB3LYP) =  -2093.63811432     A.U. after    9 cycles
 SCF Done:  E(RB3LYP) =  -2093.63811698     A.U. after    9 cycles
 SCF Done:  E(RB3LYP) =  -2093.63811827     A.U. after    9 cycles
 SCF Done:  E(RB3LYP) =  -2093.63811863     A.U. after    7 cycles
 SCF Done:  E(RB3LYP) =  -2093.63811880     A.U. after    7 cycles
 SCF Done:  E(RB3LYP) =  -2093.63811885     A.U. after    6 cycles
 SCF Done:  E(RB3LYP) =  -2093.63811886     A.U. after    6 cycles
 Optimization completed.
    -- Stationary point found.

                         Standard orientation:
 ---------------------------------------------------------------------
 Center     Atomic      Atomic             Coordinates (Angstroms)
 Number     Number       Type             X           Y           Z
 ---------------------------------------------------------------------
      1          6           0       -5.551435    4.317799    1.299761
      2          6           0       -4.222846    4.380473    0.534918
      3          6           0       -3.452334    5.703190    0.809073
      4          6           0       -2.391102    5.528246    1.902512
      5          6           0       -1.261891    4.544222    1.492134
      6          6           0       -0.448236    4.103489    2.746680
      7          6           0        0.985463    3.659654    2.409151
      8          6           0       -1.141889    3.071333    3.651977
      9          6           0       -1.869129    3.447541    0.569534
     10          8           0       -1.087056    2.221962    0.650568
     11          6           0       -1.001451    1.469694   -0.471072
     12          8           0       -1.504623    1.774690   -1.531760
     13          6           0       -0.200908    0.201357   -0.199980
     14          6           0       -0.967494   -0.756711    0.797625
     15          6           0       -2.183716   -1.296494    0.068420
     16          6           0       -3.518879   -1.148672    0.431132
     17          6           0       -4.516990   -1.714028   -0.365932
     18          6           0       -4.215384   -2.430387   -1.536275
     19          6           0       -5.354873   -3.035399   -2.378502
     20          6           0       -6.298249   -1.906189   -2.857201
     21          6           0       -4.833863   -3.781143   -3.621833
     22          6           0       -6.155879   -4.040665   -1.517074
     23          6           0       -2.861103   -2.563503   -1.887048
     24          6           0       -1.860102   -2.008178   -1.094318
     25          6           0       -0.366243   -2.066065   -1.363233
     26          6           0        0.308270   -2.622059   -0.120679
     27          6           0        1.191816   -3.689706   -0.045926
     28          6           0        1.728659   -4.064008    1.193459
     29          6           0        1.405707   -3.381430    2.373647
     30          6           0        1.970631   -3.779703    3.750240
     31          6           0        2.744396   -2.586637    4.359794
     32          6           0        2.933491   -4.979178    3.665345
     33          6           0        0.804563   -4.165651    4.691625
     34          6           0        0.519336   -2.289686    2.273735
     35          6           0       -0.021842   -1.918858    1.049998
     36          6           0        0.106813   -0.577719   -1.509585
     37          6           0        1.555949   -0.518530   -1.977297
     38          8           0        2.078237   -1.381507   -2.653793
     39          8           0        2.162844    0.627481   -1.601178
     40          6           0        3.524519    0.882476   -2.061249
     41          6           0        3.466213    2.154686   -2.912889
     42          6           0        4.856745    2.617447   -3.396009
     43          6           0        5.425366    1.719182   -4.507765
     44          6           0        5.805138    2.738113   -2.185494
     45          6           0        5.848800    1.458567   -1.335105
     46          6           0        4.447113    1.037994   -0.839338
     47          6           0        4.448055   -0.198703    0.101881
     48          6           0        5.024799   -1.477835   -0.528374
     49          6           0        5.147700    0.110987    1.435864
     50          6           0       -3.340341    3.152211    0.870474
     51          1           0       -5.390300    4.417070    2.381262
     52          1           0       -6.064422    3.363685    1.128277
     53          1           0       -6.226814    5.123141    0.987780
     54          1           0       -4.452284    4.341189   -0.538281
     55          1           0       -2.961924    6.048219   -0.111383
     56          1           0       -4.158429    6.494391    1.090847
     57          1           0       -1.940560    6.494903    2.158273
     58          1           0       -2.878566    5.170291    2.819440
     59          1           0       -0.556280    5.110804    0.868237
     60          1           0       -0.350874    5.026533    3.339929
     61          1           0        1.565947    3.508491    3.327628
     62          1           0        1.503471    4.419745    1.811298
     63          1           0        0.995442    2.723396    1.845112
     64          1           0       -1.227559    2.100055    3.155965
     65          1           0       -0.560894    2.928162    4.571029
     66          1           0       -2.146614    3.390628    3.951641
     67          1           0       -1.801947    3.783099   -0.468482
     68          1           0        0.722854    0.508335    0.295665
     69          1           0       -1.225758   -0.220405    1.713865
     70          1           0       -3.787662   -0.601708    1.332342
     71          1           0       -5.552951   -1.592293   -0.061905
     72          1           0       -7.118025   -2.321780   -3.456245
     73          1           0       -6.742401   -1.362284   -2.016970
     74          1           0       -5.758033   -1.180714   -3.475945
     75          1           0       -4.179859   -4.618078   -3.351786
     76          1           0       -5.678759   -4.191665   -4.186324
     77          1           0       -4.279717   -3.116435   -4.294196
     78          1           0       -6.594062   -3.562945   -0.634543
     79          1           0       -6.975323   -4.476909   -2.101717
     80          1           0       -5.513324   -4.857767   -1.169699
     81          1           0       -2.575502   -3.105846   -2.782450
     82          1           0       -0.114874   -2.628067   -2.263966
     83          1           0        1.471221   -4.233057   -0.944949
     84          1           0        2.409270   -4.907587    1.222595
     85          1           0        3.146794   -2.854865    5.344466
     86          1           0        2.104540   -1.707752    4.490554
     87          1           0        3.584011   -2.295504    3.717801
     88          1           0        3.310077   -5.221666    4.665582
     89          1           0        2.436901   -5.874167    3.273891
     90          1           0        3.799630   -4.762824    3.029600
     91          1           0        1.187993   -4.447120    5.680258
     92          1           0        0.242570   -5.016301    4.289608
     93          1           0        0.101616   -3.337424    4.830003
     94          1           0        0.245526   -1.727384    3.163427
     95          1           0       -0.477388   -0.111287   -2.313076
     96          1           0        3.825704    0.025598   -2.666390
     97          1           0        2.799134    1.984841   -3.767290
     98          1           0        3.008129    2.947099   -2.305623
     99          1           0        4.732813    3.620532   -3.827567
    100          1           0        4.741582    1.678683   -5.363818
    101          1           0        6.386334    2.107666   -4.865730
    102          1           0        5.591771    0.688920   -4.174434
    103          1           0        6.816568    2.996385   -2.525952
    104          1           0        5.467209    3.571471   -1.552741
    105          1           0        6.295906    0.642610   -1.917350
    106          1           0        6.510553    1.617586   -0.476046
    107          1           0        4.041861    1.878061   -0.251816
    108          1           0        3.395785   -0.403013    0.339814
    109          1           0        4.496266   -1.758599   -1.444818
    110          1           0        6.091586   -1.372599   -0.760870
    111          1           0        4.923949   -2.315452    0.171627
    112          1           0        5.007541   -0.715568    2.142438
    113          1           0        4.743864    1.018678    1.901136
    114          1           0        6.228225    0.250529    1.310433
    115          1           0       -3.452584    2.880464    1.927556
    116          1           0       -3.664350    2.287617    0.281489
 ---------------------------------------------------------------------

 The electronic state is 1-A.
 Alpha  occ. eigenvalues --  -19.18700 -19.18472 -19.13515 -19.12989 -10.31171
 Alpha  occ. eigenvalues --  -10.31036 -10.23901 -10.23441 -10.20791 -10.20533
 Alpha  occ. eigenvalues --  -10.20305 -10.20093 -10.19948 -10.19675 -10.19038
 Alpha  occ. eigenvalues --  -10.18922 -10.18904 -10.18883 -10.18788 -10.18740
 Alpha  occ. eigenvalues --  -10.18713 -10.18530 -10.18508 -10.18480 -10.18412
 Alpha  occ. eigenvalues --  -10.18372 -10.18217 -10.18174 -10.18150 -10.18090
 Alpha  occ. eigenvalues --  -10.18001 -10.17973 -10.17958 -10.17954 -10.17905
 Alpha  occ. eigenvalues --  -10.17881 -10.17860 -10.17857 -10.17442 -10.17238
 Alpha  occ. eigenvalues --  -10.17230 -10.17155 -10.17142 -10.17036 -10.17016
 Alpha  occ. eigenvalues --  -10.17003 -10.16976 -10.16848 -10.16697 -10.16192
 Alpha  occ. eigenvalues --   -1.09615  -1.09226  -1.01133  -1.00771  -0.89175
 Alpha  occ. eigenvalues --   -0.85049  -0.84188  -0.84032  -0.83422  -0.80640
 Alpha  occ. eigenvalues --   -0.79923  -0.79512  -0.79366  -0.77985  -0.76120
 Alpha  occ. eigenvalues --   -0.75016  -0.74333  -0.73813  -0.73580  -0.73190
 Alpha  occ. eigenvalues --   -0.72429  -0.71175  -0.68265  -0.68092  -0.68082
 Alpha  occ. eigenvalues --   -0.68006  -0.67905  -0.67667  -0.67423  -0.67358
 Alpha  occ. eigenvalues --   -0.65963  -0.65058  -0.62764  -0.61608  -0.61302
 Alpha  occ. eigenvalues --   -0.60386  -0.59873  -0.59426  -0.59222  -0.57096
 Alpha  occ. eigenvalues --   -0.56488  -0.55539  -0.54760  -0.54531  -0.53583
 Alpha  occ. eigenvalues --   -0.53428  -0.53131  -0.52423  -0.50943  -0.50670
 Alpha  occ. eigenvalues --   -0.49257  -0.48547  -0.48376  -0.47583  -0.47160
 Alpha  occ. eigenvalues --   -0.46634  -0.46074  -0.45675  -0.45379  -0.44894
 Alpha  occ. eigenvalues --   -0.44764  -0.44551  -0.44378  -0.44325  -0.43875
 Alpha  occ. eigenvalues --   -0.43760  -0.43503  -0.43478  -0.43310  -0.43243
 Alpha  occ. eigenvalues --   -0.43068  -0.42559  -0.41844  -0.41628  -0.41554
 Alpha  occ. eigenvalues --   -0.41476  -0.41355  -0.41078  -0.40283  -0.39818
 Alpha  occ. eigenvalues --   -0.39585  -0.39426  -0.39183  -0.39056  -0.39026
 Alpha  occ. eigenvalues --   -0.38953  -0.38852  -0.38473  -0.38291  -0.37957
 Alpha  occ. eigenvalues --   -0.37629  -0.37451  -0.37209  -0.37152  -0.36952
 Alpha  occ. eigenvalues --   -0.36812  -0.36676  -0.36261  -0.36123  -0.36086
 Alpha  occ. eigenvalues --   -0.35743  -0.35577  -0.35081  -0.34945  -0.34545
 Alpha  occ. eigenvalues --   -0.34453  -0.34132  -0.34039  -0.33726  -0.33691
 Alpha  occ. eigenvalues --   -0.33441  -0.33338  -0.32597  -0.32520  -0.32447
 Alpha  occ. eigenvalues --   -0.32235  -0.32126  -0.31942  -0.31744  -0.31661
 Alpha  occ. eigenvalues --   -0.31200  -0.30962  -0.30757  -0.30635  -0.30546
 Alpha  occ. eigenvalues --   -0.30428  -0.30235  -0.29572  -0.29152  -0.28110
 Alpha  occ. eigenvalues --   -0.27705  -0.27073  -0.26439  -0.23934  -0.23797
 Alpha  occ. eigenvalues --   -0.23277  -0.21833
 Alpha virt. eigenvalues --   -0.00560  -0.00197   0.00719   0.01358   0.01931
 Alpha virt. eigenvalues --    0.02382   0.06549   0.07080   0.07718   0.08064
 Alpha virt. eigenvalues --    0.08572   0.08749   0.09176   0.09478   0.09909

 Mulliken charges:
               1
     1  C   -0.453750
     2  C   -0.070744
     3  C   -0.280691
     4  C   -0.287403
     5  C   -0.100384
     6  C   -0.062356
     7  C   -0.458928
     8  C   -0.465765
     9  C    0.122904
    10  O   -0.497708
    11  C    0.652870
    12  O   -0.483359
    13  C   -0.205088
    14  C   -0.297748
    15  C    0.146049
    16  C   -0.206750
    17  C   -0.189599
    18  C    0.185991
    19  C    0.013909
    20  C   -0.438071
    21  C   -0.455177
    22  C   -0.437842
    23  C   -0.278823
    24  C    0.160265
    25  C   -0.282936
    26  C    0.142578
    27  C   -0.197319
    28  C   -0.201547
    29  C    0.181521
    30  C    0.019191
    31  C   -0.446582
    32  C   -0.457679
    33  C   -0.437611
    34  C   -0.272329
    35  C    0.152929
    36  C   -0.218863
    37  C    0.659060
    38  O   -0.492025
    39  O   -0.494050
    40  C    0.098096
    41  C   -0.275630
    42  C   -0.080690
    43  C   -0.454711
    44  C   -0.264730
    45  C   -0.285995
    46  C   -0.085143
    47  C   -0.082009
    48  C   -0.468232
    49  C   -0.458782
    50  C   -0.302629
    51  H    0.140217
    52  H    0.143739
    53  H    0.142512
    54  H    0.134877
    55  H    0.134646
    56  H    0.134349
    57  H    0.136076
    58  H    0.138182
    59  H    0.123761
    60  H    0.122007
    61  H    0.134701
    62  H    0.134075
    63  H    0.163566
    64  H    0.162377
    65  H    0.138345
    66  H    0.139090
    67  H    0.164050
    68  H    0.189050
    69  H    0.148401
    70  H    0.124601
    71  H    0.120888
    72  H    0.136567
    73  H    0.141063
    74  H    0.149861
    75  H    0.145634
    76  H    0.140032
    77  H    0.146953
    78  H    0.141493
    79  H    0.136833
    80  H    0.147445
    81  H    0.125800
    82  H    0.150913
    83  H    0.135626
    84  H    0.124229
    85  H    0.137646
    86  H    0.142344
    87  H    0.151977
    88  H    0.139918
    89  H    0.146252
    90  H    0.145101
    91  H    0.136784
    92  H    0.148216
    93  H    0.142126
    94  H    0.120601
    95  H    0.209169
    96  H    0.172907
    97  H    0.141762
    98  H    0.137982
    99  H    0.124711
   100  H    0.145869
   101  H    0.141874
   102  H    0.150415
   103  H    0.129482
   104  H    0.128588
   105  H    0.140873
   106  H    0.139573
   107  H    0.117146
   108  H    0.138687
   109  H    0.170174
   110  H    0.134965
   111  H    0.141764
   112  H    0.147864
   113  H    0.138147
   114  H    0.140828
   115  H    0.139342
   116  H    0.159268
 Sum of Mulliken charges =  -0.00000

 Dipole moment (field-independent basis, Debye):
    X=              0.0006    Y=              1.8297    Z=              1.9565  Tot=              2.6788
 Quadrupole moment (field-independent basis, Debye-Ang):
   XX=           -293.1138   YY=           -296.6152   ZZ=           -303.8920
   XY=              2.1913   XZ=             -0.7242   YZ=              0.6083

 1\1\GINC-NODE05\FOpt\RB3LYP\6-31G(d)\C46H66O4\WYKGROUP\04-Nov-2022\0\\
 #p b3lyp/6-31g(d) opt SCF=XQC\\Gaussian input prepared by ASE\\0,1\C,-
 6.2094748743,-1.857074591,2.9494538473\C,-4.7799687048,-2.4091061776,2
 .8730589364\C,-4.7557151821,-3.9204371598,2.5073809731\C,-4.52707346,-
 4.1399533266,1.0067275028\C,-3.1345276995,-3.6427599352,0.5319154912\C
 ,-3.1056536741,-3.5229559978,-1.0221058332\C,-1.6884010114,-3.63951624
 97,-1.608806657\C,-3.8393249034,-2.3016653668,-1.6019659784\C,-2.73019
 12578,-2.4062780288,1.3864684236\O,-1.81057283,-1.5533511103,0.6468299

 Normal termination of Gaussian 16 at Fri Nov  4 23:39:50 2022.
