 Gaussian 16, Revision B.01,
 Gaussian 16:  ES64L-G16RevB.01 20-Dec-2017

 -------------------------------------------------------------------
 #p b3lyp/6-31g(d) 6D 10F nosymm GFInput td=(50-50,nstate=2) SCF=XQC
 -------------------------------------------------------------------

 ------------------------------
 Gaussian input prepared by ASE
 ------------------------------
 Symbolic Z-matrix:
 Charge =  0 Multiplicity = 1

                          Input orientation:
 ---------------------------------------------------------------------
 Center     Atomic      Atomic             Coordinates (Angstroms)
 Number     Number       Type             X           Y           Z
 ---------------------------------------------------------------------
      1          6           0       -6.209475   -1.857075    2.949454
      2          6           0       -4.779969   -2.409106    2.873059
      3          6           0       -4.755715   -3.920437    2.507381
      4          6           0       -4.527073   -4.139953    1.006728
      5          6           0       -3.134528   -3.642760    0.531915
      6          6           0       -3.105654   -3.522956   -1.022106
      7          6           0       -1.688401   -3.639516   -1.608807
      8          6           0       -3.839325   -2.301665   -1.601966
      9          6           0       -2.730191   -2.406278    1.386468
     10          8           0       -1.810573   -1.553351    0.646830
     11          6           0       -0.870703   -0.893224    1.362503
     12          8           0       -0.734357   -0.999518    2.563076
     13          6           0       -0.033527   -0.005963    0.448750
     14          6           0       -0.898245    1.173891   -0.152061
     15          6           0       -1.236802    2.117658    0.986790
     16          6           0       -2.503728    2.473474    1.438856
     17          6           0       -2.629933    3.360380    2.510600
     18          6           0       -1.509049    3.907379    3.157323
     19          6           0       -1.704442    4.882801    4.333841
     20          6           0       -2.488084    4.175938    5.465422
     21          6           0       -0.366109    5.375973    4.916167
     22          6           0       -2.502481    6.118226    3.853122
     23          6           0       -0.238968    3.530947    2.688248
     24          6           0       -0.105024    2.652277    1.616424
     25          6           0        1.200923    2.155168    1.020885
     26          6           0        1.166202    2.433215   -0.472274
     27          6           0        2.118377    3.101930   -1.228777
     28          6           0        1.925742    3.261579   -2.607828
     29          6           0        0.793271    2.753910   -3.258086
     30          6           0        0.550210    2.926513   -4.769343
     31          6           0        0.423201    1.536955   -5.437680
     32          6           0        1.694625    3.687535   -5.465191
     33          6           0       -0.759307    3.720717   -4.991346
     34          6           0       -0.153887    2.063646   -2.474527
     35          6           0        0.027501    1.908932   -1.106652
     36          6           0        1.191288    0.596121    1.193087
     37          6           0        2.542181    0.005150    0.808254
     38          8           0        3.590675    0.610926    0.902357
     39          8           0        2.437330   -1.280986    0.410775
     40          6           0        3.657884   -2.021855    0.107120
     41          6           0        3.717070   -3.189652    1.097049
     42          6           0        4.909578   -4.134512    0.839569
     43          6           0        6.254660   -3.516056    1.257276
     44          6           0        4.895228   -4.586636   -0.635129
     45          6           0        4.827884   -3.406644   -1.617673
     46          6           0        3.606792   -2.496829   -1.355830
     47          6           0        3.441681   -1.340337   -2.380808
     48          6           0        4.631482   -0.367226   -2.439627
     49          6           0        3.109969   -1.875949   -3.783665
     50          6           0       -3.929928   -1.588777    1.870795
     51          1           0       -6.740329   -2.000890    1.999204
     52          1           0       -6.209623   -0.782452    3.168730
     53          1           0       -6.787259   -2.360048    3.733819
     54          1           0       -4.323972   -2.295915    3.865628
     55          1           0       -3.958451   -4.428120    3.067215
     56          1           0       -5.694485   -4.394729    2.819990
     57          1           0       -4.626661   -5.202689    0.754730
     58          1           0       -5.316138   -3.621357    0.445527
     59          1           0       -2.412202   -4.433457    0.779288
     60          1           0       -3.654325   -4.412921   -1.369029
     61          1           0       -1.730985   -3.705714   -2.702980
     62          1           0       -1.182296   -4.541041   -1.241914
     63          1           0       -1.071090   -2.776503   -1.346216
     64          1           0       -3.323112   -1.370445   -1.350766
     65          1           0       -3.884283   -2.375479   -2.695237
     66          1           0       -4.871396   -2.227209   -1.240709
     67          1           0       -2.183454   -2.750448    2.268066
     68          1           0        0.288487   -0.627409   -0.389909
     69          1           0       -1.785104    0.776593   -0.651518
     70          1           0       -3.393155    2.070024    0.959542
     71          1           0       -3.628105    3.630074    2.844341
     72          1           0       -2.638599    4.859437    6.310276
     73          1           0       -3.474516    3.839348    5.129640
     74          1           0       -1.942563    3.298295    5.830308
     75          1           0        0.229222    5.915883    4.171060
     76          1           0       -0.557128    6.064236    5.747331
     77          1           0        0.239353    4.549340    5.304858
     78          1           0       -3.488611    5.841296    3.465901
     79          1           0       -2.654755    6.820912    4.681765
     80          1           0       -1.966409    6.644451    3.055053
     81          1           0        0.658468    3.923959    3.154723
     82          1           0        2.081437    2.579007    1.506073
     83          1           0        3.013503    3.498131   -0.756218
     84          1           0        2.682040    3.796168   -3.171684
     85          1           0        0.242990    1.645550   -6.514333
     86          1           0       -0.405011    0.955696   -5.019166
     87          1           0        1.341434    0.953045   -5.304398
     88          1           0        1.478033    3.781788   -6.535376
     89          1           0        1.815624    4.699575   -5.062726
     90          1           0        2.652136    3.163465   -5.366705
     91          1           0       -0.952162    3.848623   -6.063765
     92          1           0       -0.695339    4.715483   -4.535925
     93          1           0       -1.624362    3.209810   -4.555575
     94          1           0       -1.045161    1.647696   -2.938558
     95          1           0        1.068898    0.371310    2.260292
     96          1           0        4.495665   -1.339982    0.263067
     97          1           0        3.754717   -2.792636    2.119206
     98          1           0        2.778634   -3.753894    1.010452
     99          1           0        4.758903   -5.024904    1.465891
    100          1           0        6.241228   -3.233204    2.316446
    101          1           0        7.071756   -4.233072    1.113196
    102          1           0        6.502405   -2.616700    0.682801
    103          1           0        5.780148   -5.200977   -0.847516
    104          1           0        4.020821   -5.232933   -0.798736
    105          1           0        5.750743   -2.816293   -1.550481
    106          1           0        4.786807   -3.791600   -2.643005
    107          1           0        2.705313   -3.124947   -1.444872
    108          1           0        2.568407   -0.761902   -2.051517
    109          1           0        4.843733    0.081582   -1.464143
    110          1           0        5.542785   -0.858819   -2.801604
    111          1           0        4.406645    0.453814   -3.130363
    112          1           0        2.848155   -1.050705   -4.456353
    113          1           0        2.259402   -2.568351   -3.759589
    114          1           0        3.959591   -2.403731   -4.233475
    115          1           0       -4.541252   -1.287253    1.011009
    116          1           0       -3.573463   -0.669842    2.348183
 ---------------------------------------------------------------------

 SCF Done:  E(RB3LYP) =  -2093.63809031     A.U. after   15 cycles

 Excitation energies and oscillator strengths:

 Excited state symmetry could not be determined.
 Excited State   1:      Triplet-?Sym    3.6222 eV  342.29 nm  f=0.0000  <S**2>=2.000
     184 ->189        -0.23569
     184 ->191        -0.16432
     184 ->192         0.10748
     185 ->191         0.15753
     185 ->193        -0.11791
     186 ->189         0.14844
     186 ->190        -0.13814
     186 ->192         0.20116
     187 ->188         0.48792
 This state for optimization and/or second-order correction.
 Total Energy, E(TD-HF/TD-DFT) =  -2093.50497575
 Copying the excited state density for this state as the 1-particle RhoCI density.

 Excited state symmetry could not be determined.
 Excited State   2:      Triplet-?Sym    3.7146 eV  333.77 nm  f=0.0000  <S**2>=2.000
     184 ->188        -0.14169
     184 ->189        -0.12180
     184 ->191        -0.17622
     185 ->188        -0.18565
     185 ->189         0.26523
     186 ->188        -0.28498
     186 ->189        -0.17918
     186 ->191         0.17070
     187 ->190         0.16029
     187 ->192        -0.32420
     187 ->193         0.11340

 Excited state symmetry could not be determined.
 Excited State   3:      Singlet-?Sym    5.0557 eV  245.24 nm  f=0.0414  <S**2>=0.000
     184 ->188         0.23047
     185 ->188         0.11050
     185 ->192         0.12373
     186 ->188        -0.20786
     187 ->188        -0.17049
     187 ->189         0.55978

 Excited state symmetry could not be determined.
 Excited State   4:      Singlet-?Sym    5.1671 eV  239.95 nm  f=0.0043  <S**2>=0.000
     184 ->188         0.10246
     187 ->188         0.65405
     187 ->189         0.15025

 Alpha  occ. eigenvalues --  -19.18700 -19.18472 -19.13515 -19.12989 -10.31171
 Alpha  occ. eigenvalues --  -10.31036 -10.23901 -10.23441 -10.20791 -10.20533
 Alpha  occ. eigenvalues --  -10.20305 -10.20093 -10.19947 -10.19675 -10.19039
 Alpha  occ. eigenvalues --  -10.18922 -10.18904 -10.18883 -10.18788 -10.18740
 Alpha  occ. eigenvalues --  -10.18713 -10.18530 -10.18508 -10.18480 -10.18413
 Alpha  occ. eigenvalues --  -10.18372 -10.18216 -10.18174 -10.18150 -10.18090
 Alpha  occ. eigenvalues --  -10.18001 -10.17973 -10.17958 -10.17954 -10.17904
 Alpha  occ. eigenvalues --  -10.17881 -10.17860 -10.17857 -10.17442 -10.17238
 Alpha  occ. eigenvalues --  -10.17230 -10.17155 -10.17142 -10.17036 -10.17016
 Alpha  occ. eigenvalues --  -10.17003 -10.16976 -10.16848 -10.16697 -10.16192
 Alpha  occ. eigenvalues --   -1.09615  -1.09226  -1.01133  -1.00771  -0.89175
 Alpha  occ. eigenvalues --   -0.85049  -0.84188  -0.84032  -0.83422  -0.80640
 Alpha  occ. eigenvalues --   -0.79923  -0.79512  -0.79366  -0.77985  -0.76120
 Alpha  occ. eigenvalues --   -0.75016  -0.74333  -0.73813  -0.73580  -0.73190
 Alpha  occ. eigenvalues --   -0.72429  -0.71175  -0.68264  -0.68092  -0.68082
 Alpha  occ. eigenvalues --   -0.68006  -0.67905  -0.67667  -0.67423  -0.67358
 Alpha  occ. eigenvalues --   -0.65963  -0.65058  -0.62764  -0.61607  -0.61302
 Alpha  occ. eigenvalues --   -0.60386  -0.59873  -0.59427  -0.59222  -0.57096
 Alpha  occ. eigenvalues --   -0.56488  -0.55539  -0.54760  -0.54531  -0.53583
 Alpha  occ. eigenvalues --   -0.53427  -0.53131  -0.52423  -0.50943  -0.50670
 Alpha  occ. eigenvalues --   -0.49257  -0.48547  -0.48376  -0.47583  -0.47160
 Alpha  occ. eigenvalues --   -0.46634  -0.46074  -0.45675  -0.45379  -0.44894
 Alpha  occ. eigenvalues --   -0.44764  -0.44551  -0.44378  -0.44325  -0.43875
 Alpha  occ. eigenvalues --   -0.43760  -0.43503  -0.43478  -0.43310  -0.43243
 Alpha  occ. eigenvalues --   -0.43068  -0.42559  -0.41844  -0.41628  -0.41554
 Alpha  occ. eigenvalues --   -0.41476  -0.41355  -0.41078  -0.40283  -0.39817
 Alpha  occ. eigenvalues --   -0.39585  -0.39426  -0.39183  -0.39056  -0.39026
 Alpha  occ. eigenvalues --   -0.38953  -0.38852  -0.38473  -0.38291  -0.37956
 Alpha  occ. eigenvalues --   -0.37629  -0.37451  -0.37209  -0.37152  -0.36952
 Alpha  occ. eigenvalues --   -0.36812  -0.36676  -0.36261  -0.36123  -0.36086
 Alpha  occ. eigenvalues --   -0.35743  -0.35577  -0.35081  -0.34945  -0.34545
 Alpha  occ. eigenvalues --   -0.34453  -0.34132  -0.34039  -0.33726  -0.33691
 Alpha  occ. eigenvalues --   -0.33441  -0.33338  -0.32597  -0.32520  -0.32447
 Alpha  occ. eigenvalues --   -0.32235  -0.32126  -0.31942  -0.31744  -0.31661
 Alpha  occ. eigenvalues --   -0.31200  -0.30962  -0.30757  -0.30635  -0.30545
 Alpha  occ. eigenvalues --   -0.30428  -0.30235  -0.29572  -0.29152  -0.28110
 Alpha  occ. eigenvalues --   -0.27704  -0.27073  -0.26439  -0.23934  -0.23797
 Alpha  occ. eigenvalues --   -0.23277  -0.21833
 Alpha virt. eigenvalues --   -0.00560  -0.00197   0.00719   0.01358   0.01931
 Alpha virt. eigenvalues --    0.02382   0.06549   0.07080   0.07718   0.08064
 Alpha virt. eigenvalues --    0.08572   0.08749   0.09176   0.09478   0.09909

 Mulliken charges:
               1
     1  C   -0.453765
     2  C   -0.070723
     3  C   -0.280682
     4  C   -0.287423
     5  C   -0.100407
     6  C   -0.062354
     7  C   -0.458929
     8  C   -0.465758
     9  C    0.122913
    10  O   -0.497697
    11  C    0.652827
    12  O   -0.483355
    13  C   -0.205047
    14  C   -0.297667
    15  C    0.145994
    16  C   -0.206753
    17  C   -0.189616
    18  C    0.186022
    19  C    0.013909
    20  C   -0.438074
    21  C   -0.455179
    22  C   -0.437852
    23  C   -0.278810
    24  C    0.160284
    25  C   -0.282981
    26  C    0.142593
    27  C   -0.197311
    28  C   -0.201548
    29  C    0.181524
    30  C    0.019197
    31  C   -0.446592
    32  C   -0.457675
    33  C   -0.437602
    34  C   -0.272341
    35  C    0.152928
    36  C   -0.218883
    37  C    0.659064
    38  O   -0.492025
    39  O   -0.494057
    40  C    0.098080
    41  C   -0.275664
    42  C   -0.080669
    43  C   -0.454713
    44  C   -0.264730
    45  C   -0.286028
    46  C   -0.085037
    47  C   -0.082033
    48  C   -0.468230
    49  C   -0.458797
    50  C   -0.302620
    51  H    0.140217
    52  H    0.143739
    53  H    0.142513
    54  H    0.134873
    55  H    0.134644
    56  H    0.134347
    57  H    0.136079
    58  H    0.138183
    59  H    0.123765
    60  H    0.122008
    61  H    0.134702
    62  H    0.134075
    63  H    0.163566
    64  H    0.162380
    65  H    0.138344
    66  H    0.139087
    67  H    0.164051
    68  H    0.189044
    69  H    0.148389
    70  H    0.124598
    71  H    0.120891
    72  H    0.136567
    73  H    0.141062
    74  H    0.149859
    75  H    0.145632
    76  H    0.140032
    77  H    0.146956
    78  H    0.141494
    79  H    0.136833
    80  H    0.147446
    81  H    0.125799
    82  H    0.150916
    83  H    0.135627
    84  H    0.124229
    85  H    0.137647
    86  H    0.142348
    87  H    0.151975
    88  H    0.139917
    89  H    0.146252
    90  H    0.145098
    91  H    0.136781
    92  H    0.148212
    93  H    0.142123
    94  H    0.120600
    95  H    0.209173
    96  H    0.172906
    97  H    0.141765
    98  H    0.137984
    99  H    0.124709
   100  H    0.145869
   101  H    0.141874
   102  H    0.150415
   103  H    0.129482
   104  H    0.128588
   105  H    0.140873
   106  H    0.139572
   107  H    0.117132
   108  H    0.138690
   109  H    0.170174
   110  H    0.134964
   111  H    0.141768
   112  H    0.147866
   113  H    0.138154
   114  H    0.140828
   115  H    0.139340
   116  H    0.159265
 Sum of Mulliken charges =  -0.00000

 Dipole moment (field-independent basis, Debye):
    X=             -1.6831    Y=             -1.6879    Z=             -1.2221  Tot=              2.6787
 Quadrupole moment (field-independent basis, Debye-Ang):
   XX=           -297.3977   YY=           -295.0158   ZZ=           -302.1245
   XY=             -2.3736   XZ=             -4.1571   YZ=              1.5518

 Normal termination of Gaussian 16 at Sat Nov  5 12:40:06 2022.
