 Gaussian 16, Revision B.01,
 Gaussian 16:  ES64L-G16RevB.01 20-Dec-2017

 -----------------------------
 #p b3lyp/6-31g(d) opt SCF=XQC
 -----------------------------

 ------------------------------
 Gaussian input prepared by ASE
 ------------------------------
 Symbolic Z-matrix:
 Charge =  0 Multiplicity = 1

 SCF Done:  E(RB3LYP) =  -1047.11391979     A.U. after   14 cycles
 SCF Done:  E(RB3LYP) =  -1047.11969248     A.U. after   12 cycles
 SCF Done:  E(RB3LYP) =  -1047.12083030     A.U. after   12 cycles
 SCF Done:  E(RB3LYP) =  -1047.12140960     A.U. after   11 cycles
 SCF Done:  E(RB3LYP) =  -1047.12150168     A.U. after   11 cycles
 SCF Done:  E(RB3LYP) =  -1047.12153988     A.U. after   10 cycles
 SCF Done:  E(RB3LYP) =  -1047.12158008     A.U. after   10 cycles
 SCF Done:  E(RB3LYP) =  -1047.12161152     A.U. after   11 cycles
 SCF Done:  E(RB3LYP) =  -1047.12164990     A.U. after   11 cycles
 SCF Done:  E(RB3LYP) =  -1047.12167919     A.U. after   11 cycles
 SCF Done:  E(RB3LYP) =  -1047.12168533     A.U. after   10 cycles
 SCF Done:  E(RB3LYP) =  -1047.12168935     A.U. after    9 cycles
 SCF Done:  E(RB3LYP) =  -1047.12169050     A.U. after    9 cycles
 SCF Done:  E(RB3LYP) =  -1047.12169133     A.U. after    9 cycles
 SCF Done:  E(RB3LYP) =  -1047.12169184     A.U. after    9 cycles
 SCF Done:  E(RB3LYP) =  -1047.12169195     A.U. after    8 cycles
 SCF Done:  E(RB3LYP) =  -1047.12169199     A.U. after    7 cycles
 SCF Done:  E(RB3LYP) =  -1047.12169200     A.U. after    6 cycles
 Optimization completed.
    -- Stationary point found.

                         Standard orientation:
 ---------------------------------------------------------------------
 Center     Atomic      Atomic             Coordinates (Angstroms)
 Number     Number       Type             X           Y           Z
 ---------------------------------------------------------------------
      1          6           0       -6.864446   -2.460675   -1.817732
      2          6           0       -6.411999   -2.670569   -0.367852
      3          6           0       -6.170514   -1.368329    0.416387
      4          6           0       -5.052419   -0.456125   -0.118492
      5          6           0       -3.648599   -1.075235   -0.074920
      6          6           0       -2.550227   -0.091693   -0.530363
      7          6           0       -1.191285   -0.729794   -0.566472
      8          6           0       -0.046853   -0.379864    0.065774
      9          6           0        1.126082   -1.248218   -0.140744
     10          6           0        2.301858   -1.239498    0.511873
     11          6           0        3.431284   -2.195620    0.223299
     12          6           0        4.726352   -1.497106   -0.169721
     13          6           0        5.907063   -1.708420    0.550997
     14          6           0        7.096452   -1.075921    0.181699
     15          6           0        7.120202   -0.218266   -0.917989
     16          6           0        5.946954    0.003178   -1.643749
     17          6           0        4.761797   -0.628938   -1.270128
     18          6           0        0.084687    0.828366    1.006824
     19          6           0       -0.525040    0.505314    2.389120
     20          8           0        0.073246   -0.634388    2.985937
     21          6           0       -0.388982    2.148906    0.394176
     22          6           0       -1.217961    3.051742    1.073678
     23          6           0       -1.578527    4.273291    0.496659
     24          6           0       -1.111925    4.619746   -0.769463
     25          6           0       -0.279714    3.732083   -1.456326
     26          6           0        0.074577    2.514407   -0.880066
     27          1           0       -6.098168   -1.956307   -2.417595
     28          1           0       -7.774316   -1.848876   -1.862772
     29          1           0       -7.083417   -3.418001   -2.304449
     30          1           0       -7.177322   -3.252703    0.162934
     31          1           0       -5.504691   -3.289308   -0.353892
     32          1           0       -7.108092   -0.794334    0.438390
     33          1           0       -5.946565   -1.623260    1.462201
     34          1           0       -5.048400    0.469038    0.474995
     35          1           0       -5.279611   -0.147452   -1.148465
     36          1           0       -3.611599   -1.972560   -0.707786
     37          1           0       -3.428329   -1.414495    0.947653
     38          1           0       -2.562995    0.795880    0.106641
     39          1           0       -2.800088    0.258718   -1.544893
     40          1           0       -1.142357   -1.621227   -1.196593
     41          1           0        0.989032   -2.009867   -0.911115
     42          1           0        2.489167   -0.525943    1.311281
     43          1           0        3.126202   -2.888446   -0.573044
     44          1           0        3.625286   -2.811714    1.112854
     45          1           0        5.896202   -2.376491    1.409642
     46          1           0        8.002598   -1.253482    0.755311
     47          1           0        8.043960    0.275701   -1.207426
     48          1           0        5.955382    0.671203   -2.501375
     49          1           0        3.849004   -0.445753   -1.832139
     50          1           0        1.155641    0.965638    1.195520
     51          1           0       -1.616886    0.383593    2.306172
     52          1           0       -0.333723    1.328103    3.084711
     53          1           0       -0.034755   -1.374175    2.366323
     54          1           0       -1.598839    2.812613    2.061576
     55          1           0       -2.226350    4.952752    1.044701
     56          1           0       -1.391067    5.569616   -1.217461
     57          1           0        0.095640    3.989473   -2.443585
     58          1           0        0.720582    1.830604   -1.424624
 ---------------------------------------------------------------------

 The electronic state is 1-A.
 Alpha  occ. eigenvalues --  -19.13776 -10.22892 -10.19756 -10.19742 -10.19722
 Alpha  occ. eigenvalues --  -10.19341 -10.19271 -10.18998 -10.18916 -10.18802
 Alpha  occ. eigenvalues --  -10.18798 -10.18755 -10.18651 -10.18608 -10.18608
 Alpha  occ. eigenvalues --  -10.18596 -10.18480 -10.18424 -10.18409 -10.18382
 Alpha  occ. eigenvalues --  -10.18305 -10.18225 -10.17869 -10.17831 -10.17771
 Alpha  occ. eigenvalues --  -10.17241  -1.01158  -0.85656  -0.85137  -0.82831
 Alpha  occ. eigenvalues --   -0.80567  -0.79125  -0.77434  -0.75856  -0.74097
 Alpha  occ. eigenvalues --   -0.73874  -0.73419  -0.71506  -0.70086  -0.67195
 Alpha  occ. eigenvalues --   -0.64575  -0.63324  -0.60481  -0.59959  -0.59820
 Alpha  occ. eigenvalues --   -0.58318  -0.58048  -0.55483  -0.55246  -0.52776
 Alpha  occ. eigenvalues --   -0.51354  -0.50755  -0.50205  -0.47967  -0.46953
 Alpha  occ. eigenvalues --   -0.45653  -0.45518  -0.45343  -0.44958  -0.44447
 Alpha  occ. eigenvalues --   -0.43983  -0.43213  -0.42972  -0.41753  -0.41502
 Alpha  occ. eigenvalues --   -0.41349  -0.40683  -0.40525  -0.39810  -0.38701
 Alpha  occ. eigenvalues --   -0.38615  -0.38337  -0.37087  -0.36685  -0.36568
 Alpha  occ. eigenvalues --   -0.35726  -0.34896  -0.34722  -0.34631  -0.33986
 Alpha  occ. eigenvalues --   -0.33817  -0.33568  -0.33353  -0.32619  -0.31933
 Alpha  occ. eigenvalues --   -0.31649  -0.31313  -0.30905  -0.29989  -0.26311
 Alpha  occ. eigenvalues --   -0.24716  -0.24535  -0.24089  -0.23870  -0.21234
 Alpha virt. eigenvalues --   -0.02321  -0.00009   0.00191   0.00263   0.00808
 Alpha virt. eigenvalues --    0.06808   0.07484   0.09315   0.09484   0.09884
 Alpha virt. eigenvalues --    0.10196   0.11061   0.11294   0.12098   0.12521

 Mulliken charges:
               1
     1  C   -0.443552
     2  C   -0.250812
     3  C   -0.252888
     4  C   -0.255992
     5  C   -0.262255
     6  C   -0.304976
     7  C   -0.184382
     8  C    0.139824
     9  C   -0.191031
    10  C   -0.098032
    11  C   -0.398787
    12  C    0.172769
    13  C   -0.191901
    14  C   -0.125380
    15  C   -0.131126
    16  C   -0.128369
    17  C   -0.172358
    18  C   -0.254605
    19  C   -0.034495
    20  O   -0.626802
    21  C    0.158795
    22  C   -0.196921
    23  C   -0.131221
    24  C   -0.129160
    25  C   -0.132145
    26  C   -0.170960
    27  H    0.144306
    28  H    0.141491
    29  H    0.142261
    30  H    0.131863
    31  H    0.133836
    32  H    0.127553
    33  H    0.127855
    34  H    0.130749
    35  H    0.133097
    36  H    0.134403
    37  H    0.134052
    38  H    0.155024
    39  H    0.146984
    40  H    0.122840
    41  H    0.119704
    42  H    0.149703
    43  H    0.154081
    44  H    0.152839
    45  H    0.123138
    46  H    0.128110
    47  H    0.127432
    48  H    0.127615
    49  H    0.127061
    50  H    0.163153
    51  H    0.127622
    52  H    0.147826
    53  H    0.396734
    54  H    0.128992
    55  H    0.128363
    56  H    0.127474
    57  H    0.128308
    58  H    0.132294
 Sum of Mulliken charges =  -0.00000

 Dipole moment (field-independent basis, Debye):
    X=             -0.9363    Y=             -0.1211    Z=             -1.4978  Tot=              1.7705
 Quadrupole moment (field-independent basis, Debye-Ang):
   XX=           -150.9177   YY=           -152.1160   ZZ=           -161.1433
   XY=             -1.2430   XZ=             -1.2383   YZ=             -1.2532

 1\1\GINC-NODE03\FOpt\RB3LYP\6-31G(d)\C25H32O1\WYKGROUP\04-Nov-2022\0\\
 #p b3lyp/6-31g(d) opt SCF=XQC\\Gaussian input prepared by ASE\\0,1\C,6
 .6761658966,-2.0742122835,0.4609522421\C,6.2177872374,-1.4631425876,-0
 .8684833882\C,5.7817517403,0.0099203986,-0.7729285529\C,4.5652883741,0
 .2965385715,0.1250781955\C,3.2573456491,-0.3540453753,-0.3460211462\C,
 2.0486625395,0.038469624,0.5293196445\C,0.7898591569,-0.6678103413,0.1
 148524599\C,-0.4077870344,-0.1641551335,-0.2644692101\C,-1.4467045961,
 -1.1312242775,-0.661823002\C,-2.6298314315,-0.8950026846,-1.2558310472

 Normal termination of Gaussian 16 at Fri Nov  4 20:50:11 2022.
