 Gaussian 16, Revision B.01,
 Gaussian 16:  ES64L-G16RevB.01 20-Dec-2017

 -------------------------------------------------------------------
 #p b3lyp/6-31g(d) 6D 10F nosymm GFInput td=(50-50,nstate=2) SCF=XQC
 -------------------------------------------------------------------

 ------------------------------
 Gaussian input prepared by ASE
 ------------------------------
 Symbolic Z-matrix:
 Charge =  0 Multiplicity = 1

                          Input orientation:
 ---------------------------------------------------------------------
 Center     Atomic      Atomic             Coordinates (Angstroms)
 Number     Number       Type             X           Y           Z
 ---------------------------------------------------------------------
      1          6           0        6.676166   -2.074212    0.460952
      2          6           0        6.217787   -1.463143   -0.868483
      3          6           0        5.781752    0.009920   -0.772929
      4          6           0        4.565288    0.296539    0.125078
      5          6           0        3.257346   -0.354045   -0.346021
      6          6           0        2.048663    0.038470    0.529320
      7          6           0        0.789859   -0.667810    0.114852
      8          6           0       -0.407787   -0.164155   -0.264469
      9          6           0       -1.446705   -1.131224   -0.661823
     10          6           0       -2.629831   -0.895003   -1.255831
     11          6           0       -3.611610   -1.974795   -1.634258
     12          6           0       -4.978261   -1.800875   -0.984947
     13          6           0       -6.138356   -1.703455   -1.761386
     14          6           0       -7.392045   -1.555820   -1.163433
     15          6           0       -7.502183   -1.501917    0.225961
     16          6           0       -6.350715   -1.595014    1.011918
     17          6           0       -5.101383   -1.740375    0.410419
     18          6           0       -0.726399    1.337425   -0.344736
     19          6           0       -0.115635    1.951574   -1.624056
     20          8           0       -0.570102    1.301645   -2.800537
     21          6           0       -0.419374    2.108448    0.941649
     22          6           0        0.261612    3.333259    0.953433
     23          6           0        0.469039    4.030794    2.147402
     24          6           0       -0.006221    3.520582    3.353480
     25          6           0       -0.692262    2.303355    3.356248
     26          6           0       -0.893977    1.609294    2.165482
     27          1           0        5.865007   -2.109945    1.197260
     28          1           0        7.495892   -1.492406    0.901112
     29          1           0        7.035373   -3.100055    0.319767
     30          1           0        7.040347   -1.530153   -1.593216
     31          1           0        5.402364   -2.068173   -1.287129
     32          1           0        6.632245    0.603423   -0.407658
     33          1           0        5.566538    0.380031   -1.785633
     34          1           0        4.420488    1.385082    0.172792
     35          1           0        4.776029   -0.020662    1.155957
     36          1           0        3.358805   -1.448021   -0.347906
     37          1           0        3.057792   -0.064923   -1.388067
     38          1           0        1.924411    1.123924    0.520848
     39          1           0        2.275806   -0.233297    1.572890
     40          1           0        0.878634   -1.756946    0.113444
     41          1           0       -1.187527   -2.173291   -0.463610
     42          1           0       -2.933064    0.118720   -1.508247
     43          1           0       -3.194609   -2.955236   -1.365758
     44          1           0       -3.744196   -1.982511   -2.725531
     45          1           0       -6.060185   -1.745222   -2.845753
     46          1           0       -8.280836   -1.481633   -1.784889
     47          1           0       -8.476180   -1.386565    0.694072
     48          1           0       -6.426496   -1.552390    2.095565
     49          1           0       -4.207078   -1.802491    1.026019
     50          1           0       -1.810720    1.422631   -0.480304
     51          1           0        0.984464    1.942600   -1.564652
     52          1           0       -0.434832    2.992967   -1.729145
     53          1           0       -0.346666    0.360620   -2.714408
     54          1           0        0.644869    3.758630    0.031281
     55          1           0        1.004280    4.976744    2.127712
     56          1           0        0.153835    4.063225    4.281272
     57          1           0       -1.072532    1.893778    4.288697
     58          1           0       -1.426923    0.662082    2.179934
 ---------------------------------------------------------------------

 SCF Done:  E(RB3LYP) =  -1047.12168729     A.U. after   14 cycles

 Excitation energies and oscillator strengths:

 Excited state symmetry could not be determined.
 Excited State   1:      Triplet-?Sym    2.7324 eV  453.76 nm  f=0.0000  <S**2>=2.000
      93 -> 96        -0.13857
      95 -> 96         0.67004
      95 ->100         0.13467
      95 <- 96         0.12633
 This state for optimization and/or second-order correction.
 Total Energy, E(TD-HF/TD-DFT) =  -1047.02127331
 Copying the excited state density for this state as the 1-particle RhoCI density.

 Excited state symmetry could not be determined.
 Excited State   2:      Triplet-?Sym    3.7200 eV  333.29 nm  f=0.0000  <S**2>=2.000
      91 -> 97         0.32929
      91 -> 99        -0.30116
      93 -> 97         0.15576
      93 -> 99         0.18755
      94 -> 97        -0.34332
      94 -> 99        -0.27133
      95 -> 97         0.17598

 Excited state symmetry could not be determined.
 Excited State   3:      Singlet-?Sym    4.9622 eV  249.86 nm  f=0.5504  <S**2>=0.000
      93 -> 96         0.25091
      95 -> 96         0.61115
      95 -> 99        -0.10871
      95 ->100        -0.15072

 Excited state symmetry could not be determined.
 Excited State   4:      Singlet-?Sym    5.1306 eV  241.65 nm  f=0.0015  <S**2>=0.000
      95 -> 97         0.69192

 Alpha  occ. eigenvalues --  -19.13776 -10.22892 -10.19755 -10.19742 -10.19722
 Alpha  occ. eigenvalues --  -10.19341 -10.19271 -10.18998 -10.18916 -10.18802
 Alpha  occ. eigenvalues --  -10.18798 -10.18755 -10.18651 -10.18608 -10.18608
 Alpha  occ. eigenvalues --  -10.18596 -10.18480 -10.18424 -10.18409 -10.18382
 Alpha  occ. eigenvalues --  -10.18305 -10.18225 -10.17869 -10.17831 -10.17771
 Alpha  occ. eigenvalues --  -10.17241  -1.01159  -0.85656  -0.85137  -0.82831
 Alpha  occ. eigenvalues --   -0.80567  -0.79125  -0.77434  -0.75856  -0.74097
 Alpha  occ. eigenvalues --   -0.73874  -0.73419  -0.71506  -0.70086  -0.67195
 Alpha  occ. eigenvalues --   -0.64575  -0.63324  -0.60481  -0.59959  -0.59820
 Alpha  occ. eigenvalues --   -0.58318  -0.58048  -0.55483  -0.55246  -0.52776
 Alpha  occ. eigenvalues --   -0.51354  -0.50755  -0.50205  -0.47967  -0.46953
 Alpha  occ. eigenvalues --   -0.45653  -0.45518  -0.45343  -0.44958  -0.44447
 Alpha  occ. eigenvalues --   -0.43983  -0.43213  -0.42972  -0.41753  -0.41502
 Alpha  occ. eigenvalues --   -0.41349  -0.40683  -0.40525  -0.39810  -0.38701
 Alpha  occ. eigenvalues --   -0.38615  -0.38337  -0.37087  -0.36685  -0.36568
 Alpha  occ. eigenvalues --   -0.35726  -0.34896  -0.34722  -0.34631  -0.33986
 Alpha  occ. eigenvalues --   -0.33817  -0.33568  -0.33353  -0.32619  -0.31933
 Alpha  occ. eigenvalues --   -0.31649  -0.31313  -0.30905  -0.29989  -0.26311
 Alpha  occ. eigenvalues --   -0.24716  -0.24535  -0.24089  -0.23870  -0.21234
 Alpha virt. eigenvalues --   -0.02321  -0.00009   0.00191   0.00263   0.00808
 Alpha virt. eigenvalues --    0.06808   0.07484   0.09315   0.09484   0.09884
 Alpha virt. eigenvalues --    0.10196   0.11061   0.11294   0.12098   0.12521

 Mulliken charges:
               1
     1  C   -0.443555
     2  C   -0.250807
     3  C   -0.252888
     4  C   -0.255992
     5  C   -0.262253
     6  C   -0.304973
     7  C   -0.184398
     8  C    0.139852
     9  C   -0.191032
    10  C   -0.098034
    11  C   -0.398787
    12  C    0.172766
    13  C   -0.191908
    14  C   -0.125372
    15  C   -0.131129
    16  C   -0.128372
    17  C   -0.172348
    18  C   -0.254621
    19  C   -0.034494
    20  O   -0.626801
    21  C    0.158800
    22  C   -0.196916
    23  C   -0.131238
    24  C   -0.129145
    25  C   -0.132150
    26  C   -0.170965
    27  H    0.144305
    28  H    0.141491
    29  H    0.142262
    30  H    0.131862
    31  H    0.133836
    32  H    0.127554
    33  H    0.127855
    34  H    0.130748
    35  H    0.133096
    36  H    0.134403
    37  H    0.134049
    38  H    0.155025
    39  H    0.146984
    40  H    0.122840
    41  H    0.119704
    42  H    0.149700
    43  H    0.154082
    44  H    0.152838
    45  H    0.123139
    46  H    0.128110
    47  H    0.127431
    48  H    0.127615
    49  H    0.127059
    50  H    0.163153
    51  H    0.127621
    52  H    0.147827
    53  H    0.396734
    54  H    0.128993
    55  H    0.128364
    56  H    0.127474
    57  H    0.128308
    58  H    0.132298
 Sum of Mulliken charges =  -0.00000

 Dipole moment (field-independent basis, Debye):
    X=              0.9836    Y=             -0.8450    Z=              1.2054  Tot=              1.7705
 Quadrupole moment (field-independent basis, Debye-Ang):
   XX=           -152.3449   YY=           -156.0096   ZZ=           -156.9676
   XY=              2.6112   XZ=             -1.1542   YZ=              4.8451

 Normal termination of Gaussian 16 at Sat Nov  5 12:16:54 2022.
