 Gaussian 16, Revision B.01,
 Gaussian 16:  ES64L-G16RevB.01 20-Dec-2017

 -------------------------------------------------------------------
 #p b3lyp/6-31g(d) 6D 10F nosymm GFInput td=(50-50,nstate=2) SCF=XQC
 -------------------------------------------------------------------

 ------------------------------
 Gaussian input prepared by ASE
 ------------------------------
 Symbolic Z-matrix:
 Charge =  0 Multiplicity = 1

                          Input orientation:
 ---------------------------------------------------------------------
 Center     Atomic      Atomic             Coordinates (Angstroms)
 Number     Number       Type             X           Y           Z
 ---------------------------------------------------------------------
      1          6           0        0.855746   -2.863076   -1.924663
      2          6           0        0.187838   -2.486927   -0.598359
      3          6           0       -0.323245   -3.699631    0.166452
      4          8           0       -0.908167   -1.593789   -0.804385
      5          6           0       -0.353846   -0.279853   -0.803471
      6          6           0       -1.467774    0.812668   -0.632346
      7          8           0       -2.773918    0.262958   -0.634436
      8          6           0       -3.268636   -0.085519   -1.934179
      9          6           0       -4.601434   -0.772386   -1.776396
     10          6           0       -5.783998   -0.159592   -2.200267
     11          6           0       -7.000674   -0.826576   -2.039057
     12          6           0       -7.048043   -2.088598   -1.455428
     13          6           0       -5.865372   -2.713561   -1.019856
     14          7           0       -5.898536   -4.007162   -0.486396
     15          6           0       -4.646595   -2.041502   -1.191507
     16          6           0       -1.438167    1.797158    0.579199
     17          6           0       -2.248150    1.386120    1.842087
     18          6           0       -1.833774    0.192112    2.677812
     19          6           0       -0.965202    0.339766    3.769817
     20          6           0       -0.644471   -0.746968    4.585103
     21          6           0       -1.202274   -2.000881    4.332143
     22          6           0       -2.075246   -2.158882    3.253703
     23          6           0       -2.382888   -1.074645    2.429972
     24         16           0        0.199254    2.521617    1.140909
     25          6           0        1.545517    2.049932   -0.036329
     26          6           0        1.374756    2.582562   -1.483072
     27          6           0        1.403771    4.093322   -1.581848
     28          6           0        2.622721    4.783583   -1.519892
     29          6           0        2.666717    6.175129   -1.602966
     30          6           0        1.485930    6.904376   -1.756836
     31          6           0        0.266117    6.230634   -1.826975
     32          6           0        0.228812    4.838129   -1.739590
     33          6           0        1.941952    0.539415    0.085267
     34          8           0        2.679698    0.096405   -1.048985
     35          6           0        4.071773    0.402476   -1.044226
     36          6           0        4.891218   -0.328438    0.005360
     37          6           0        6.086680    0.236749    0.467053
     38          6           0        6.869923   -0.466248    1.383173
     39          6           0        6.466508   -1.711403    1.859639
     40          6           0        5.259948   -2.277379    1.414934
     41          7           0        4.852570   -3.541632    1.854807
     42          6           0        4.486392   -1.577956    0.474350
     43          6           0        0.732763   -0.389393    0.272875
     44          8           0        1.122205   -1.765568    0.219684
     45          1           0        1.700113   -3.534938   -1.739707
     46          1           0        0.140778   -3.371926   -2.579760
     47          1           0        1.242462   -1.974672   -2.429707
     48          1           0        0.502783   -4.387356    0.373440
     49          1           0       -0.765061   -3.376604    1.111335
     50          1           0       -1.075364   -4.232273   -0.425118
     51          1           0        0.133877   -0.103123   -1.771903
     52          1           0       -1.375385    1.457088   -1.518325
     53          1           0       -3.371946    0.826181   -2.543313
     54          1           0       -2.555001   -0.753740   -2.431027
     55          1           0       -5.754373    0.829192   -2.650133
     56          1           0       -7.924199   -0.356368   -2.367154
     57          1           0       -8.000113   -2.601791   -1.337676
     58          1           0       -6.777413   -4.263200   -0.053062
     59          1           0       -5.115664   -4.234320    0.114570
     60          1           0       -3.717861   -2.507065   -0.868841
     61          1           0       -1.981301    2.669088    0.200815
     62          1           0       -3.273392    1.234917    1.492188
     63          1           0       -2.268312    2.273756    2.487350
     64          1           0       -0.542183    1.317139    3.984627
     65          1           0        0.030588   -0.609180    5.425953
     66          1           0       -0.966052   -2.845435    4.974432
     67          1           0       -2.526075   -3.129126    3.058150
     68          1           0       -3.055619   -1.200624    1.586951
     69          1           0        2.366739    2.628454    0.404734
     70          1           0        2.190318    2.161937   -2.079836
     71          1           0        0.453095    2.203671   -1.931745
     72          1           0        3.550183    4.223534   -1.412787
     73          1           0        3.623214    6.689342   -1.555475
     74          1           0        1.517516    7.988430   -1.825967
     75          1           0       -0.658624    6.788393   -1.950356
     76          1           0       -0.726735    4.321866   -1.797528
     77          1           0        2.561686    0.435902    0.984515
     78          1           0        4.410370    0.117553   -2.047613
     79          1           0        4.237436    1.487426   -0.948777
     80          1           0        6.402712    1.215662    0.113994
     81          1           0        7.799809   -0.033707    1.744074
     82          1           0        7.079532   -2.246812    2.581534
     83          1           0        5.214225   -3.810138    2.761994
     84          1           0        3.852740   -3.696313    1.798883
     85          1           0        3.542898   -1.993186    0.133094
     86          1           0        0.309197   -0.195182    1.260304
 ---------------------------------------------------------------------

 SCF Done:  E(RB3LYP) =  -2243.76836823     A.U. after   14 cycles

 Excitation energies and oscillator strengths:

 Excited state symmetry could not be determined.
 Excited State   1:      Triplet-?Sym    3.5975 eV  344.64 nm  f=0.0000  <S**2>=2.000
     159 ->168         0.35200
     163 ->168         0.12143
     163 ->171        -0.56695
 This state for optimization and/or second-order correction.
 Total Energy, E(TD-HF/TD-DFT) =  -2243.63616356
 Copying the excited state density for this state as the 1-particle RhoCI density.

 Excited state symmetry could not be determined.
 Excited State   2:      Triplet-?Sym    3.6075 eV  343.69 nm  f=0.0000  <S**2>=2.000
     157 ->164         0.37090
     158 ->164         0.14130
     162 ->164         0.13465
     162 ->170        -0.52934

 Excited state symmetry could not be determined.
 Excited State   3:      Singlet-?Sym    4.7181 eV  262.78 nm  f=0.0629  <S**2>=0.000
     157 ->170         0.20470
     162 ->164         0.66163

 Excited state symmetry could not be determined.
 Excited State   4:      Singlet-?Sym    4.7944 eV  258.60 nm  f=0.0443  <S**2>=0.000
     159 ->171         0.23486
     163 ->167        -0.10765
     163 ->168         0.64014
     163 ->169         0.10243

 Alpha  occ. eigenvalues --  -88.86643 -19.15501 -19.15432 -19.15382 -19.14456
 Alpha  occ. eigenvalues --  -14.33931 -14.33415 -10.28594 -10.25428 -10.24149
 Alpha  occ. eigenvalues --  -10.23961 -10.23791 -10.23216 -10.23075 -10.22713
 Alpha  occ. eigenvalues --  -10.22667 -10.22470 -10.22014 -10.19450 -10.19359
 Alpha  occ. eigenvalues --  -10.18914 -10.18784 -10.18765 -10.18759 -10.18728
 Alpha  occ. eigenvalues --  -10.18695 -10.18649 -10.18596 -10.18568 -10.18459
 Alpha  occ. eigenvalues --  -10.18337 -10.18270 -10.18220 -10.18204 -10.18038
 Alpha  occ. eigenvalues --  -10.17928 -10.17739 -10.17610 -10.17570 -10.17567
 Alpha  occ. eigenvalues --  -10.17297 -10.17291 -10.17021 -10.16835  -7.92690
 Alpha  occ. eigenvalues --   -5.89244  -5.88825  -5.88135  -1.08335  -1.03819
 Alpha  occ. eigenvalues --   -1.03531  -0.98508  -0.91516  -0.91033  -0.85505
 Alpha  occ. eigenvalues --   -0.84840  -0.83797  -0.83363  -0.82735  -0.79686
 Alpha  occ. eigenvalues --   -0.79645  -0.76436  -0.76089  -0.75182  -0.74079
 Alpha  occ. eigenvalues --   -0.73963  -0.73457  -0.72658  -0.72272  -0.71931
 Alpha  occ. eigenvalues --   -0.70289  -0.69301  -0.68480  -0.67571  -0.66480
 Alpha  occ. eigenvalues --   -0.63505  -0.63332  -0.60255  -0.60090  -0.59705
 Alpha  occ. eigenvalues --   -0.59545  -0.58859  -0.58494  -0.58371  -0.57908
 Alpha  occ. eigenvalues --   -0.57467  -0.55560  -0.54588  -0.52642  -0.51312
 Alpha  occ. eigenvalues --   -0.51255  -0.50939  -0.50790  -0.50218  -0.50046
 Alpha  occ. eigenvalues --   -0.49201  -0.48496  -0.48207  -0.47690  -0.47410
 Alpha  occ. eigenvalues --   -0.47007  -0.46271  -0.45975  -0.45634  -0.45307
 Alpha  occ. eigenvalues --   -0.44934  -0.44618  -0.44169  -0.43575  -0.42774
 Alpha  occ. eigenvalues --   -0.42734  -0.42515  -0.41908  -0.41691  -0.41593
 Alpha  occ. eigenvalues --   -0.41294  -0.41005  -0.40822  -0.40514  -0.40323
 Alpha  occ. eigenvalues --   -0.39993  -0.39887  -0.39401  -0.38971  -0.38693
 Alpha  occ. eigenvalues --   -0.38010  -0.37546  -0.37475  -0.37144  -0.36887
 Alpha  occ. eigenvalues --   -0.36459  -0.35887  -0.35622  -0.35266  -0.35151
 Alpha  occ. eigenvalues --   -0.34796  -0.34721  -0.34146  -0.33953  -0.33640
 Alpha  occ. eigenvalues --   -0.33557  -0.33127  -0.32995  -0.32683  -0.32165
 Alpha  occ. eigenvalues --   -0.30979  -0.30755  -0.30339  -0.29727  -0.29584
 Alpha  occ. eigenvalues --   -0.26770  -0.26164  -0.26067  -0.25169  -0.24687
 Alpha  occ. eigenvalues --   -0.24033  -0.23951  -0.23838  -0.23519  -0.23357
 Alpha  occ. eigenvalues --   -0.21369  -0.20108  -0.19668
 Alpha virt. eigenvalues --   -0.00284   0.00011   0.00232   0.00344   0.00583
 Alpha virt. eigenvalues --    0.00710   0.01908   0.02109   0.04536   0.04591
 Alpha virt. eigenvalues --    0.06398   0.06854   0.07328   0.07903   0.09104

 Mulliken charges:
               1
     1  C   -0.457658
     2  C    0.547700
     3  C   -0.473690
     4  O   -0.525226
     5  C    0.092926
     6  C    0.140448
     7  O   -0.487434
     8  C   -0.103075
     9  C    0.131680
    10  C   -0.189865
    11  C   -0.135631
    12  C   -0.167707
    13  C    0.308100
    14  N   -0.788180
    15  C   -0.218634
    16  C   -0.281935
    17  C   -0.360189
    18  C    0.155085
    19  C   -0.175830
    20  C   -0.129221
    21  C   -0.130464
    22  C   -0.134013
    23  C   -0.176663
    24  S    0.082312
    25  C   -0.314162
    26  C   -0.366901
    27  C    0.183625
    28  C   -0.183973
    29  C   -0.127878
    30  C   -0.129757
    31  C   -0.129687
    32  C   -0.167378
    33  C    0.132616
    34  O   -0.490343
    35  C   -0.099056
    36  C    0.099223
    37  C   -0.191612
    38  C   -0.136525
    39  C   -0.170143
    40  C    0.304131
    41  N   -0.790208
    42  C   -0.229026
    43  C    0.125054
    44  O   -0.544633
    45  H    0.150552
    46  H    0.144580
    47  H    0.166338
    48  H    0.144500
    49  H    0.173375
    50  H    0.146341
    51  H    0.142455
    52  H    0.124844
    53  H    0.123983
    54  H    0.153961
    55  H    0.117273
    56  H    0.126014
    57  H    0.116068
    58  H    0.318579
    59  H    0.319438
    60  H    0.142350
    61  H    0.175759
    62  H    0.179468
    63  H    0.154698
    64  H    0.139167
    65  H    0.126316
    66  H    0.123109
    67  H    0.118125
    68  H    0.157167
    69  H    0.181707
    70  H    0.176806
    71  H    0.148865
    72  H    0.121489
    73  H    0.128429
    74  H    0.128141
    75  H    0.128349
    76  H    0.120287
    77  H    0.152812
    78  H    0.165138
    79  H    0.127960
    80  H    0.110123
    81  H    0.123811
    82  H    0.113400
    83  H    0.316317
    84  H    0.325999
    85  H    0.168377
    86  H    0.181326
 Sum of Mulliken charges =  -0.00000

 Dipole moment (field-independent basis, Debye):
    X=             -0.7216    Y=             -0.8486    Z=              0.9234  Tot=              1.4469
 Quadrupole moment (field-independent basis, Debye-Ang):
   XX=           -252.4733   YY=           -249.8216   ZZ=           -262.8438
   XY=              9.0171   XZ=              3.7977   YZ=            -17.9383

 Normal termination of Gaussian 16 at Sat Nov  5 12:29:53 2022.
