 Gaussian 16, Revision B.01,
 Gaussian 16:  ES64L-G16RevB.01 20-Dec-2017

 -----------------------------
 #p b3lyp/6-31g(d) opt SCF=XQC
 -----------------------------

 ------------------------------
 Gaussian input prepared by ASE
 ------------------------------
 Symbolic Z-matrix:
 Charge =  0 Multiplicity = 1

 SCF Done:  E(RB3LYP) =  -2243.74976902     A.U. after   14 cycles
 SCF Done:  E(RB3LYP) =  -2243.75915698     A.U. after   14 cycles
 SCF Done:  E(RB3LYP) =  -2243.76361316     A.U. after   13 cycles
 SCF Done:  E(RB3LYP) =  -2243.76707971     A.U. after   12 cycles
 SCF Done:  E(RB3LYP) =  -2243.76712653     A.U. after   12 cycles
 SCF Done:  E(RB3LYP) =  -2243.76806284     A.U. after   11 cycles
 SCF Done:  E(RB3LYP) =  -2243.76826457     A.U. after   12 cycles
 SCF Done:  E(RB3LYP) =  -2243.76832551     A.U. after   10 cycles
 SCF Done:  E(RB3LYP) =  -2243.76833461     A.U. after   10 cycles
 SCF Done:  E(RB3LYP) =  -2243.76835372     A.U. after    9 cycles
 SCF Done:  E(RB3LYP) =  -2243.76836430     A.U. after    9 cycles
 SCF Done:  E(RB3LYP) =  -2243.76836702     A.U. after    9 cycles
 SCF Done:  E(RB3LYP) =  -2243.76836841     A.U. after    9 cycles
 SCF Done:  E(RB3LYP) =  -2243.76836938     A.U. after    9 cycles
 SCF Done:  E(RB3LYP) =  -2243.76836980     A.U. after    7 cycles
 SCF Done:  E(RB3LYP) =  -2243.76836995     A.U. after    7 cycles
 SCF Done:  E(RB3LYP) =  -2243.76837000     A.U. after    6 cycles
 SCF Done:  E(RB3LYP) =  -2243.76837002     A.U. after    6 cycles
 SCF Done:  E(RB3LYP) =  -2243.76837003     A.U. after    6 cycles
 SCF Done:  E(RB3LYP) =  -2243.76837003     A.U. after    5 cycles
 Optimization completed.
    -- Stationary point found.

                         Standard orientation:
 ---------------------------------------------------------------------
 Center     Atomic      Atomic             Coordinates (Angstroms)
 Number     Number       Type             X           Y           Z
 ---------------------------------------------------------------------
      1          6           0       -0.152029   -2.137243   -2.977548
      2          6           0       -0.583289   -2.137499   -1.507621
      3          6           0       -1.346664   -3.395936   -1.119822
      4          8           0       -1.403388   -1.006721   -1.207373
      5          6           0       -0.510114    0.049236   -0.859929
      6          6           0       -1.262591    1.223856   -0.140368
      7          8           0       -2.665563    1.028091   -0.101085
      8          6           0       -3.338374    1.308990   -1.335563
      9          6           0       -4.792039    0.936594   -1.189919
     10          6           0       -5.789565    1.915477   -1.170721
     11          6           0       -7.126233    1.533185   -1.035335
     12          6           0       -7.473295    0.191561   -0.912212
     13          6           0       -6.478094   -0.802638   -0.924700
     14          7           0       -6.824220   -2.157347   -0.861107
     15          6           0       -5.138841   -0.412388   -1.068402
     16          6           0       -0.867031    1.654473    1.307401
     17          6           0       -1.656389    1.001478    2.478052
     18          6           0       -1.522408   -0.477803    2.777344
     19          6           0       -0.563231   -0.947920    3.687103
     20          6           0       -0.491012   -2.301660    4.019857
     21          6           0       -1.391016   -3.209387    3.459987
     22          6           0       -2.356188   -2.752606    2.560058
     23          6           0       -2.417224   -1.400976    2.216379
     24         16           0        0.945741    1.724521    1.787460
     25          6           0        2.012328    1.428577    0.305700
     26          6           0        1.881100    2.483195   -0.824114
     27          6           0        2.317494    3.873284   -0.411549
     28          6           0        3.680409    4.193317   -0.332960
     29          6           0        4.099539    5.466839    0.051373
     30          6           0        3.157171    6.450108    0.359367
     31          6           0        1.797334    6.148175    0.278920
     32          6           0        1.384692    4.870665   -0.102905
     33          6           0        1.985389   -0.066932   -0.159417
     34          8           0        2.480318   -0.213989   -1.486245
     35          6           0        3.898669   -0.258187   -1.620042
     36          6           0        4.565267   -1.492326   -1.037029
     37          6           0        5.902829   -1.427652   -0.626577
     38          6           0        6.531882   -2.578933   -0.151397
     39          6           0        5.839899   -3.784332   -0.060041
     40          6           0        4.492831   -3.853476   -0.453114
     41          7           0        3.788892   -5.061604   -0.401371
     42          6           0        3.870137   -2.698561   -0.953817
     43          6           0        0.585815   -0.696433   -0.089114
     44          8           0        0.575379   -2.004631   -0.669510
     45          1           0        0.486323   -3.003521   -3.179121
     46          1           0       -1.029047   -2.189289   -3.631298
     47          1           0        0.423365   -1.238618   -3.212653
     48          1           0       -0.728511   -4.280470   -1.303172
     49          1           0       -1.606143   -3.354325   -0.059968
     50          1           0       -2.260807   -3.484455   -1.716358
     51          1           0       -0.070771    0.455788   -1.781157
     52          1           0       -1.066548    2.111214   -0.759184
     53          1           0       -3.234240    2.379095   -1.574200
     54          1           0       -2.878195    0.728497   -2.144213
     55          1           0       -5.524233    2.965596   -1.259037
     56          1           0       -7.907324    2.289040   -1.020449
     57          1           0       -8.517517   -0.096614   -0.811099
     58          1           0       -7.702480   -2.347669   -0.393991
     59          1           0       -6.089298   -2.763371   -0.517199
     60          1           0       -4.351909   -1.163239   -1.087653
     61          1           0       -1.176957    2.703736    1.345156
     62          1           0       -2.707929    1.229199    2.281029
     63          1           0       -1.380000    1.566106    3.377759
     64          1           0        0.128409   -0.244234    4.141860
     65          1           0        0.260193   -2.643391    4.727410
     66          1           0       -1.346690   -4.261687    3.728889
     67          1           0       -3.070981   -3.450659    2.130345
     68          1           0       -3.163115   -1.048340    1.510392
     69          1           0        2.993410    1.598386    0.766430
     70          1           0        2.499266    2.139349   -1.659479
     71          1           0        0.858219    2.518873   -1.207214
     72          1           0        4.423027    3.437570   -0.583312
     73          1           0        5.161355    5.693691    0.102758
     74          1           0        3.480760    7.444467    0.655155
     75          1           0        1.055405    6.907271    0.512967
     76          1           0        0.322394    4.645621   -0.164815
     77          1           0        2.621700   -0.634905    0.530471
     78          1           0        4.065137   -0.220236   -2.703306
     79          1           0        4.363970    0.645367   -1.194886
     80          1           0        6.447477   -0.487714   -0.678280
     81          1           0        7.570487   -2.535664    0.167126
     82          1           0        6.336709   -4.673883    0.321367
     83          1           0        4.133115   -5.722107    0.285013
     84          1           0        2.783993   -4.951751   -0.331916
     85          1           0        2.824822   -2.730415   -1.245969
     86          1           0        0.311680   -0.790727    0.963550
 ---------------------------------------------------------------------

 The electronic state is 1-A.
 Alpha  occ. eigenvalues --  -88.86644 -19.15500 -19.15432 -19.15382 -19.14456
 Alpha  occ. eigenvalues --  -14.33931 -14.33415 -10.28594 -10.25427 -10.24149
 Alpha  occ. eigenvalues --  -10.23961 -10.23791 -10.23216 -10.23075 -10.22713
 Alpha  occ. eigenvalues --  -10.22667 -10.22470 -10.22014 -10.19450 -10.19359
 Alpha  occ. eigenvalues --  -10.18914 -10.18784 -10.18765 -10.18759 -10.18728
 Alpha  occ. eigenvalues --  -10.18695 -10.18649 -10.18595 -10.18568 -10.18459
 Alpha  occ. eigenvalues --  -10.18337 -10.18270 -10.18220 -10.18204 -10.18038
 Alpha  occ. eigenvalues --  -10.17928 -10.17739 -10.17610 -10.17570 -10.17567
 Alpha  occ. eigenvalues --  -10.17297 -10.17291 -10.17021 -10.16835  -7.92691
 Alpha  occ. eigenvalues --   -5.89244  -5.88825  -5.88135  -1.08335  -1.03819
 Alpha  occ. eigenvalues --   -1.03531  -0.98509  -0.91516  -0.91033  -0.85505
 Alpha  occ. eigenvalues --   -0.84840  -0.83797  -0.83363  -0.82735  -0.79686
 Alpha  occ. eigenvalues --   -0.79645  -0.76436  -0.76089  -0.75182  -0.74079
 Alpha  occ. eigenvalues --   -0.73963  -0.73457  -0.72658  -0.72272  -0.71931
 Alpha  occ. eigenvalues --   -0.70289  -0.69302  -0.68480  -0.67571  -0.66480
 Alpha  occ. eigenvalues --   -0.63505  -0.63332  -0.60255  -0.60090  -0.59705
 Alpha  occ. eigenvalues --   -0.59545  -0.58859  -0.58494  -0.58371  -0.57908
 Alpha  occ. eigenvalues --   -0.57467  -0.55560  -0.54588  -0.52642  -0.51312
 Alpha  occ. eigenvalues --   -0.51255  -0.50939  -0.50790  -0.50218  -0.50046
 Alpha  occ. eigenvalues --   -0.49201  -0.48496  -0.48207  -0.47690  -0.47410
 Alpha  occ. eigenvalues --   -0.47007  -0.46271  -0.45975  -0.45634  -0.45307
 Alpha  occ. eigenvalues --   -0.44934  -0.44618  -0.44169  -0.43575  -0.42774
 Alpha  occ. eigenvalues --   -0.42734  -0.42515  -0.41908  -0.41691  -0.41593
 Alpha  occ. eigenvalues --   -0.41294  -0.41005  -0.40822  -0.40514  -0.40323
 Alpha  occ. eigenvalues --   -0.39993  -0.39887  -0.39401  -0.38971  -0.38693
 Alpha  occ. eigenvalues --   -0.38010  -0.37546  -0.37475  -0.37144  -0.36887
 Alpha  occ. eigenvalues --   -0.36459  -0.35887  -0.35622  -0.35266  -0.35151
 Alpha  occ. eigenvalues --   -0.34796  -0.34721  -0.34146  -0.33953  -0.33640
 Alpha  occ. eigenvalues --   -0.33557  -0.33128  -0.32995  -0.32683  -0.32165
 Alpha  occ. eigenvalues --   -0.30979  -0.30755  -0.30339  -0.29727  -0.29584
 Alpha  occ. eigenvalues --   -0.26770  -0.26164  -0.26067  -0.25169  -0.24687
 Alpha  occ. eigenvalues --   -0.24033  -0.23951  -0.23838  -0.23519  -0.23357
 Alpha  occ. eigenvalues --   -0.21369  -0.20108  -0.19668
 Alpha virt. eigenvalues --   -0.00284   0.00011   0.00232   0.00344   0.00583
 Alpha virt. eigenvalues --    0.00710   0.01908   0.02109   0.04536   0.04591
 Alpha virt. eigenvalues --    0.06398   0.06854   0.07328   0.07903   0.09104

 Mulliken charges:
               1
     1  C   -0.457668
     2  C    0.547703
     3  C   -0.473672
     4  O   -0.525213
     5  C    0.092863
     6  C    0.140545
     7  O   -0.487459
     8  C   -0.103070
     9  C    0.131681
    10  C   -0.189868
    11  C   -0.135631
    12  C   -0.167704
    13  C    0.308103
    14  N   -0.788184
    15  C   -0.218644
    16  C   -0.281964
    17  C   -0.360185
    18  C    0.155128
    19  C   -0.175831
    20  C   -0.129225
    21  C   -0.130467
    22  C   -0.133991
    23  C   -0.176719
    24  S    0.082281
    25  C   -0.314182
    26  C   -0.366890
    27  C    0.183623
    28  C   -0.183982
    29  C   -0.127868
    30  C   -0.129755
    31  C   -0.129694
    32  C   -0.167369
    33  C    0.132625
    34  O   -0.490335
    35  C   -0.099042
    36  C    0.099200
    37  C   -0.191606
    38  C   -0.136530
    39  C   -0.170138
    40  C    0.304127
    41  N   -0.790212
    42  C   -0.229017
    43  C    0.125077
    44  O   -0.544637
    45  H    0.150553
    46  H    0.144580
    47  H    0.166336
    48  H    0.144501
    49  H    0.173359
    50  H    0.146341
    51  H    0.142455
    52  H    0.124840
    53  H    0.123979
    54  H    0.153963
    55  H    0.117272
    56  H    0.126014
    57  H    0.116067
    58  H    0.318578
    59  H    0.319439
    60  H    0.142355
    61  H    0.175764
    62  H    0.179472
    63  H    0.154697
    64  H    0.139169
    65  H    0.126316
    66  H    0.123108
    67  H    0.118128
    68  H    0.157170
    69  H    0.181714
    70  H    0.176814
    71  H    0.148862
    72  H    0.121489
    73  H    0.128428
    74  H    0.128141
    75  H    0.128349
    76  H    0.120289
    77  H    0.152813
    78  H    0.165136
    79  H    0.127956
    80  H    0.110124
    81  H    0.123811
    82  H    0.113401
    83  H    0.316316
    84  H    0.326001
    85  H    0.168380
    86  H    0.181315
 Sum of Mulliken charges =  -0.00000

 Dipole moment (field-independent basis, Debye):
    X=             -0.8521    Y=             -0.9414    Z=              0.6937  Tot=              1.4470
 Quadrupole moment (field-independent basis, Debye-Ang):
   XX=           -247.7296   YY=           -242.7000   ZZ=           -274.6276
   XY=              7.4038   XZ=              0.2774   YZ=            -10.9807

 Normal termination of Gaussian 16 at Fri Nov  4 21:51:26 2022.
