 Gaussian 16, Revision B.01,
 Gaussian 16:  ES64L-G16RevB.01 20-Dec-2017

 -------------------------------------------------------------------
 #p b3lyp/6-31g(d) 6D 10F nosymm GFInput td=(50-50,nstate=2) SCF=XQC
 -------------------------------------------------------------------

 ------------------------------
 Gaussian input prepared by ASE
 ------------------------------
 Symbolic Z-matrix:
 Charge =  0 Multiplicity = 1

                          Input orientation:
 ---------------------------------------------------------------------
 Center     Atomic      Atomic             Coordinates (Angstroms)
 Number     Number       Type             X           Y           Z
 ---------------------------------------------------------------------
      1          6           0       -4.821685    0.235463   -5.264446
      2          6           0       -4.331759    0.419284   -3.835949
      3          8           0       -5.114082    0.336080   -2.900457
      4          6           0       -2.878915    0.700611   -3.599553
      5          6           0       -1.940139    0.766520   -4.638130
      6          6           0       -0.597581    1.019973   -4.351404
      7          6           0       -0.187310    1.210499   -3.033697
      8          6           0       -1.111612    1.157383   -1.979216
      9          6           0       -0.667819    1.422115   -0.554243
     10          7           0        0.238379    0.391586    0.001835
     11          6           0        1.390147    0.856725    0.615092
     12          8           0        1.649424    2.062004    0.624109
     13          7           0        2.233780   -0.033450    1.340333
     14          6           0        3.045730    0.698873    2.349737
     15          6           0        2.212299    1.078223    3.560171
     16          6           0        1.911988    0.112008    4.533227
     17          6           0        1.098202    0.420858    5.621921
     18          6           0        0.563158    1.703107    5.748960
     19          6           0        0.864242    2.687724    4.797362
     20          6           0        0.312895    4.081498    4.876741
     21          6           0       -0.802056    4.364053    5.870607
     22          8           0        0.730264    4.961572    4.140559
     23          6           0        1.696859    2.365840    3.713539
     24          6           0        2.868413   -1.272731    0.829422
     25          6           0        3.996133   -1.091750   -0.226989
     26          6           0        3.696642   -0.631027   -1.638324
     27          6           0        3.619510    0.730377   -1.971510
     28          6           0        3.420544    1.130543   -3.292508
     29          6           0        3.294998    0.181995   -4.308203
     30          6           0        3.403143   -1.181596   -3.991654
     31          6           0        3.602213   -1.573093   -2.669324
     32          8           0        3.323191   -2.159484   -4.956571
     33          6           0        3.507855   -1.664827   -6.282141
     34          6           0        2.667220   -0.416202   -6.494199
     35          8           0        3.075253    0.616977   -5.595900
     36          6           0        1.791068   -2.320516    0.564326
     37          8           0        2.299142   -3.524139   -0.009787
     38          6           0        1.145926   -4.233821   -0.509391
     39          6           0        0.718705   -5.318811    0.475853
     40          6           0        1.478816   -4.783225   -1.891593
     41          8           0        0.084354   -3.261488   -0.596532
     42          6           0        0.672070   -1.973905   -0.394169
     43          6           0       -0.342523   -0.956708    0.125023
     44          6           0       -0.934567   -1.277270    1.521853
     45          6           0       -2.199394   -0.507943    1.847833
     46          6           0       -3.399148   -0.780263    1.169763
     47          6           0       -4.555480   -0.053432    1.438813
     48          6           0       -4.544353    0.949129    2.409790
     49          6           0       -3.362039    1.206347    3.121801
     50          6           0       -2.200722    0.487580    2.829991
     51          8           0       -3.307239    2.164931    4.111026
     52          6           0       -4.589578    2.604999    4.560190
     53          6           0       -5.504544    2.857437    3.372836
     54          8           0       -5.705607    1.647326    2.646028
     55          6           0       -2.449913    0.900993   -2.276404
     56          1           0       -4.616486    1.125790   -5.870725
     57          1           0       -4.319866   -0.611482   -5.747701
     58          1           0       -5.897257    0.052124   -5.243228
     59          1           0       -2.248636    0.621757   -5.669061
     60          1           0        0.132848    1.082754   -5.153595
     61          1           0        0.858279    1.404656   -2.816463
     62          1           0       -1.547392    1.500010    0.093424
     63          1           0       -0.127716    2.366228   -0.492153
     64          1           0        3.847098    0.025205    2.664280
     65          1           0        3.502659    1.587215    1.908414
     66          1           0        2.317270   -0.893034    4.433624
     67          1           0        0.876965   -0.336819    6.368762
     68          1           0       -0.082065    1.930130    6.591590
     69          1           0       -1.657323    3.708422    5.667680
     70          1           0       -1.102534    5.408630    5.770602
     71          1           0       -0.478109    4.180637    6.902072
     72          1           0        1.905022    3.131136    2.974489
     73          1           0        3.409752   -1.664547    1.696783
     74          1           0        4.715056   -0.394942    0.223007
     75          1           0        4.502960   -2.061849   -0.278926
     76          1           0        3.698658    1.485724   -1.195225
     77          1           0        3.355880    2.181932   -3.557437
     78          1           0        3.697512   -2.633262   -2.457686
     79          1           0        4.569472   -1.436258   -6.451286
     80          1           0        3.203048   -2.468478   -6.957613
     81          1           0        1.606235   -0.651910   -6.331531
     82          1           0        2.794541   -0.014461   -7.503060
     83          1           0        1.342341   -2.549697    1.541456
     84          1           0       -0.220247   -5.776221    0.148332
     85          1           0        0.565061   -4.890764    1.470781
     86          1           0        1.485811   -6.096899    0.541606
     87          1           0        2.357512   -5.434489   -1.839071
     88          1           0        1.687096   -3.965465   -2.586143
     89          1           0        0.635440   -5.364361   -2.277631
     90          1           0        1.076245   -1.591656   -1.339797
     91          1           0       -1.166443   -0.977435   -0.594152
     92          1           0       -1.148689   -2.353728    1.529246
     93          1           0       -0.182296   -1.086354    2.292075
     94          1           0       -3.429657   -1.562246    0.415032
     95          1           0       -5.479340   -0.242432    0.900963
     96          1           0       -1.301020    0.720560    3.392374
     97          1           0       -4.417938    3.519964    5.133538
     98          1           0       -5.033895    1.845717    5.218930
     99          1           0       -6.493645    3.192365    3.696449
    100          1           0       -5.063627    3.620479    2.716231
    101          1           0       -3.193077    0.852402   -1.485697
 ---------------------------------------------------------------------

 SCF Done:  E(RB3LYP) =  -2490.88665397     A.U. after   15 cycles

 Excitation energies and oscillator strengths:

 Excited state symmetry could not be determined.
 Excited State   1:      Triplet-?Sym    3.1916 eV  388.47 nm  f=0.0000  <S**2>=2.000
     192 ->200        -0.58704
     192 ->208         0.11820
     193 ->200         0.32148
 This state for optimization and/or second-order correction.
 Total Energy, E(TD-HF/TD-DFT) =  -2490.76936361
 Copying the excited state density for this state as the 1-particle RhoCI density.

 Excited state symmetry could not be determined.
 Excited State   2:      Triplet-?Sym    3.2141 eV  385.75 nm  f=0.0000  <S**2>=2.000
     191 ->199        -0.65652
     191 ->208         0.10115
     191 ->209         0.12851

 Excited state symmetry could not be determined.
 Excited State   3:      Singlet-?Sym    3.6653 eV  338.27 nm  f=0.0028  <S**2>=0.000
     198 ->199         0.69863

 Excited state symmetry could not be determined.
 Excited State   4:      Singlet-?Sym    3.7287 eV  332.51 nm  f=0.0001  <S**2>=0.000
     192 ->200        -0.56139
     193 ->200         0.36089
     198 ->200         0.10927

 Alpha  occ. eigenvalues --  -19.18515 -19.18344 -19.17991 -19.17606 -19.15718
 Alpha  occ. eigenvalues --  -19.15272 -19.12993 -19.12542 -19.10321 -14.35861
 Alpha  occ. eigenvalues --  -14.35357 -10.30618 -10.29168 -10.27134 -10.26673
 Alpha  occ. eigenvalues --  -10.25612 -10.25551 -10.25061 -10.24868 -10.24720
 Alpha  occ. eigenvalues --  -10.24664 -10.24157 -10.23989 -10.23958 -10.23923
 Alpha  occ. eigenvalues --  -10.23446 -10.22863 -10.21838 -10.20850 -10.19901
 Alpha  occ. eigenvalues --  -10.19785 -10.19764 -10.19689 -10.19573 -10.19568
 Alpha  occ. eigenvalues --  -10.19523 -10.19393 -10.19385 -10.19342 -10.19251
 Alpha  occ. eigenvalues --  -10.19095 -10.18888 -10.18847 -10.18832 -10.18633
 Alpha  occ. eigenvalues --  -10.18595 -10.18549 -10.18502 -10.18333 -10.18224
 Alpha  occ. eigenvalues --  -10.18057 -10.18022 -10.17902 -10.17862 -10.17632
 Alpha  occ. eigenvalues --   -1.08835  -1.08646  -1.08204  -1.05264  -1.04621
 Alpha  occ. eigenvalues --   -1.03872  -1.02913  -1.02490  -0.99248  -0.93070
 Alpha  occ. eigenvalues --   -0.91979  -0.85956  -0.85846  -0.85635  -0.85143
 Alpha  occ. eigenvalues --   -0.81798  -0.79526  -0.78698  -0.77911  -0.77636
 Alpha  occ. eigenvalues --   -0.76408  -0.75973  -0.75638  -0.75367  -0.74610
 Alpha  occ. eigenvalues --   -0.74361  -0.73007  -0.72746  -0.72390  -0.71539
 Alpha  occ. eigenvalues --   -0.69897  -0.69695  -0.68808  -0.67874  -0.66614
 Alpha  occ. eigenvalues --   -0.66052  -0.64908  -0.63475  -0.62439  -0.62295
 Alpha  occ. eigenvalues --   -0.61422  -0.60858  -0.59632  -0.59268  -0.59054
 Alpha  occ. eigenvalues --   -0.57873  -0.56563  -0.56373  -0.54704  -0.54000
 Alpha  occ. eigenvalues --   -0.53837  -0.53467  -0.52824  -0.51925  -0.51711
 Alpha  occ. eigenvalues --   -0.51441  -0.51038  -0.50577  -0.50558  -0.50490
 Alpha  occ. eigenvalues --   -0.49092  -0.48581  -0.48173  -0.47615  -0.46913
 Alpha  occ. eigenvalues --   -0.46506  -0.46076  -0.45744  -0.45371  -0.45227
 Alpha  occ. eigenvalues --   -0.45191  -0.44960  -0.44780  -0.44646  -0.44317
 Alpha  occ. eigenvalues --   -0.43987  -0.43906  -0.43881  -0.43660  -0.43552
 Alpha  occ. eigenvalues --   -0.43454  -0.43290  -0.43049  -0.42672  -0.42441
 Alpha  occ. eigenvalues --   -0.41924  -0.41787  -0.41583  -0.41053  -0.40810
 Alpha  occ. eigenvalues --   -0.40681  -0.40262  -0.39751  -0.39675  -0.39479
 Alpha  occ. eigenvalues --   -0.39234  -0.39198  -0.39055  -0.38853  -0.38635
 Alpha  occ. eigenvalues --   -0.38470  -0.38465  -0.38105  -0.37679  -0.37560
 Alpha  occ. eigenvalues --   -0.37081  -0.36807  -0.36660  -0.36383  -0.36332
 Alpha  occ. eigenvalues --   -0.35695  -0.35184  -0.35029  -0.34857  -0.34746
 Alpha  occ. eigenvalues --   -0.34382  -0.34186  -0.34080  -0.33985  -0.33972
 Alpha  occ. eigenvalues --   -0.33641  -0.33321  -0.32951  -0.32106  -0.31004
 Alpha  occ. eigenvalues --   -0.30605  -0.30587  -0.29975  -0.26929  -0.26369
 Alpha  occ. eigenvalues --   -0.25537  -0.25424  -0.25354  -0.25138  -0.24733
 Alpha  occ. eigenvalues --   -0.24311  -0.23824  -0.23691  -0.23526  -0.22922
 Alpha  occ. eigenvalues --   -0.22587  -0.20911  -0.20259
 Alpha virt. eigenvalues --   -0.05034  -0.04646  -0.00655  -0.00544  -0.00188
 Alpha virt. eigenvalues --    0.00755   0.00945   0.01523   0.03518   0.03998
 Alpha virt. eigenvalues --    0.04188   0.06860   0.07642   0.07815   0.08662

 Mulliken charges:
               1
     1  C   -0.542951
     2  C    0.407382
     3  O   -0.455126
     4  C    0.083200
     5  C   -0.185911
     6  C   -0.151487
     7  C   -0.164174
     8  C    0.150204
     9  C   -0.246173
    10  N   -0.467328
    11  C    0.789673
    12  O   -0.547339
    13  N   -0.494514
    14  C   -0.226144
    15  C    0.161779
    16  C   -0.166902
    17  C   -0.135551
    18  C   -0.179508
    19  C    0.076649
    20  C    0.412073
    21  C   -0.556631
    22  O   -0.448797
    23  C   -0.208069
    24  C   -0.019929
    25  C   -0.360294
    26  C    0.165514
    27  C   -0.199474
    28  C   -0.212067
    29  C    0.339409
    30  C    0.340506
    31  C   -0.268088
    32  O   -0.524609
    33  C   -0.062268
    34  C   -0.060195
    35  O   -0.527977
    36  C    0.140437
    37  O   -0.549164
    38  C    0.547253
    39  C   -0.453692
    40  C   -0.463462
    41  O   -0.547034
    42  C    0.124209
    43  C   -0.002574
    44  C   -0.377822
    45  C    0.160009
    46  C   -0.196450
    47  C   -0.189678
    48  C    0.325620
    49  C    0.335885
    50  C   -0.269066
    51  O   -0.528857
    52  C   -0.061134
    53  C   -0.059572
    54  O   -0.520005
    55  C   -0.236571
    56  H    0.170141
    57  H    0.168599
    58  H    0.179882
    59  H    0.129217
    60  H    0.142806
    61  H    0.165025
    62  H    0.175829
    63  H    0.211124
    64  H    0.144979
    65  H    0.180898
    66  H    0.125164
    67  H    0.133588
    68  H    0.133606
    69  H    0.188307
    70  H    0.174588
    71  H    0.163793
    72  H    0.188089
    73  H    0.151140
    74  H    0.151642
    75  H    0.164154
    76  H    0.154925
    77  H    0.147593
    78  H    0.152344
    79  H    0.160073
    80  H    0.160209
    81  H    0.156820
    82  H    0.159892
    83  H    0.135892
    84  H    0.155898
    85  H    0.151975
    86  H    0.150452
    87  H    0.150667
    88  H    0.170298
    89  H    0.151423
    90  H    0.156555
    91  H    0.172392
    92  H    0.161950
    93  H    0.163717
    94  H    0.135170
    95  H    0.153959
    96  H    0.155541
    97  H    0.156670
    98  H    0.157621
    99  H    0.158879
   100  H    0.161895
   101  H    0.171402
 Sum of Mulliken charges =  -0.00000

 Dipole moment (field-independent basis, Debye):
    X=              0.5633    Y=             -3.7651    Z=             -1.2475  Tot=              4.0062
 Quadrupole moment (field-independent basis, Debye-Ang):
   XX=           -319.8767   YY=           -327.3096   ZZ=           -254.4622
   XY=            -20.8072   XZ=            -15.9571   YZ=              4.6313

 Normal termination of Gaussian 16 at Sat Nov  5 13:29:33 2022.
