 Gaussian 16, Revision B.01,
 Gaussian 16:  ES64L-G16RevB.01 20-Dec-2017

 -----------------------------
 #p b3lyp/6-31g(d) opt SCF=XQC
 -----------------------------

 ------------------------------
 Gaussian input prepared by ASE
 ------------------------------
 Symbolic Z-matrix:
 Charge =  0 Multiplicity = 1

 SCF Done:  E(RB3LYP) =  -2490.86707706     A.U. after   15 cycles
 SCF Done:  E(RB3LYP) =  -2490.87759474     A.U. after   14 cycles
 SCF Done:  E(RB3LYP) =  -2490.87846026     A.U. after   13 cycles
 SCF Done:  E(RB3LYP) =  -2490.86197856     A.U. after   13 cycles
 SCF Done:  E(RB3LYP) =  -2490.87533084     A.U. after   13 cycles
 SCF Done:  E(RB3LYP) =  -2490.88163634     A.U. after   11 cycles
 SCF Done:  E(RB3LYP) =  -2490.88408258     A.U. after   12 cycles
 SCF Done:  E(RB3LYP) =  -2490.88578945     A.U. after   12 cycles
 SCF Done:  E(RB3LYP) =  -2490.88573411     A.U. after   12 cycles
 SCF Done:  E(RB3LYP) =  -2490.88628210     A.U. after   13 cycles
 SCF Done:  E(RB3LYP) =  -2490.88663149     A.U. after    9 cycles
 SCF Done:  E(RB3LYP) =  -2490.88663272     A.U. after    9 cycles
 SCF Done:  E(RB3LYP) =  -2490.88663388     A.U. after    9 cycles
 SCF Done:  E(RB3LYP) =  -2490.88663464     A.U. after    9 cycles
 SCF Done:  E(RB3LYP) =  -2490.88663563     A.U. after    9 cycles
 SCF Done:  E(RB3LYP) =  -2490.88663623     A.U. after    9 cycles
 SCF Done:  E(RB3LYP) =  -2490.88663665     A.U. after    7 cycles
 SCF Done:  E(RB3LYP) =  -2490.88663695     A.U. after    7 cycles
 SCF Done:  E(RB3LYP) =  -2490.88663705     A.U. after    7 cycles
 SCF Done:  E(RB3LYP) =  -2490.88663707     A.U. after    6 cycles
 Optimization completed.
    -- Stationary point found.

                         Standard orientation:
 ---------------------------------------------------------------------
 Center     Atomic      Atomic             Coordinates (Angstroms)
 Number     Number       Type             X           Y           Z
 ---------------------------------------------------------------------
      1          6           0       -2.369569    6.740587   -0.275446
      2          6           0       -1.312549    5.649721   -0.190939
      3          8           0       -0.231644    5.877954    0.332178
      4          6           0       -1.621741    4.296841   -0.756537
      5          6           0       -2.860388    3.979468   -1.330397
      6          6           0       -3.091206    2.696052   -1.828872
      7          6           0       -2.091400    1.728267   -1.759915
      8          6           0       -0.840965    2.026702   -1.197389
      9          6           0        0.260846    0.985933   -1.177469
     10          7           0       -0.014337   -0.174226   -0.299568
     11          6           0        0.182560   -1.425592   -0.860214
     12          8           0        0.506321   -1.534996   -2.044787
     13          7           0        0.124628   -2.597730   -0.052230
     14          6           0        0.889300   -3.714573   -0.670611
     15          6           0        2.384746   -3.526381   -0.492041
     16          6           0        2.985038   -3.825719    0.741102
     17          6           0        4.345473   -3.603678    0.948004
     18          6           0        5.126696   -3.068186   -0.076453
     19          6           0        4.550537   -2.777912   -1.321219
     20          6           0        5.337907   -2.194226   -2.457991
     21          6           0        6.735320   -1.666655   -2.175804
     22          8           0        4.856877   -2.118780   -3.577637
     23          6           0        3.181736   -3.020028   -1.519451
     24          6           0       -1.004621   -3.032671    0.805225
     25          6           0       -2.296539   -3.494912    0.071882
     26          6           0       -3.191694   -2.513647   -0.655886
     27          6           0       -2.959255   -2.150359   -1.991691
     28          6           0       -3.842003   -1.306055   -2.664492
     29          6           0       -4.974533   -0.807217   -2.019761
     30          6           0       -5.234622   -1.189861   -0.694161
     31          6           0       -4.347749   -2.034020   -0.029099
     32          8           0       -6.353970   -0.758009   -0.020154
     33          6           0       -7.367372   -0.236939   -0.878887
     34          6           0       -6.754544    0.723768   -1.884961
     35          8           0       -5.808451    0.042840   -2.710878
     36          6           0       -1.146063   -2.071028    1.981677
     37          8           0       -2.262889   -2.361732    2.821107
     38          6           0       -2.450079   -1.187937    3.639841
     39          6           0       -1.828436   -1.394243    5.018763
     40          6           0       -3.940422   -0.874286    3.700208
     41          8           0       -1.737686   -0.121747    2.979766
     42          6           0       -1.360030   -0.601869    1.687060
     43          6           0       -0.143480    0.138495    1.134324
     44          6           0        1.160932   -0.043408    1.952756
     45          6           0        2.232762    0.982677    1.642522
     46          6           0        2.069487    2.326261    2.018648
     47          6           0        3.033382    3.280516    1.705473
     48          6           0        4.195216    2.908341    1.027480
     49          6           0        4.388886    1.562268    0.678816
     50          6           0        3.406683    0.615332    0.977189
     51          8           0        5.532298    1.138834    0.035570
     52          6           0        6.598695    2.088302    0.068837
     53          6           0        6.074692    3.479065   -0.250375
     54          8           0        5.123594    3.879670    0.733482
     55          6           0       -0.621722    3.311099   -0.700032
     56          1           0       -2.649618    6.940310   -1.316622
     57          1           0       -3.282073    6.447871    0.257780
     58          1           0       -1.967494    7.651027    0.172162
     59          1           0       -3.646301    4.726163   -1.391497
     60          1           0       -4.045971    2.447461   -2.284510
     61          1           0       -2.277385    0.731309   -2.146732
     62          1           0        1.197931    1.452618   -0.856120
     63          1           0        0.419912    0.579760   -2.175786
     64          1           0        0.581173   -4.632058   -0.162443
     65          1           0        0.641695   -3.813531   -1.729668
     66          1           0        2.378564   -4.233126    1.547632
     67          1           0        4.796681   -3.843127    1.907101
     68          1           0        6.181827   -2.884125    0.098750
     69          1           0        6.691370   -0.889107   -1.403794
     70          1           0        7.144754   -1.251520   -3.098548
     71          1           0        7.399673   -2.460110   -1.813081
     72          1           0        2.745193   -2.772117   -2.480270
     73          1           0       -0.641853   -3.958575    1.263464
     74          1           0       -1.974204   -4.267178   -0.638465
     75          1           0       -2.893154   -4.010201    0.832928
     76          1           0       -2.075963   -2.513888   -2.508484
     77          1           0       -3.666748   -1.017412   -3.696848
     78          1           0       -4.583526   -2.324863    0.989552
     79          1           0       -7.871624   -1.060060   -1.404326
     80          1           0       -8.089043    0.270633   -0.233453
     81          1           0       -6.258496    1.548708   -1.354758
     82          1           0       -7.511406    1.134428   -2.558701
     83          1           0       -0.220894   -2.168589    2.567515
     84          1           0       -1.872045   -0.464240    5.594366
     85          1           0       -0.780074   -1.691794    4.923304
     86          1           0       -2.367462   -2.173606    5.566706
     87          1           0       -4.492442   -1.731998    4.098470
     88          1           0       -4.321259   -0.642432    2.702351
     89          1           0       -4.116506   -0.012249    4.351295
     90          1           0       -2.186317   -0.465045    0.978390
     91          1           0       -0.409442    1.198888    1.170599
     92          1           0        0.877436    0.031704    3.010420
     93          1           0        1.559488   -1.048487    1.789742
     94          1           0        1.174575    2.634362    2.553675
     95          1           0        2.901782    4.324708    1.971676
     96          1           0        3.584404   -0.415052    0.682668
     97          1           0        7.329580    1.756919   -0.673687
     98          1           0        7.068627    2.085487    1.062326
     99          1           0        6.876510    4.221859   -0.226583
    100          1           0        5.609291    3.484207   -1.245939
    101          1           0        0.333732    3.577715   -0.257433
 ---------------------------------------------------------------------

 The electronic state is 1-A.
 Alpha  occ. eigenvalues --  -19.18515 -19.18344 -19.17991 -19.17606 -19.15718
 Alpha  occ. eigenvalues --  -19.15272 -19.12993 -19.12542 -19.10321 -14.35861
 Alpha  occ. eigenvalues --  -14.35357 -10.30618 -10.29167 -10.27134 -10.26673
 Alpha  occ. eigenvalues --  -10.25612 -10.25551 -10.25061 -10.24868 -10.24720
 Alpha  occ. eigenvalues --  -10.24664 -10.24157 -10.23989 -10.23958 -10.23923
 Alpha  occ. eigenvalues --  -10.23446 -10.22863 -10.21837 -10.20850 -10.19901
 Alpha  occ. eigenvalues --  -10.19785 -10.19764 -10.19689 -10.19573 -10.19568
 Alpha  occ. eigenvalues --  -10.19523 -10.19394 -10.19385 -10.19342 -10.19251
 Alpha  occ. eigenvalues --  -10.19095 -10.18888 -10.18847 -10.18832 -10.18633
 Alpha  occ. eigenvalues --  -10.18595 -10.18549 -10.18502 -10.18334 -10.18224
 Alpha  occ. eigenvalues --  -10.18057 -10.18022 -10.17902 -10.17862 -10.17632
 Alpha  occ. eigenvalues --   -1.08835  -1.08645  -1.08204  -1.05264  -1.04621
 Alpha  occ. eigenvalues --   -1.03872  -1.02913  -1.02490  -0.99248  -0.93069
 Alpha  occ. eigenvalues --   -0.91979  -0.85956  -0.85846  -0.85635  -0.85143
 Alpha  occ. eigenvalues --   -0.81798  -0.79526  -0.78698  -0.77910  -0.77636
 Alpha  occ. eigenvalues --   -0.76408  -0.75973  -0.75638  -0.75367  -0.74610
 Alpha  occ. eigenvalues --   -0.74361  -0.73007  -0.72746  -0.72390  -0.71539
 Alpha  occ. eigenvalues --   -0.69897  -0.69695  -0.68808  -0.67874  -0.66614
 Alpha  occ. eigenvalues --   -0.66052  -0.64908  -0.63475  -0.62439  -0.62295
 Alpha  occ. eigenvalues --   -0.61422  -0.60858  -0.59632  -0.59268  -0.59054
 Alpha  occ. eigenvalues --   -0.57873  -0.56563  -0.56373  -0.54704  -0.54000
 Alpha  occ. eigenvalues --   -0.53837  -0.53467  -0.52824  -0.51925  -0.51711
 Alpha  occ. eigenvalues --   -0.51441  -0.51038  -0.50577  -0.50558  -0.50490
 Alpha  occ. eigenvalues --   -0.49092  -0.48581  -0.48173  -0.47615  -0.46913
 Alpha  occ. eigenvalues --   -0.46506  -0.46076  -0.45745  -0.45371  -0.45227
 Alpha  occ. eigenvalues --   -0.45191  -0.44960  -0.44780  -0.44646  -0.44317
 Alpha  occ. eigenvalues --   -0.43987  -0.43906  -0.43881  -0.43660  -0.43552
 Alpha  occ. eigenvalues --   -0.43454  -0.43290  -0.43049  -0.42672  -0.42441
 Alpha  occ. eigenvalues --   -0.41924  -0.41787  -0.41583  -0.41053  -0.40810
 Alpha  occ. eigenvalues --   -0.40681  -0.40262  -0.39751  -0.39675  -0.39479
 Alpha  occ. eigenvalues --   -0.39234  -0.39199  -0.39055  -0.38853  -0.38635
 Alpha  occ. eigenvalues --   -0.38470  -0.38465  -0.38105  -0.37679  -0.37560
 Alpha  occ. eigenvalues --   -0.37081  -0.36807  -0.36660  -0.36383  -0.36332
 Alpha  occ. eigenvalues --   -0.35695  -0.35184  -0.35029  -0.34857  -0.34746
 Alpha  occ. eigenvalues --   -0.34382  -0.34186  -0.34080  -0.33985  -0.33972
 Alpha  occ. eigenvalues --   -0.33641  -0.33321  -0.32951  -0.32106  -0.31005
 Alpha  occ. eigenvalues --   -0.30605  -0.30587  -0.29975  -0.26929  -0.26369
 Alpha  occ. eigenvalues --   -0.25537  -0.25423  -0.25354  -0.25138  -0.24732
 Alpha  occ. eigenvalues --   -0.24311  -0.23824  -0.23691  -0.23526  -0.22922
 Alpha  occ. eigenvalues --   -0.22587  -0.20911  -0.20259
 Alpha virt. eigenvalues --   -0.05034  -0.04646  -0.00655  -0.00543  -0.00188
 Alpha virt. eigenvalues --    0.00755   0.00944   0.01523   0.03518   0.03998
 Alpha virt. eigenvalues --    0.04188   0.06861   0.07642   0.07814   0.08662

 Mulliken charges:
               1
     1  C   -0.542953
     2  C    0.407381
     3  O   -0.455125
     4  C    0.083190
     5  C   -0.185915
     6  C   -0.151501
     7  C   -0.164154
     8  C    0.150205
     9  C   -0.246186
    10  N   -0.467349
    11  C    0.789705
    12  O   -0.547347
    13  N   -0.494536
    14  C   -0.226143
    15  C    0.161768
    16  C   -0.166913
    17  C   -0.135545
    18  C   -0.179504
    19  C    0.076641
    20  C    0.412068
    21  C   -0.556632
    22  O   -0.448793
    23  C   -0.208054
    24  C   -0.019933
    25  C   -0.360268
    26  C    0.165521
    27  C   -0.199526
    28  C   -0.212031
    29  C    0.339440
    30  C    0.340501
    31  C   -0.268107
    32  O   -0.524613
    33  C   -0.062260
    34  C   -0.060209
    35  O   -0.527985
    36  C    0.140449
    37  O   -0.549187
    38  C    0.547265
    39  C   -0.453685
    40  C   -0.463454
    41  O   -0.547047
    42  C    0.124206
    43  C   -0.002543
    44  C   -0.377830
    45  C    0.160019
    46  C   -0.196437
    47  C   -0.189677
    48  C    0.325603
    49  C    0.335888
    50  C   -0.269088
    51  O   -0.528845
    52  C   -0.061123
    53  C   -0.059558
    54  O   -0.520005
    55  C   -0.236554
    56  H    0.170140
    57  H    0.168599
    58  H    0.179882
    59  H    0.129217
    60  H    0.142809
    61  H    0.165016
    62  H    0.175832
    63  H    0.211126
    64  H    0.144979
    65  H    0.180897
    66  H    0.125167
    67  H    0.133586
    68  H    0.133606
    69  H    0.188305
    70  H    0.174588
    71  H    0.163794
    72  H    0.188088
    73  H    0.151138
    74  H    0.151641
    75  H    0.164154
    76  H    0.154927
    77  H    0.147593
    78  H    0.152352
    79  H    0.160073
    80  H    0.160209
    81  H    0.156822
    82  H    0.159894
    83  H    0.135898
    84  H    0.155894
    85  H    0.151973
    86  H    0.150448
    87  H    0.150668
    88  H    0.170289
    89  H    0.151423
    90  H    0.156566
    91  H    0.172391
    92  H    0.161950
    93  H    0.163713
    94  H    0.135159
    95  H    0.153957
    96  H    0.155546
    97  H    0.156668
    98  H    0.157619
    99  H    0.158877
   100  H    0.161888
   101  H    0.171402
 Sum of Mulliken charges =  -0.00000

 Dipole moment (field-independent basis, Debye):
    X=             -2.6062    Y=             -0.2753    Z=              3.0303  Tot=              4.0063
 Quadrupole moment (field-independent basis, Debye-Ang):
   XX=           -254.5973   YY=           -315.1406   ZZ=           -330.8708
   XY=            -11.0101   XZ=             12.2248   YZ=            -20.0560

 Normal termination of Gaussian 16 at Fri Nov  4 23:42:13 2022.
