 Gaussian 16, Revision B.01,
 Gaussian 16:  ES64L-G16RevB.01 20-Dec-2017

 -----------------------------
 #p b3lyp/6-31g(d) opt SCF=XQC
 -----------------------------

 ------------------------------
 Gaussian input prepared by ASE
 ------------------------------
 Symbolic Z-matrix:
 Charge =  0 Multiplicity = 1

 SCF Done:  E(RB3LYP) =  -856.972570012     A.U. after   17 cycles
 SCF Done:  E(RB3LYP) =  -856.975795772     A.U. after   12 cycles
 SCF Done:  E(RB3LYP) =  -856.975992570     A.U. after   11 cycles
 SCF Done:  E(RB3LYP) =  -856.976398501     A.U. after   12 cycles
 SCF Done:  E(RB3LYP) =  -856.976473457     A.U. after   13 cycles
 SCF Done:  E(RB3LYP) =  -856.976780446     A.U. after   11 cycles
 SCF Done:  E(RB3LYP) =  -856.977113497     A.U. after   12 cycles
 SCF Done:  E(RB3LYP) =  -856.977135214     A.U. after   10 cycles
 SCF Done:  E(RB3LYP) =  -856.977143300     A.U. after   12 cycles
 SCF Done:  E(RB3LYP) =  -856.977147896     A.U. after    9 cycles
 SCF Done:  E(RB3LYP) =  -856.977149956     A.U. after    9 cycles
 SCF Done:  E(RB3LYP) =  -856.977151097     A.U. after    9 cycles
 SCF Done:  E(RB3LYP) =  -856.977151270     A.U. after    8 cycles
 SCF Done:  E(RB3LYP) =  -856.977151396     A.U. after    8 cycles
 SCF Done:  E(RB3LYP) =  -856.977151514     A.U. after    8 cycles
 SCF Done:  E(RB3LYP) =  -856.977151544     A.U. after    7 cycles
 Optimization completed.
    -- Stationary point found.

                         Standard orientation:
 ---------------------------------------------------------------------
 Center     Atomic      Atomic             Coordinates (Angstroms)
 Number     Number       Type             X           Y           Z
 ---------------------------------------------------------------------
      1          6           0        3.656283    2.209064    0.021227
      2          6           0        3.058243    0.825282    0.012200
      3          7           0        3.999475   -0.130686    0.031919
      4          7           0        3.741076   -1.481887   -0.162268
      5          6           0        2.420994   -1.969890   -0.005829
      6          8           0        2.282336   -3.180974    0.101014
      7          6           0        1.375875   -0.958960   -0.024171
      8          6           0        0.064234   -1.412308   -0.009461
      9          6           0       -0.979338   -0.492437   -0.004881
     10          6           0       -0.692867    0.940126   -0.002895
     11          7           0       -1.818524    1.697637   -0.000906
     12          6           0       -2.839801    0.798226   -0.001582
     13          6           0       -4.227242    1.080568   -0.000376
     14          6           0       -5.115730    0.024237   -0.001610
     15          6           0       -4.673893   -1.328966   -0.004026
     16          6           0       -3.326940   -1.635226   -0.005366
     17          6           0       -2.394020   -0.577204   -0.003988
     18          6           0        0.622023    1.431521    0.002341
     19          6           0        0.761058    2.935792    0.018535
     20          6           0        1.688296    0.473650   -0.007171
     21          1           0        3.396378    2.759813   -0.886192
     22          1           0        3.300542    2.790013    0.873652
     23          1           0        4.748380    2.159518    0.085880
     24          1           0        4.955663    0.126709   -0.177462
     25          1           0        4.439881   -2.083579    0.263551
     26          1           0       -0.105905   -2.484668   -0.007930
     27          1           0       -4.566886    2.112132    0.001289
     28          1           0       -6.184763    0.223888   -0.000826
     29          1           0       -5.412095   -2.126411   -0.004855
     30          1           0       -2.993621   -2.670535   -0.007307
     31          1           0       -0.244310    3.359198   -0.013632
     32          1           0        1.250494    3.304371    0.928041
     33          1           0        1.320326    3.321039   -0.841218
 ---------------------------------------------------------------------

 The electronic state is 1-A.
 Alpha  occ. eigenvalues --  -19.12326 -14.46787 -14.42581 -14.27944 -10.30301
 Alpha  occ. eigenvalues --  -10.30222 -10.23854 -10.22465 -10.21434 -10.20041
 Alpha  occ. eigenvalues --  -10.19652 -10.19153 -10.18770 -10.18301 -10.17780
 Alpha  occ. eigenvalues --  -10.17259 -10.17183 -10.16724 -10.16577 -10.16280
 Alpha  occ. eigenvalues --   -1.08780  -1.03079  -0.92478  -0.90422  -0.85421
 Alpha  occ. eigenvalues --   -0.81427  -0.79387  -0.77534  -0.76111  -0.72820
 Alpha  occ. eigenvalues --   -0.70319  -0.69388  -0.67226  -0.64265  -0.61994
 Alpha  occ. eigenvalues --   -0.60548  -0.56774  -0.55606  -0.54935  -0.52869
 Alpha  occ. eigenvalues --   -0.50736  -0.49339  -0.48345  -0.46247  -0.45959
 Alpha  occ. eigenvalues --   -0.45060  -0.44383  -0.43278  -0.42700  -0.42401
 Alpha  occ. eigenvalues --   -0.41691  -0.40839  -0.39867  -0.39277  -0.38724
 Alpha  occ. eigenvalues --   -0.38350  -0.36839  -0.35016  -0.34781  -0.33014
 Alpha  occ. eigenvalues --   -0.31790  -0.30595  -0.28583  -0.26956  -0.26089
 Alpha  occ. eigenvalues --   -0.23819  -0.23401  -0.20377  -0.17053
 Alpha virt. eigenvalues --   -0.08944  -0.03161   0.00048   0.01913   0.03781
 Alpha virt. eigenvalues --    0.06047   0.06455   0.08261   0.09713   0.10574
 Alpha virt. eigenvalues --    0.11944   0.12081   0.13939   0.14518   0.16199

 Mulliken charges:
               1
     1  C   -0.538689
     2  C    0.339381
     3  N   -0.473853
     4  N   -0.468163
     5  C    0.529964
     6  O   -0.516220
     7  C    0.036064
     8  C   -0.256324
     9  C    0.099941
    10  C    0.203092
    11  N   -0.642802
    12  C    0.277839
    13  C   -0.179809
    14  C   -0.133665
    15  C   -0.155253
    16  C   -0.174653
    17  C    0.042210
    18  C    0.070463
    19  C   -0.556514
    20  C    0.033981
    21  H    0.205743
    22  H    0.207861
    23  H    0.157892
    24  H    0.359564
    25  H    0.352923
    26  H    0.166448
    27  H    0.126977
    28  H    0.119939
    29  H    0.118572
    30  H    0.124678
    31  H    0.223328
    32  H    0.150946
    33  H    0.148139
 Sum of Mulliken charges =  -0.00000

 Dipole moment (field-independent basis, Debye):
    X=              9.2410    Y=              2.6028    Z=              0.2262  Tot=              9.6032
 Quadrupole moment (field-independent basis, Debye-Ang):
   XX=            -74.7109   YY=           -120.5565   ZZ=           -117.5029
   XY=             14.6638   XZ=              1.1755   YZ=             -0.7341

 Normal termination of Gaussian 16 at Fri Nov  4 20:37:06 2022.
