 Gaussian 16, Revision B.01,
 Gaussian 16:  ES64L-G16RevB.01 20-Dec-2017

 -------------------------------------------------------------------
 #p b3lyp/6-31g(d) 6D 10F nosymm GFInput td=(50-50,nstate=2) SCF=XQC
 -------------------------------------------------------------------

 ------------------------------
 Gaussian input prepared by ASE
 ------------------------------
 Symbolic Z-matrix:
 Charge =  0 Multiplicity = 1

                          Input orientation:
 ---------------------------------------------------------------------
 Center     Atomic      Atomic             Coordinates (Angstroms)
 Number     Number       Type             X           Y           Z
 ---------------------------------------------------------------------
      1          6           0        3.922880    1.077082   -0.341288
      2          6           0        3.038382   -0.143235   -0.308469
      3          7           0        3.744271   -1.280093   -0.405699
      4          7           0        3.177721   -2.534758   -0.592948
      5          6           0        1.805631   -2.731612   -0.303375
      6          8           0        1.416518   -3.887326   -0.201981
      7          6           0        1.011113   -1.518730   -0.192706
      8          6           0       -0.359567   -1.678019   -0.044364
      9          6           0       -1.170213   -0.555206    0.087442
     10          6           0       -0.578088    0.780332    0.081937
     11          7           0       -1.504232    1.762600    0.217354
     12          6           0       -2.692451    1.105984    0.311896
     13          6           0       -3.976840    1.681322    0.466955
     14          6           0       -5.070643    0.842937    0.544101
     15          6           0       -4.938666   -0.572614    0.472120
     16          6           0       -3.698822   -1.162527    0.320895
     17          6           0       -2.561516   -0.332103    0.239139
     18          6           0        0.806106    0.975250   -0.046307
     19          6           0        1.272313    2.412057   -0.020658
     20          6           0        1.629954   -0.189347   -0.186077
     21          1           0        3.699320    1.706295   -1.206387
     22          1           0        3.791434    1.687165    0.553812
     23          1           0        4.978359    0.790106   -0.395313
     24          1           0        4.707330   -1.227457   -0.712510
     25          1           0        3.767183   -3.289585   -0.254637
     26          1           0       -0.759512   -2.687446   -0.042009
     27          1           0       -4.080208    2.761032    0.521955
     28          1           0       -6.064211    1.268786    0.663139
     29          1           0       -5.829858   -1.190947    0.537719
     30          1           0       -3.602440   -2.244513    0.266240
     31          1           0        0.386219    3.043728    0.062420
     32          1           0        1.920284    2.629999    0.836800
     33          1           0        1.812251    2.700844   -0.929196
 ---------------------------------------------------------------------

 SCF Done:  E(RB3LYP) =  -856.977150089     A.U. after   18 cycles

 Excitation energies and oscillator strengths:

 Excited state symmetry could not be determined.
 Excited State   1:      Triplet-?Sym    1.0008 eV 1238.82 nm  f=0.0000  <S**2>=2.000
      69 -> 70         0.70593
      69 <- 70         0.12860
 This state for optimization and/or second-order correction.
 Total Energy, E(TD-HF/TD-DFT) =  -856.940370350
 Copying the excited state density for this state as the 1-particle RhoCI density.

 Excited state symmetry could not be determined.
 Excited State   2:      Singlet-?Sym    1.7506 eV  708.23 nm  f=0.0338  <S**2>=0.000
      69 -> 70         0.69729

 Excited state symmetry could not be determined.
 Excited State   3:      Triplet-?Sym    1.9533 eV  634.76 nm  f=0.0000  <S**2>=2.000
      68 -> 70         0.70037

 Excited state symmetry could not be determined.
 Excited State   4:      Singlet-?Sym    2.7606 eV  449.12 nm  f=0.1106  <S**2>=0.000
      68 -> 70         0.58050
      69 -> 71        -0.39185

 Alpha  occ. eigenvalues --  -19.12326 -14.46787 -14.42581 -14.27944 -10.30301
 Alpha  occ. eigenvalues --  -10.30222 -10.23854 -10.22465 -10.21434 -10.20041
 Alpha  occ. eigenvalues --  -10.19652 -10.19153 -10.18770 -10.18301 -10.17780
 Alpha  occ. eigenvalues --  -10.17259 -10.17183 -10.16724 -10.16577 -10.16280
 Alpha  occ. eigenvalues --   -1.08780  -1.03079  -0.92478  -0.90422  -0.85422
 Alpha  occ. eigenvalues --   -0.81427  -0.79387  -0.77534  -0.76111  -0.72820
 Alpha  occ. eigenvalues --   -0.70319  -0.69388  -0.67226  -0.64265  -0.61994
 Alpha  occ. eigenvalues --   -0.60548  -0.56774  -0.55606  -0.54935  -0.52869
 Alpha  occ. eigenvalues --   -0.50736  -0.49339  -0.48345  -0.46247  -0.45959
 Alpha  occ. eigenvalues --   -0.45060  -0.44383  -0.43278  -0.42700  -0.42401
 Alpha  occ. eigenvalues --   -0.41691  -0.40839  -0.39867  -0.39277  -0.38724
 Alpha  occ. eigenvalues --   -0.38350  -0.36839  -0.35016  -0.34781  -0.33014
 Alpha  occ. eigenvalues --   -0.31790  -0.30595  -0.28583  -0.26956  -0.26089
 Alpha  occ. eigenvalues --   -0.23819  -0.23401  -0.20377  -0.17053
 Alpha virt. eigenvalues --   -0.08944  -0.03161   0.00048   0.01913   0.03781
 Alpha virt. eigenvalues --    0.06047   0.06455   0.08261   0.09713   0.10574
 Alpha virt. eigenvalues --    0.11944   0.12081   0.13939   0.14518   0.16199

 Mulliken charges:
               1
     1  C   -0.538685
     2  C    0.339365
     3  N   -0.473836
     4  N   -0.468169
     5  C    0.529969
     6  O   -0.516218
     7  C    0.036031
     8  C   -0.256320
     9  C    0.099935
    10  C    0.203092
    11  N   -0.642801
    12  C    0.277816
    13  C   -0.179797
    14  C   -0.133662
    15  C   -0.155268
    16  C   -0.174645
    17  C    0.042226
    18  C    0.070464
    19  C   -0.556525
    20  C    0.034020
    21  H    0.205741
    22  H    0.207861
    23  H    0.157891
    24  H    0.359563
    25  H    0.352923
    26  H    0.166447
    27  H    0.126976
    28  H    0.119939
    29  H    0.118574
    30  H    0.124678
    31  H    0.223328
    32  H    0.150947
    33  H    0.148140
 Sum of Mulliken charges =  -0.00000

 Dipole moment (field-independent basis, Debye):
    X=              9.5608    Y=              0.5325    Z=             -0.7269  Tot=              9.6032
 Quadrupole moment (field-independent basis, Debye-Ang):
   XX=            -73.0484   YY=           -124.8232   ZZ=           -117.3277
   XY=              0.6196   XZ=             -3.5993   YZ=             -1.3973

 Normal termination of Gaussian 16 at Sat Nov  5 12:11:15 2022.
