 Gaussian 16, Revision B.01,
 Gaussian 16:  ES64L-G16RevB.01 20-Dec-2017

 -------------------------------------------------------------------
 #p b3lyp/6-31g(d) 6D 10F nosymm GFInput td=(50-50,nstate=2) SCF=XQC
 -------------------------------------------------------------------

 ------------------------------
 Gaussian input prepared by ASE
 ------------------------------
 Symbolic Z-matrix:
 Charge =  0 Multiplicity = 1

                          Input orientation:
 ---------------------------------------------------------------------
 Center     Atomic      Atomic             Coordinates (Angstroms)
 Number     Number       Type             X           Y           Z
 ---------------------------------------------------------------------
      1          6           0        5.874658    3.372125   -0.122371
      2          8           0        6.828069    2.337012   -0.291332
      3          6           0        6.381281    1.048005   -0.369313
      4          6           0        7.371982    0.069071   -0.536319
      5          6           0        6.997855   -1.265740   -0.624248
      6          6           0        5.660004   -1.663771   -0.551090
      7          6           0        4.677853   -0.680518   -0.384395
      8          7           0        3.303807   -0.970084   -0.298686
      9          6           0        2.669779   -2.178719   -0.354375
     10          8           0        3.204884   -3.275719   -0.495300
     11          6           0        1.173908   -2.070332   -0.224030
     12          6           0        0.384959   -3.237056   -0.263890
     13          6           0       -0.970599   -3.084763   -0.140929
     14          6           0       -1.478636   -1.767104    0.017042
     15          7           0       -2.833884   -1.596949    0.141605
     16          6           0       -3.636245   -0.448223    0.308189
     17          6           0       -3.152760    0.862907    0.385337
     18          6           0       -4.063846    1.906477    0.551353
     19          6           0       -5.442546    1.703414    0.644680
     20          6           0       -6.383502    2.870491    0.824165
     21          6           0       -5.926892    0.379310    0.566502
     22          6           0       -7.406155    0.087993    0.659971
     23          6           0       -5.021719   -0.666719    0.400730
     24          7           0       -0.669870   -0.690036    0.047329
     25          7           0        0.641770   -0.860664   -0.073726
     26          6           0        5.038398    0.677247   -0.293336
     27          1           0        5.168477    3.413761   -0.962663
     28          1           0        5.312464    3.256356    0.814138
     29          1           0        6.445131    4.302189   -0.086207
     30          1           0        8.410076    0.379488   -0.592944
     31          1           0        7.764844   -2.024798   -0.753644
     32          1           0        5.374368   -2.703327   -0.620030
     33          1           0        2.667889   -0.186571   -0.177739
     34          1           0        0.865740   -4.200720   -0.388228
     35          1           0       -1.644748   -3.937708   -0.162202
     36          1           0       -3.361874   -2.458372    0.107726
     37          1           0       -2.091825    1.053035    0.316526
     38          1           0       -3.677825    2.921785    0.610107
     39          1           0       -5.833101    3.815543    0.860860
     40          1           0       -6.965198    2.789160    1.752094
     41          1           0       -7.110060    2.941308    0.003768
     42          1           0       -7.828357    0.439932    1.610061
     43          1           0       -7.968236    0.589673   -0.138317
     44          1           0       -7.606805   -0.985132    0.584060
     45          1           0       -5.403989   -1.685539    0.341392
     46          1           0        4.260476    1.422281   -0.164298
 ---------------------------------------------------------------------

 SCF Done:  E(RB3LYP) =  -1143.62500771     A.U. after   16 cycles

 Excitation energies and oscillator strengths:

 Excited state symmetry could not be determined.
 Excited State   1:      Triplet-?Sym    2.7720 eV  447.27 nm  f=0.0000  <S**2>=2.000
      86 -> 93        -0.19931
      91 -> 93        -0.35307
      92 -> 93         0.55265
 This state for optimization and/or second-order correction.
 Total Energy, E(TD-HF/TD-DFT) =  -1143.52313709
 Copying the excited state density for this state as the 1-particle RhoCI density.

 Excited state symmetry could not be determined.
 Excited State   2:      Triplet-?Sym    2.9628 eV  418.47 nm  f=0.0000  <S**2>=2.000
      88 -> 93         0.67481
      88 -> 94        -0.17233

 Excited state symmetry could not be determined.
 Excited State   3:      Singlet-?Sym    3.3164 eV  373.85 nm  f=0.0703  <S**2>=0.000
      92 -> 93         0.69640

 Excited state symmetry could not be determined.
 Excited State   4:      Singlet-?Sym    3.5180 eV  352.42 nm  f=0.0119  <S**2>=0.000
      91 -> 93         0.68339
      91 -> 94        -0.11600

 Alpha  occ. eigenvalues --  -19.17332 -19.11886 -14.39035 -14.38165 -14.36816
 Alpha  occ. eigenvalues --  -14.36782 -10.29355 -10.28716 -10.24241 -10.23884
 Alpha  occ. eigenvalues --  -10.23818 -10.23651 -10.23082 -10.22827 -10.22466
 Alpha  occ. eigenvalues --  -10.19972 -10.19244 -10.19199 -10.18909 -10.18622
 Alpha  occ. eigenvalues --  -10.18497 -10.18317 -10.18219 -10.18039 -10.17307
 Alpha  occ. eigenvalues --  -10.16869  -1.05913  -1.04069  -1.02815  -0.97111
 Alpha  occ. eigenvalues --   -0.93782  -0.86127  -0.84319  -0.83151  -0.82291
 Alpha  occ. eigenvalues --   -0.77344  -0.76345  -0.74956  -0.74083  -0.70702
 Alpha  occ. eigenvalues --   -0.69486  -0.68921  -0.67873  -0.65502  -0.62923
 Alpha  occ. eigenvalues --   -0.60729  -0.60407  -0.58933  -0.56703  -0.55158
 Alpha  occ. eigenvalues --   -0.54553  -0.53468  -0.52422  -0.50536  -0.48437
 Alpha  occ. eigenvalues --   -0.47718  -0.46886  -0.46481  -0.46467  -0.46321
 Alpha  occ. eigenvalues --   -0.45880  -0.44087  -0.43624  -0.43372  -0.42796
 Alpha  occ. eigenvalues --   -0.42654  -0.42484  -0.41027  -0.40758  -0.40431
 Alpha  occ. eigenvalues --   -0.40204  -0.39119  -0.39105  -0.38491  -0.37053
 Alpha  occ. eigenvalues --   -0.36773  -0.35682  -0.35152  -0.34414  -0.33785
 Alpha  occ. eigenvalues --   -0.33072  -0.32876  -0.32796  -0.31097  -0.28518
 Alpha  occ. eigenvalues --   -0.27249  -0.25489  -0.24498  -0.24459  -0.22668
 Alpha  occ. eigenvalues --   -0.20935  -0.20090
 Alpha virt. eigenvalues --   -0.05976  -0.04709   0.00157   0.00426   0.01682
 Alpha virt. eigenvalues --    0.02628   0.05683   0.07138   0.08891   0.09164
 Alpha virt. eigenvalues --    0.10458   0.10786   0.11133   0.12190   0.12886

 Mulliken charges:
               1
     1  C   -0.213595
     2  O   -0.510780
     3  C    0.381397
     4  C   -0.170410
     5  C   -0.148701
     6  C   -0.170510
     7  C    0.373342
     8  N   -0.751465
     9  C    0.602498
    10  O   -0.528403
    11  C    0.255495
    12  C   -0.122858
    13  C   -0.181341
    14  C    0.602414
    15  N   -0.784907
    16  C    0.369729
    17  C   -0.153424
    18  C   -0.206057
    19  C    0.138771
    20  C   -0.534321
    21  C    0.135440
    22  C   -0.534365
    23  C   -0.271876
    24  N   -0.376128
    25  N   -0.361418
    26  C   -0.285153
    27  H    0.151359
    28  H    0.151359
    29  H    0.169217
    30  H    0.133263
    31  H    0.131716
    32  H    0.177783
    33  H    0.361836
    34  H    0.185917
    35  H    0.150567
    36  H    0.334293
    37  H    0.184277
    38  H    0.125321
    39  H    0.156525
    40  H    0.158009
    41  H    0.157946
    42  H    0.162546
    43  H    0.162600
    44  H    0.152160
    45  H    0.110436
    46  H    0.129495
 Sum of Mulliken charges =  -0.00000

 Dipole moment (field-independent basis, Debye):
    X=             -5.6754    Y=              0.3474    Z=              0.4892  Tot=              5.7071
 Quadrupole moment (field-independent basis, Debye-Ang):
   XX=           -145.4315   YY=           -134.5544   ZZ=           -155.2555
   XY=             18.0216   XZ=              0.4995   YZ=              0.3990

 Normal termination of Gaussian 16 at Sat Nov  5 12:10:57 2022.
