 Gaussian 16, Revision B.01,
 Gaussian 16:  ES64L-G16RevB.01 20-Dec-2017

 -----------------------------
 #p b3lyp/6-31g(d) opt SCF=XQC
 -----------------------------

 ------------------------------
 Gaussian input prepared by ASE
 ------------------------------
 Symbolic Z-matrix:
 Charge =  0 Multiplicity = 1

 SCF Done:  E(RB3LYP) =  -1143.61913092     A.U. after   16 cycles
 SCF Done:  E(RB3LYP) =  -1143.62352245     A.U. after   12 cycles
 SCF Done:  E(RB3LYP) =  -1143.62486403     A.U. after   12 cycles
 SCF Done:  E(RB3LYP) =  -1143.62499811     A.U. after   11 cycles
 SCF Done:  E(RB3LYP) =  -1143.62500760     A.U. after    9 cycles
 SCF Done:  E(RB3LYP) =  -1143.62500947     A.U. after    8 cycles
 SCF Done:  E(RB3LYP) =  -1143.62500997     A.U. after    8 cycles
 Optimization completed.
    -- Stationary point found.

                         Standard orientation:
 ---------------------------------------------------------------------
 Center     Atomic      Atomic             Coordinates (Angstroms)
 Number     Number       Type             X           Y           Z
 ---------------------------------------------------------------------
      1          6           0       -5.257349    3.862725   -0.000049
      2          8           0       -6.258731    2.859612    0.000184
      3          6           0       -5.867425    1.550369    0.000151
      4          6           0       -6.903725    0.604973    0.000387
      5          6           0       -6.587283   -0.747538    0.000373
      6          6           0       -5.263439   -1.195940    0.000127
      7          6           0       -4.235522   -0.245899   -0.000109
      8          7           0       -2.870621   -0.586846   -0.000376
      9          6           0       -2.288055   -1.822365   -0.000448
     10          8           0       -2.872793   -2.902961    0.000083
     11          6           0       -0.783566   -1.768704   -0.000269
     12          6           0       -0.043871   -2.967923    0.000062
     13          6           0        1.321878   -2.865060    0.000169
     14          6           0        1.889148   -1.562183   -0.000060
     15          7           0        3.255374   -1.441389    0.000002
     16          6           0        4.110289   -0.318791   -0.000007
     17          6           0        3.683177    1.014005   -0.000147
     18          6           0        4.642474    2.027133   -0.000110
     19          6           0        6.015806    1.772738    0.000038
     20          6           0        7.010487    2.908649   -0.000043
     21          6           0        6.443214    0.426902    0.000129
     22          6           0        7.913477    0.080278    0.000448
     23          6           0        5.489737   -0.588911    0.000107
     24          7           0        1.125642   -0.452159   -0.000360
     25          7           0       -0.196882   -0.575030   -0.000446
     26          6           0       -4.537338    1.129134   -0.000094
     27          1           0       -4.622964    3.802260    0.894610
     28          1           0       -4.623314    3.802195   -0.894951
     29          1           0       -5.788435    4.816514    0.000021
     30          1           0       -7.930881    0.954479    0.000577
     31          1           0       -7.389625   -1.480634    0.000555
     32          1           0       -5.022742   -2.249071    0.000112
     33          1           0       -2.198615    0.175599   -0.000539
     34          1           0       -0.568253   -3.916755    0.000206
     35          1           0        1.960270   -3.745343    0.000417
     36          1           0        3.746855   -2.324802    0.000288
     37          1           0        2.627862    1.243735   -0.000268
     38          1           0        4.300074    3.059643   -0.000171
     39          1           0        6.499980    3.876527    0.002428
     40          1           0        7.664481    2.880824   -0.881832
     41          1           0        7.667896    2.878027    0.879064
     42          1           0        8.426327    0.492589   -0.878056
     43          1           0        8.424687    0.487610    0.882280
     44          1           0        8.067733   -1.003150   -0.002417
     45          1           0        5.828226   -1.624803    0.000138
     46          1           0       -3.724650    1.847763   -0.000275
 ---------------------------------------------------------------------

 The electronic state is 1-A.
 Alpha  occ. eigenvalues --  -19.17332 -19.11886 -14.39035 -14.38165 -14.36816
 Alpha  occ. eigenvalues --  -14.36782 -10.29355 -10.28716 -10.24241 -10.23884
 Alpha  occ. eigenvalues --  -10.23818 -10.23651 -10.23082 -10.22827 -10.22466
 Alpha  occ. eigenvalues --  -10.19972 -10.19244 -10.19199 -10.18909 -10.18622
 Alpha  occ. eigenvalues --  -10.18497 -10.18317 -10.18219 -10.18039 -10.17307
 Alpha  occ. eigenvalues --  -10.16869  -1.05913  -1.04068  -1.02815  -0.97111
 Alpha  occ. eigenvalues --   -0.93782  -0.86127  -0.84318  -0.83151  -0.82291
 Alpha  occ. eigenvalues --   -0.77344  -0.76345  -0.74956  -0.74083  -0.70702
 Alpha  occ. eigenvalues --   -0.69486  -0.68921  -0.67873  -0.65502  -0.62923
 Alpha  occ. eigenvalues --   -0.60729  -0.60407  -0.58933  -0.56703  -0.55158
 Alpha  occ. eigenvalues --   -0.54553  -0.53468  -0.52422  -0.50536  -0.48437
 Alpha  occ. eigenvalues --   -0.47718  -0.46886  -0.46481  -0.46467  -0.46321
 Alpha  occ. eigenvalues --   -0.45880  -0.44087  -0.43624  -0.43372  -0.42796
 Alpha  occ. eigenvalues --   -0.42654  -0.42484  -0.41027  -0.40758  -0.40431
 Alpha  occ. eigenvalues --   -0.40204  -0.39119  -0.39105  -0.38491  -0.37053
 Alpha  occ. eigenvalues --   -0.36773  -0.35682  -0.35152  -0.34414  -0.33785
 Alpha  occ. eigenvalues --   -0.33072  -0.32876  -0.32796  -0.31097  -0.28518
 Alpha  occ. eigenvalues --   -0.27249  -0.25489  -0.24498  -0.24459  -0.22668
 Alpha  occ. eigenvalues --   -0.20935  -0.20090
 Alpha virt. eigenvalues --   -0.05976  -0.04709   0.00157   0.00426   0.01682
 Alpha virt. eigenvalues --    0.02628   0.05683   0.07138   0.08891   0.09165
 Alpha virt. eigenvalues --    0.10458   0.10786   0.11133   0.12190   0.12886

 Mulliken charges:
               1
     1  C   -0.213599
     2  O   -0.510780
     3  C    0.381408
     4  C   -0.170431
     5  C   -0.148670
     6  C   -0.170543
     7  C    0.373364
     8  N   -0.751489
     9  C    0.602526
    10  O   -0.528417
    11  C    0.255509
    12  C   -0.122867
    13  C   -0.181330
    14  C    0.602412
    15  N   -0.784893
    16  C    0.369694
    17  C   -0.153407
    18  C   -0.206060
    19  C    0.138769
    20  C   -0.534329
    21  C    0.135438
    22  C   -0.534352
    23  C   -0.271872
    24  N   -0.376127
    25  N   -0.361424
    26  C   -0.285155
    27  H    0.151360
    28  H    0.151360
    29  H    0.169218
    30  H    0.133264
    31  H    0.131713
    32  H    0.177784
    33  H    0.361837
    34  H    0.185915
    35  H    0.150566
    36  H    0.334292
    37  H    0.184272
    38  H    0.125321
    39  H    0.156526
    40  H    0.158011
    41  H    0.157948
    42  H    0.162544
    43  H    0.162599
    44  H    0.152159
    45  H    0.110436
    46  H    0.129495
 Sum of Mulliken charges =  -0.00000

 Dipole moment (field-independent basis, Debye):
    X=              5.7054    Y=              0.1396    Z=              0.0003  Tot=              5.7071
 Quadrupole moment (field-independent basis, Debye-Ang):
   XX=           -141.4026   YY=           -133.0144   ZZ=           -155.2766
   XY=            -15.9659   XZ=              0.0057   YZ=             -0.0025

 Normal termination of Gaussian 16 at Fri Nov  4 20:31:02 2022.
