 Gaussian 16, Revision B.01,
 Gaussian 16:  ES64L-G16RevB.01 20-Dec-2017

 -----------------------------
 #p b3lyp/6-31g(d) opt SCF=XQC
 -----------------------------

 ------------------------------
 Gaussian input prepared by ASE
 ------------------------------
 Symbolic Z-matrix:
 Charge =  0 Multiplicity = 1

 SCF Done:  E(RB3LYP) =  -1307.53869829     A.U. after   14 cycles
 SCF Done:  E(RB3LYP) =  -1307.54426635     A.U. after   13 cycles
 SCF Done:  E(RB3LYP) =  -1307.54426936     A.U. after   12 cycles
 SCF Done:  E(RB3LYP) =  -1307.54489534     A.U. after   12 cycles
 SCF Done:  E(RB3LYP) =  -1307.54502758     A.U. after   10 cycles
 SCF Done:  E(RB3LYP) =  -1307.54506828     A.U. after   11 cycles
 SCF Done:  E(RB3LYP) =  -1307.54507711     A.U. after   10 cycles
 SCF Done:  E(RB3LYP) =  -1307.54508400     A.U. after   10 cycles
 SCF Done:  E(RB3LYP) =  -1307.54508442     A.U. after    8 cycles
 SCF Done:  E(RB3LYP) =  -1307.54508448     A.U. after    6 cycles
 Optimization completed.
    -- Stationary point found.

                         Standard orientation:
 ---------------------------------------------------------------------
 Center     Atomic      Atomic             Coordinates (Angstroms)
 Number     Number       Type             X           Y           Z
 ---------------------------------------------------------------------
      1          6           0       -5.262514   -2.955119   -0.921229
      2          6           0       -5.037430   -1.461794   -1.102794
      3          8           0       -3.662632   -1.096481   -0.825003
      4          6           0       -3.348364   -0.861041    0.474461
      5          8           0       -4.141964   -0.948152    1.385408
      6          6           0       -1.875791   -0.523536    0.636665
      7          6           0       -1.011946   -1.792670    0.422356
      8          6           0        0.475824   -1.438121    0.546897
      9          6           0        0.793475   -0.281252   -0.409381
     10          8           0       -0.006830    0.859558   -0.091613
     11          6           0       -1.400881    0.627929   -0.295836
     12          6           0       -2.131338    1.929807   -0.037956
     13          6           0       -3.208866    2.310691   -0.845441
     14          6           0       -3.907094    3.491873   -0.587645
     15          6           0       -3.528598    4.309235    0.477714
     16          6           0       -2.448043    3.939871    1.282246
     17          6           0       -1.754710    2.757229    1.028010
     18          6           0        2.251372    0.083638   -0.330329
     19          6           0        2.732145    1.329961   -0.732826
     20          6           0        4.084352    1.661505   -0.656173
     21          6           0        4.988290    0.709962   -0.161604
     22          8           0        6.334054    0.911673   -0.039134
     23          6           0        6.862396    2.166176   -0.435999
     24          6           0        4.531566   -0.546743    0.244920
     25          6           0        3.174470   -0.856636    0.164988
     26          8           0        2.815907   -2.097240    0.618370
     27          6           0        1.476582   -2.599416    0.347658
     28          6           0        1.476815   -3.198561   -1.067572
     29          6           0        1.281794   -3.697849    1.394550
     30          1           0       -4.573358   -3.532736   -1.546304
     31          1           0       -6.287489   -3.214143   -1.210729
     32          1           0       -5.119471   -3.241171    0.124453
     33          1           0       -5.692329   -0.879619   -0.450410
     34          1           0       -5.192847   -1.156924   -2.140737
     35          1           0       -1.760752   -0.184367    1.671145
     36          1           0       -1.302396   -2.550699    1.158612
     37          1           0       -1.226385   -2.205105   -0.571511
     38          1           0        0.653069   -1.055951    1.562245
     39          1           0        0.530975   -0.587921   -1.438485
     40          1           0       -1.568538    0.315549   -1.337994
     41          1           0       -3.500850    1.679747   -1.681146
     42          1           0       -4.740941    3.775878   -1.224383
     43          1           0       -4.068374    5.231106    0.677563
     44          1           0       -2.143081    4.575728    2.109335
     45          1           0       -0.903868    2.477471    1.641182
     46          1           0        2.019386    2.064515   -1.094990
     47          1           0        4.414885    2.643666   -0.971855
     48          1           0        7.937608    2.108362   -0.255675
     49          1           0        6.684224    2.362199   -1.501756
     50          1           0        6.440040    2.989248    0.155664
     51          1           0        5.232525   -1.279696    0.628236
     52          1           0        0.494354   -3.606250   -1.328567
     53          1           0        2.208103   -4.011365   -1.117200
     54          1           0        1.752894   -2.455585   -1.821627
     55          1           0        2.112848   -4.407921    1.339900
     56          1           0        1.260163   -3.273475    2.403603
     57          1           0        0.350295   -4.246212    1.223131
 ---------------------------------------------------------------------

 The electronic state is 1-A.
 Alpha  occ. eigenvalues --  -19.19265 -19.17174 -19.16555 -19.15312 -19.13559
 Alpha  occ. eigenvalues --  -10.31417 -10.25647 -10.24648 -10.24628 -10.24163
 Alpha  occ. eigenvalues --  -10.24128 -10.24100 -10.23664 -10.20567 -10.19987
 Alpha  occ. eigenvalues --  -10.19562 -10.19303 -10.18794 -10.18741 -10.18692
 Alpha  occ. eigenvalues --  -10.18662 -10.18634 -10.18403 -10.18386 -10.18246
 Alpha  occ. eigenvalues --  -10.18076 -10.18012 -10.17568 -10.17096  -1.09930
 Alpha  occ. eigenvalues --   -1.05777  -1.05411  -1.03952  -1.01313  -0.85400
 Alpha  occ. eigenvalues --   -0.84517  -0.83243  -0.81047  -0.77902  -0.76897
 Alpha  occ. eigenvalues --   -0.75398  -0.74063  -0.73680  -0.71626  -0.70064
 Alpha  occ. eigenvalues --   -0.69572  -0.66759  -0.66056  -0.63933  -0.61470
 Alpha  occ. eigenvalues --   -0.60720  -0.59477  -0.59254  -0.57841  -0.55693
 Alpha  occ. eigenvalues --   -0.54541  -0.52999  -0.51583  -0.50431  -0.49925
 Alpha  occ. eigenvalues --   -0.49043  -0.48613  -0.47785  -0.47423  -0.46333
 Alpha  occ. eigenvalues --   -0.46237  -0.46091  -0.45077  -0.44979  -0.44489
 Alpha  occ. eigenvalues --   -0.43597  -0.43035  -0.42558  -0.42234  -0.41669
 Alpha  occ. eigenvalues --   -0.41482  -0.40742  -0.40356  -0.39804  -0.39457
 Alpha  occ. eigenvalues --   -0.38959  -0.38250  -0.38046  -0.37863  -0.37317
 Alpha  occ. eigenvalues --   -0.37028  -0.36395  -0.36128  -0.35664  -0.35109
 Alpha  occ. eigenvalues --   -0.34859  -0.34228  -0.33928  -0.33560  -0.32682
 Alpha  occ. eigenvalues --   -0.32224  -0.31425  -0.30433  -0.29936  -0.29245
 Alpha  occ. eigenvalues --   -0.27085  -0.25437  -0.24608  -0.24046  -0.21837
 Alpha  occ. eigenvalues --   -0.20575
 Alpha virt. eigenvalues --   -0.00243   0.00099   0.00757   0.01103   0.02458
 Alpha virt. eigenvalues --    0.08048   0.08874   0.09498   0.10070   0.10530
 Alpha virt. eigenvalues --    0.10639   0.11116   0.11662   0.12030   0.12927

 Mulliken charges:
               1
     1  C   -0.463151
     2  C   -0.045520
     3  O   -0.469576
     4  C    0.629618
     5  O   -0.480685
     6  C   -0.188557
     7  C   -0.310427
     8  C   -0.131543
     9  C    0.090271
    10  O   -0.519116
    11  C    0.076782
    12  C    0.135301
    13  C   -0.183143
    14  C   -0.130814
    15  C   -0.124781
    16  C   -0.132274
    17  C   -0.164534
    18  C    0.075403
    19  C   -0.191648
    20  C   -0.207615
    21  C    0.388649
    22  O   -0.511422
    23  C   -0.212936
    24  C   -0.261283
    25  C    0.352551
    26  O   -0.569686
    27  C    0.309176
    28  C   -0.466218
    29  C   -0.463737
    30  H    0.154680
    31  H    0.152427
    32  H    0.177578
    33  H    0.175247
    34  H    0.151091
    35  H    0.166256
    36  H    0.157476
    37  H    0.152348
    38  H    0.146544
    39  H    0.123758
    40  H    0.133444
    41  H    0.130739
    42  H    0.127864
    43  H    0.128868
    44  H    0.130903
    45  H    0.145881
    46  H    0.145906
    47  H    0.127122
    48  H    0.167536
    49  H    0.150652
    50  H    0.151799
    51  H    0.140854
    52  H    0.146440
    53  H    0.159443
    54  H    0.161873
    55  H    0.160735
    56  H    0.156191
    57  H    0.147260
 Sum of Mulliken charges =  -0.00000

 Dipole moment (field-independent basis, Debye):
    X=             -0.8273    Y=             -0.3030    Z=             -2.5052  Tot=              2.6556
 Quadrupole moment (field-independent basis, Debye-Ang):
   XX=           -162.9281   YY=           -155.4837   ZZ=           -170.2473
   XY=             10.2498   XZ=              8.3008   YZ=              2.4972

 1\1\GINC-NODE35\FOpt\RB3LYP\6-31G(d)\C24H28O5\WYKGROUP\04-Nov-2022\0\\
 #p b3lyp/6-31g(d) opt SCF=XQC\\Gaussian input prepared by ASE\\0,1\C,-
 5.4548851927,-2.2248677319,-0.6672065933\C,-4.9830265811,-0.8772691337
 ,-1.191587271\O,-3.5958910626,-0.6329403407,-0.8497543846\C,-3.3580291
 068,-0.1008482519,0.37625667\O,-4.2286700349,0.1633403445,1.1758836699
 \C,-1.8694177747,0.0732419083,0.6260972228\C,-1.2014336378,-1.30808040
 06,0.8465596423\C,0.3079596842,-1.1297900327,1.057793258\C,0.882564929
 9,-0.3230171777,-0.1138134018\O,0.2482557521,0.9552658826,-0.194787770

 Normal termination of Gaussian 16 at Fri Nov  4 20:46:20 2022.
