 Gaussian 16, Revision B.01,
 Gaussian 16:  ES64L-G16RevB.01 20-Dec-2017

 -------------------------------------------------------------------
 #p b3lyp/6-31g(d) 6D 10F nosymm GFInput td=(50-50,nstate=2) SCF=XQC
 -------------------------------------------------------------------

 ------------------------------
 Gaussian input prepared by ASE
 ------------------------------
 Symbolic Z-matrix:
 Charge =  0 Multiplicity = 1

                          Input orientation:
 ---------------------------------------------------------------------
 Center     Atomic      Atomic             Coordinates (Angstroms)
 Number     Number       Type             X           Y           Z
 ---------------------------------------------------------------------
      1          6           0       -5.454885   -2.224868   -0.667207
      2          6           0       -4.983027   -0.877269   -1.191587
      3          8           0       -3.595891   -0.632940   -0.849754
      4          6           0       -3.358029   -0.100848    0.376257
      5          8           0       -4.228670    0.163340    1.175884
      6          6           0       -1.869418    0.073242    0.626097
      7          6           0       -1.201434   -1.308080    0.846560
      8          6           0        0.307960   -1.129790    1.057793
      9          6           0        0.882565   -0.323017   -0.113813
     10          8           0        0.248256    0.955266   -0.194788
     11          6           0       -1.142907    0.860771   -0.502155
     12          6           0       -1.678118    2.267675   -0.672817
     13          6           0       -2.610995    2.555054   -1.675477
     14          6           0       -3.133498    3.842527   -1.811778
     15          6           0       -2.721234    4.859034   -0.949757
     16          6           0       -1.783318    4.581466    0.047524
     17          6           0       -1.266158    3.294191    0.187015
     18          6           0        2.367989   -0.143159    0.047505
     19          6           0        3.070974    0.876186   -0.595314
     20          6           0        4.447349    1.037318   -0.440750
     21          6           0        5.145644    0.143914    0.384689
     22          8           0        6.491404    0.194223    0.615267
     23          6           0        7.242014    1.216698   -0.018416
     24          6           0        4.464352   -0.887390    1.036929
     25          6           0        3.086850   -1.028097    0.873148
     26          8           0        2.500772   -2.044245    1.578256
     27          6           0        1.126392   -2.421941    1.282143
     28          6           0        1.150365   -3.373161    0.075306
     29          6           0        0.674323   -3.164631    2.540923
     30          1           0       -4.815582   -3.033415   -1.037123
     31          1           0       -6.480082   -2.416377   -1.004512
     32          1           0       -5.446468   -2.236327    0.426199
     33          1           0       -5.590182   -0.061509   -0.792436
     34          1           0       -5.001301   -0.844162   -2.283831
     35          1           0       -1.789137    0.659263    1.547267
     36          1           0       -1.668085   -1.796618    1.709467
     37          1           0       -1.394453   -1.940227   -0.029223
     38          1           0        0.457819   -0.515940    1.957310
     39          1           0        0.661856   -0.857389   -1.056014
     40          1           0       -1.270103    0.305111   -1.443880
     41          1           0       -2.927937    1.766789   -2.353661
     42          1           0       -3.856109    4.051481   -2.596358
     43          1           0       -3.123833    5.862827   -1.056802
     44          1           0       -1.452113    5.370424    0.717778
     45          1           0       -0.524189    3.080766    0.949974
     46          1           0        2.515565    1.573063   -1.215509
     47          1           0        4.953644    1.847301   -0.951770
     48          1           0        8.275847    1.069961    0.300329
     49          1           0        7.186525    1.141405   -1.112610
     50          1           0        6.906690    2.215897    0.289893
     51          1           0        5.006636   -1.575536    1.675581
     52          1           0        0.141206   -3.704479   -0.191872
     53          1           0        1.746051   -4.257495    0.322303
     54          1           0        1.601990   -2.901894   -0.802631
     55          1           0        1.384778   -3.965220    2.769286
     56          1           0        0.635666   -2.486308    3.399488
     57          1           0       -0.314326   -3.612862    2.401497
 ---------------------------------------------------------------------

 SCF Done:  E(RB3LYP) =  -1307.54508010     A.U. after   15 cycles

 Excitation energies and oscillator strengths:

 Excited state symmetry could not be determined.
 Excited State   1:      Triplet-?Sym    3.6665 eV  338.15 nm  f=0.0000  <S**2>=2.000
     100 ->109        -0.11548
     105 ->109         0.51131
     105 ->111        -0.10293
     106 ->109        -0.17547
     106 ->111        -0.39663
 This state for optimization and/or second-order correction.
 Total Energy, E(TD-HF/TD-DFT) =  -1307.41033838
 Copying the excited state density for this state as the 1-particle RhoCI density.

 Excited state symmetry could not be determined.
 Excited State   2:      Triplet-?Sym    3.7463 eV  330.95 nm  f=0.0000  <S**2>=2.000
     102 ->107         0.14899
     102 ->108        -0.12098
     103 ->107        -0.17594
     103 ->108        -0.39399
     103 ->110        -0.19049
     104 ->107        -0.44394
     104 ->108         0.16767

 Excited state symmetry could not be determined.
 Excited State   3:      Singlet-?Sym    4.9612 eV  249.91 nm  f=0.0545  <S**2>=0.000
     105 ->111         0.31918
     106 ->107        -0.25399
     106 ->109         0.54669

 Excited state symmetry could not be determined.
 Excited State   4:      Singlet-?Sym    5.1031 eV  242.96 nm  f=0.0055  <S**2>=0.000
     106 ->107         0.65646
     106 ->109         0.22761

 Alpha  occ. eigenvalues --  -19.19265 -19.17174 -19.16555 -19.15312 -19.13559
 Alpha  occ. eigenvalues --  -10.31417 -10.25647 -10.24648 -10.24628 -10.24163
 Alpha  occ. eigenvalues --  -10.24128 -10.24100 -10.23664 -10.20567 -10.19987
 Alpha  occ. eigenvalues --  -10.19562 -10.19303 -10.18794 -10.18741 -10.18692
 Alpha  occ. eigenvalues --  -10.18662 -10.18634 -10.18403 -10.18386 -10.18246
 Alpha  occ. eigenvalues --  -10.18076 -10.18012 -10.17568 -10.17096  -1.09930
 Alpha  occ. eigenvalues --   -1.05777  -1.05411  -1.03952  -1.01313  -0.85400
 Alpha  occ. eigenvalues --   -0.84517  -0.83243  -0.81047  -0.77902  -0.76897
 Alpha  occ. eigenvalues --   -0.75398  -0.74063  -0.73680  -0.71626  -0.70064
 Alpha  occ. eigenvalues --   -0.69572  -0.66759  -0.66056  -0.63933  -0.61470
 Alpha  occ. eigenvalues --   -0.60720  -0.59477  -0.59254  -0.57841  -0.55693
 Alpha  occ. eigenvalues --   -0.54541  -0.52999  -0.51583  -0.50431  -0.49925
 Alpha  occ. eigenvalues --   -0.49043  -0.48613  -0.47785  -0.47423  -0.46333
 Alpha  occ. eigenvalues --   -0.46237  -0.46091  -0.45077  -0.44979  -0.44489
 Alpha  occ. eigenvalues --   -0.43597  -0.43035  -0.42558  -0.42234  -0.41669
 Alpha  occ. eigenvalues --   -0.41482  -0.40742  -0.40356  -0.39804  -0.39457
 Alpha  occ. eigenvalues --   -0.38959  -0.38250  -0.38046  -0.37863  -0.37317
 Alpha  occ. eigenvalues --   -0.37028  -0.36395  -0.36128  -0.35664  -0.35109
 Alpha  occ. eigenvalues --   -0.34859  -0.34228  -0.33929  -0.33560  -0.32682
 Alpha  occ. eigenvalues --   -0.32224  -0.31425  -0.30433  -0.29936  -0.29245
 Alpha  occ. eigenvalues --   -0.27085  -0.25437  -0.24608  -0.24046  -0.21837
 Alpha  occ. eigenvalues --   -0.20575
 Alpha virt. eigenvalues --   -0.00243   0.00099   0.00757   0.01103   0.02458
 Alpha virt. eigenvalues --    0.08048   0.08874   0.09498   0.10070   0.10529
 Alpha virt. eigenvalues --    0.10639   0.11116   0.11662   0.12030   0.12927

 Mulliken charges:
               1
     1  C   -0.463147
     2  C   -0.045512
     3  O   -0.469580
     4  C    0.629617
     5  O   -0.480686
     6  C   -0.188543
     7  C   -0.310422
     8  C   -0.131538
     9  C    0.090295
    10  O   -0.519112
    11  C    0.076759
    12  C    0.135271
    13  C   -0.183125
    14  C   -0.130825
    15  C   -0.124776
    16  C   -0.132281
    17  C   -0.164519
    18  C    0.075414
    19  C   -0.191657
    20  C   -0.207627
    21  C    0.388673
    22  O   -0.511425
    23  C   -0.212934
    24  C   -0.261296
    25  C    0.352532
    26  O   -0.569684
    27  C    0.309165
    28  C   -0.466211
    29  C   -0.463736
    30  H    0.154677
    31  H    0.152427
    32  H    0.177576
    33  H    0.175246
    34  H    0.151090
    35  H    0.166253
    36  H    0.157474
    37  H    0.152347
    38  H    0.146543
    39  H    0.123756
    40  H    0.133448
    41  H    0.130743
    42  H    0.127865
    43  H    0.128868
    44  H    0.130904
    45  H    0.145883
    46  H    0.145910
    47  H    0.127122
    48  H    0.167536
    49  H    0.150652
    50  H    0.151799
    51  H    0.140855
    52  H    0.146440
    53  H    0.159442
    54  H    0.161873
    55  H    0.160734
    56  H    0.156190
    57  H    0.147260
 Sum of Mulliken charges =  -0.00000

 Dipole moment (field-independent basis, Debye):
    X=             -0.6527    Y=             -0.8529    Z=             -2.4287  Tot=              2.6556
 Quadrupole moment (field-independent basis, Debye-Ang):
   XX=           -161.1922   YY=           -158.7867   ZZ=           -169.6370
   XY=             12.6872   XZ=              5.7776   YZ=             -1.2755

 Normal termination of Gaussian 16 at Sat Nov  5 12:28:13 2022.
