 Gaussian 16, Revision B.01,
 Gaussian 16:  ES64L-G16RevB.01 20-Dec-2017

 -----------------------------
 #p b3lyp/6-31g(d) opt SCF=XQC
 -----------------------------

 ------------------------------
 Gaussian input prepared by ASE
 ------------------------------
 Symbolic Z-matrix:
 Charge =  0 Multiplicity = 1

 SCF Done:  E(RB3LYP) =  -847.938744112     A.U. after   14 cycles
 SCF Done:  E(RB3LYP) =  -847.945392387     A.U. after   13 cycles
 SCF Done:  E(RB3LYP) =  -847.946448025     A.U. after   12 cycles
 SCF Done:  E(RB3LYP) =  -847.946655175     A.U. after   11 cycles
 SCF Done:  E(RB3LYP) =  -847.946701360     A.U. after   10 cycles
 SCF Done:  E(RB3LYP) =  -847.946718912     A.U. after    9 cycles
 SCF Done:  E(RB3LYP) =  -847.946739613     A.U. after   10 cycles
 SCF Done:  E(RB3LYP) =  -847.946748696     A.U. after   10 cycles
 SCF Done:  E(RB3LYP) =  -847.946759758     A.U. after    9 cycles
 SCF Done:  E(RB3LYP) =  -847.946782505     A.U. after   10 cycles
 SCF Done:  E(RB3LYP) =  -847.946798357     A.U. after   10 cycles
 SCF Done:  E(RB3LYP) =  -847.946813680     A.U. after   10 cycles
 SCF Done:  E(RB3LYP) =  -847.946825662     A.U. after   10 cycles
 SCF Done:  E(RB3LYP) =  -847.946835938     A.U. after   10 cycles
 SCF Done:  E(RB3LYP) =  -847.946836236     A.U. after    8 cycles
 SCF Done:  E(RB3LYP) =  -847.946836297     A.U. after    7 cycles
 Optimization completed.
    -- Stationary point found.

                         Standard orientation:
 ---------------------------------------------------------------------
 Center     Atomic      Atomic             Coordinates (Angstroms)
 Number     Number       Type             X           Y           Z
 ---------------------------------------------------------------------
      1          6           0       -5.058988   -1.105006   -1.195553
      2          6           0       -3.715661   -1.475599   -0.557836
      3          6           0       -2.522938   -0.854124   -1.306612
      4          7           0       -1.183250   -1.196036   -0.816300
      5          6           0       -0.830710   -0.713652    0.523002
      6          6           0       -0.716237    0.802836    0.545802
      7          6           0       -1.169589    1.534521    1.650194
      8          7           0       -1.067990    2.862045    1.765197
      9          6           0       -0.501435    3.521548    0.748300
     10          6           0       -0.020634    2.913719   -0.417691
     11          6           0        0.602314    3.724105   -1.527781
     12          6           0       -0.139826    1.522963   -0.503629
     13          6           0        0.470693   -1.411955    0.987819
     14          6           0        1.730044   -1.116858    0.212203
     15          6           0        2.037264   -1.815321   -0.964324
     16          6           0        3.196320   -1.530193   -1.686552
     17          6           0        4.073404   -0.538488   -1.242640
     18          6           0        3.781571    0.164205   -0.072698
     19          6           0        2.619765   -0.123678    0.645529
     20          6           0        0.288139   -2.814105    1.544686
     21          6           0        0.597900   -1.665444    2.472251
     22          1           0       -5.897106   -1.562348   -0.658314
     23          1           0       -5.109107   -1.440264   -2.239010
     24          1           0       -5.213302   -0.019123   -1.189692
     25          1           0       -3.710869   -1.152394    0.491210
     26          1           0       -3.601114   -2.569754   -0.546571
     27          1           0       -2.616031    0.238458   -1.299839
     28          1           0       -2.567055   -1.160349   -2.360812
     29          1           0       -1.069156   -2.208039   -0.829299
     30          1           0       -1.589858   -0.986564    1.278948
     31          1           0       -1.645183    1.018810    2.485317
     32          1           0       -0.429263    4.603450    0.863269
     33          1           0        1.632072    3.401977   -1.724493
     34          1           0        0.045330    3.613098   -2.466341
     35          1           0        0.625636    4.789706   -1.277582
     36          1           0        0.207352    0.988622   -1.383555
     37          1           0        1.362926   -2.591021   -1.315054
     38          1           0        3.416482   -2.086077   -2.594418
     39          1           0        4.979366   -0.319235   -1.801709
     40          1           0        4.458965    0.935778    0.284364
     41          1           0        2.396413    0.427717    1.554801
     42          1           0       -0.716367   -3.231545    1.568318
     43          1           0        1.070742   -3.543283    1.355383
     44          1           0        1.591200   -1.620263    2.908881
     45          1           0       -0.191769   -1.306270    3.127095
 ---------------------------------------------------------------------

 The electronic state is 1-A.
 Alpha  occ. eigenvalues --  -14.31835 -14.31828 -10.22389 -10.20941 -10.20837
 Alpha  occ. eigenvalues --  -10.20591 -10.20370 -10.19583 -10.19222 -10.19145
 Alpha  occ. eigenvalues --  -10.19139 -10.18950 -10.18933 -10.18673 -10.18613
 Alpha  occ. eigenvalues --  -10.18579 -10.18460 -10.18389 -10.18380 -10.18162
 Alpha  occ. eigenvalues --  -10.17648  -0.92980  -0.91076  -0.86825  -0.83931
 Alpha  occ. eigenvalues --   -0.80422  -0.78138  -0.76413  -0.74282  -0.73891
 Alpha  occ. eigenvalues --   -0.69733  -0.69000  -0.64915  -0.62178  -0.61248
 Alpha  occ. eigenvalues --   -0.60505  -0.59576  -0.59036  -0.57599  -0.55051
 Alpha  occ. eigenvalues --   -0.51854  -0.50213  -0.49977  -0.48831  -0.47253
 Alpha  occ. eigenvalues --   -0.45906  -0.45152  -0.44328  -0.43771  -0.43075
 Alpha  occ. eigenvalues --   -0.42289  -0.42046  -0.41455  -0.40727  -0.40181
 Alpha  occ. eigenvalues --   -0.39212  -0.38291  -0.38168  -0.37091  -0.36954
 Alpha  occ. eigenvalues --   -0.36883  -0.36391  -0.35867  -0.34729  -0.34597
 Alpha  occ. eigenvalues --   -0.33955  -0.33220  -0.33057  -0.29974  -0.28552
 Alpha  occ. eigenvalues --   -0.26637  -0.24564  -0.24302  -0.24267  -0.23523
 Alpha  occ. eigenvalues --   -0.21975
 Alpha virt. eigenvalues --   -0.01531  -0.00139   0.00156   0.00631   0.07447
 Alpha virt. eigenvalues --    0.08935   0.09921   0.10291   0.11301   0.11784
 Alpha virt. eigenvalues --    0.12503   0.13113   0.13459   0.14118   0.14507

 Mulliken charges:
               1
     1  C   -0.444776
     2  C   -0.262618
     3  C   -0.129427
     4  N   -0.566541
     5  C   -0.043485
     6  C    0.146875
     7  C   -0.023035
     8  N   -0.415060
     9  C   -0.015020
    10  C    0.157848
    11  C   -0.533459
    12  C   -0.178615
    13  C    0.010632
    14  C    0.131599
    15  C   -0.154733
    16  C   -0.136084
    17  C   -0.129223
    18  C   -0.135157
    19  C   -0.170168
    20  C   -0.332082
    21  C   -0.328509
    22  H    0.145775
    23  H    0.142405
    24  H    0.148253
    25  H    0.140141
    26  H    0.123394
    27  H    0.147686
    28  H    0.134992
    29  H    0.295759
    30  H    0.105801
    31  H    0.127988
    32  H    0.129191
    33  H    0.168993
    34  H    0.164169
    35  H    0.156806
    36  H    0.160989
    37  H    0.119829
    38  H    0.127109
    39  H    0.127075
    40  H    0.128521
    41  H    0.136489
    42  H    0.147568
    43  H    0.160358
    44  H    0.159704
    45  H    0.152041
 Sum of Mulliken charges =  -0.00000

 Dipole moment (field-independent basis, Debye):
    X=              0.2936    Y=             -1.8084    Z=             -1.6194  Tot=              2.4452
 Quadrupole moment (field-independent basis, Debye-Ang):
   XX=           -122.2304   YY=           -123.3962   ZZ=           -126.8074
   XY=              7.5793   XZ=              0.3260   YZ=             -5.4607

 1\1\GINC-NODE92\FOpt\RB3LYP\6-31G(d)\C19H24N2\WYKGROUP\04-Nov-2022\0\\
 #p b3lyp/6-31g(d) opt SCF=XQC\\Gaussian input prepared by ASE\\0,1\C,-
 4.1093039615,-2.7988741376,-0.9754294908\C,-2.6791292989,-2.6314632133
 ,-0.4509069369\C,-1.9062490269,-1.5334380131,-1.2035553956\N,-0.503943
 1655,-1.3320740493,-0.8226805197\C,-0.2565903065,-0.8334854778,0.53412
 97329\C,-0.7569230852,0.5941205979,0.6921421964\C,-1.3652595233,1.0075
 673473,1.88359617\N,-1.7935492085,2.2518646224,2.1163221758\C,-1.63083
 16138,3.1471990418,1.1355529117\C,-1.0524783353,2.8616936522,-0.107087

 Normal termination of Gaussian 16 at Fri Nov  4 20:43:25 2022.
