 Gaussian 16, Revision B.01,
 Gaussian 16:  ES64L-G16RevB.01 20-Dec-2017

 -------------------------------------------------------------------
 #p b3lyp/6-31g(d) 6D 10F nosymm GFInput td=(50-50,nstate=2) SCF=XQC
 -------------------------------------------------------------------

 ------------------------------
 Gaussian input prepared by ASE
 ------------------------------
 Symbolic Z-matrix:
 Charge =  0 Multiplicity = 1

                          Input orientation:
 ---------------------------------------------------------------------
 Center     Atomic      Atomic             Coordinates (Angstroms)
 Number     Number       Type             X           Y           Z
 ---------------------------------------------------------------------
      1          6           0       -4.109304   -2.798874   -0.975429
      2          6           0       -2.679129   -2.631463   -0.450907
      3          6           0       -1.906249   -1.533438   -1.203555
      4          7           0       -0.503943   -1.332074   -0.822681
      5          6           0       -0.256590   -0.833485    0.534130
      6          6           0       -0.756923    0.594121    0.692142
      7          6           0       -1.365260    1.007567    1.883596
      8          7           0       -1.793549    2.251865    2.116322
      9          6           0       -1.630832    3.147199    1.135553
     10          6           0       -1.052478    2.861694   -0.107087
     11          6           0       -0.906957    3.923352   -1.169534
     12          6           0       -0.612358    1.550775   -0.315851
     13          6           0        1.251130   -0.970978    0.858486
     14          6           0        2.212996   -0.141764    0.044947
     15          6           0        2.668345   -0.579716   -1.206974
     16          6           0        3.547449    0.196324   -1.962790
     17          6           0        3.990066    1.428620   -1.477658
     18          6           0        3.546476    1.877089   -0.232745
     19          6           0        2.665610    1.097673    0.518990
     20          6           0        1.695027   -2.358490    1.291176
     21          6           0        1.600250   -1.243908    2.303339
     22          1           0       -4.643163   -3.589960   -0.437463
     23          1           0       -4.113428   -3.059167   -2.041236
     24          1           0       -4.684024   -1.871914   -0.859534
     25          1           0       -2.711033   -2.400915    0.621852
     26          1           0       -2.135855   -3.583190   -0.548337
     27          1           0       -2.427725   -0.575571   -1.089536
     28          1           0       -1.917467   -1.764147   -2.277662
     29          1           0        0.003896   -2.207560   -0.936528
     30          1           0       -0.772811   -1.438138    1.302345
     31          1           0       -1.518662    0.291706    2.692043
     32          1           0       -1.987689    4.155619    1.346929
     33          1           0        0.143791    4.060174   -1.452505
     34          1           0       -1.453847    3.655097   -2.081894
     35          1           0       -1.289858    4.888561   -0.822534
     36          1           0       -0.159920    1.259999   -1.259816
     37          1           0        2.332502   -1.538628   -1.590577
     38          1           0        3.890168   -0.163905   -2.929474
     39          1           0        4.679137    2.031564   -2.063353
     40          1           0        3.887319    2.833081    0.156596
     41          1           0        2.321903    1.452426    1.486829
     42          1           0        0.947876   -3.148413    1.331574
     43          1           0        2.683854   -2.693590    0.991288
     44          1           0        2.526950   -0.826901    2.686308
     45          1           0        0.794314   -1.278320    3.031821
 ---------------------------------------------------------------------

 SCF Done:  E(RB3LYP) =  -847.946836601     A.U. after   14 cycles

 Excitation energies and oscillator strengths:

 Excited state symmetry could not be determined.
 Excited State   1:      Triplet-?Sym    3.7312 eV  332.29 nm  f=0.0000  <S**2>=2.000
      72 -> 78        -0.13036
      72 -> 79        -0.20466
      72 -> 80        -0.27571
      73 -> 78        -0.22343
      73 -> 79         0.19789
      73 -> 80        -0.23309
      75 -> 77         0.14380
      75 -> 78         0.10363
      75 -> 79        -0.38412
 This state for optimization and/or second-order correction.
 Total Energy, E(TD-HF/TD-DFT) =  -847.809716179
 Copying the excited state density for this state as the 1-particle RhoCI density.

 Excited state symmetry could not be determined.
 Excited State   2:      Triplet-?Sym    3.8183 eV  324.71 nm  f=0.0000  <S**2>=2.000
      71 -> 77         0.40333
      72 -> 77         0.12209
      72 -> 78        -0.22316
      72 -> 80         0.13633
      73 -> 78         0.24343
      73 -> 80        -0.14591
      74 -> 78         0.12974
      75 -> 78         0.26751
      75 -> 80        -0.15683

 Excited state symmetry could not be determined.
 Excited State   3:      Singlet-?Sym    4.7621 eV  260.36 nm  f=0.0007  <S**2>=0.000
      74 -> 77         0.19792
      76 -> 77         0.66682

 Excited state symmetry could not be determined.
 Excited State   4:      Singlet-?Sym    4.8924 eV  253.42 nm  f=0.0096  <S**2>=0.000
      73 -> 77        -0.13888
      74 -> 77         0.58468
      74 -> 79         0.10306
      75 -> 77        -0.26782
      76 -> 77        -0.22199

 Alpha  occ. eigenvalues --  -14.31835 -14.31828 -10.22389 -10.20941 -10.20837
 Alpha  occ. eigenvalues --  -10.20591 -10.20370 -10.19583 -10.19222 -10.19145
 Alpha  occ. eigenvalues --  -10.19139 -10.18950 -10.18933 -10.18673 -10.18613
 Alpha  occ. eigenvalues --  -10.18580 -10.18460 -10.18389 -10.18380 -10.18162
 Alpha  occ. eigenvalues --  -10.17648  -0.92980  -0.91076  -0.86825  -0.83932
 Alpha  occ. eigenvalues --   -0.80422  -0.78138  -0.76413  -0.74282  -0.73891
 Alpha  occ. eigenvalues --   -0.69733  -0.69000  -0.64915  -0.62178  -0.61248
 Alpha  occ. eigenvalues --   -0.60505  -0.59576  -0.59036  -0.57599  -0.55051
 Alpha  occ. eigenvalues --   -0.51855  -0.50213  -0.49977  -0.48831  -0.47253
 Alpha  occ. eigenvalues --   -0.45906  -0.45152  -0.44328  -0.43771  -0.43075
 Alpha  occ. eigenvalues --   -0.42289  -0.42046  -0.41455  -0.40727  -0.40181
 Alpha  occ. eigenvalues --   -0.39212  -0.38291  -0.38167  -0.37091  -0.36954
 Alpha  occ. eigenvalues --   -0.36883  -0.36391  -0.35867  -0.34729  -0.34597
 Alpha  occ. eigenvalues --   -0.33955  -0.33220  -0.33057  -0.29974  -0.28552
 Alpha  occ. eigenvalues --   -0.26637  -0.24564  -0.24302  -0.24267  -0.23523
 Alpha  occ. eigenvalues --   -0.21975
 Alpha virt. eigenvalues --   -0.01531  -0.00139   0.00155   0.00631   0.07446
 Alpha virt. eigenvalues --    0.08935   0.09921   0.10291   0.11301   0.11784
 Alpha virt. eigenvalues --    0.12503   0.13113   0.13459   0.14118   0.14507

 Mulliken charges:
               1
     1  C   -0.444775
     2  C   -0.262628
     3  C   -0.129422
     4  N   -0.566546
     5  C   -0.043460
     6  C    0.146837
     7  C   -0.023018
     8  N   -0.415059
     9  C   -0.015029
    10  C    0.157856
    11  C   -0.533460
    12  C   -0.178604
    13  C    0.010620
    14  C    0.131564
    15  C   -0.154714
    16  C   -0.136085
    17  C   -0.129224
    18  C   -0.135172
    19  C   -0.170139
    20  C   -0.332085
    21  C   -0.328503
    22  H    0.145775
    23  H    0.142404
    24  H    0.148253
    25  H    0.140144
    26  H    0.123396
    27  H    0.147684
    28  H    0.134993
    29  H    0.295758
    30  H    0.105803
    31  H    0.127989
    32  H    0.129190
    33  H    0.168993
    34  H    0.164171
    35  H    0.156806
    36  H    0.160986
    37  H    0.119830
    38  H    0.127109
    39  H    0.127076
    40  H    0.128523
    41  H    0.136492
    42  H    0.147570
    43  H    0.160358
    44  H    0.159704
    45  H    0.152038
 Sum of Mulliken charges =  -0.00000

 Dipole moment (field-independent basis, Debye):
    X=              0.8478    Y=             -1.4275    Z=             -1.7951  Tot=              2.4452
 Quadrupole moment (field-independent basis, Debye-Ang):
   XX=           -127.2582   YY=           -117.5307   ZZ=           -128.0174
   XY=              4.8536   XZ=              2.6012   YZ=             -5.0798

 Normal termination of Gaussian 16 at Sat Nov  5 12:20:10 2022.
