 Gaussian 16, Revision B.01,
 Gaussian 16:  ES64L-G16RevB.01 20-Dec-2017

 -------------------------------------------------------------------
 #p b3lyp/6-31g(d) 6D 10F nosymm GFInput td=(50-50,nstate=2) SCF=XQC
 -------------------------------------------------------------------

 ------------------------------
 Gaussian input prepared by ASE
 ------------------------------
 Symbolic Z-matrix:
 Charge =  0 Multiplicity = 1

                          Input orientation:
 ---------------------------------------------------------------------
 Center     Atomic      Atomic             Coordinates (Angstroms)
 Number     Number       Type             X           Y           Z
 ---------------------------------------------------------------------
      1          6           0       -1.241943   -0.392653    2.865617
      2         14           0       -1.203437   -0.523143    0.975865
      3          6           0       -0.331858   -2.159738    0.564365
      4          6           0       -0.177811    0.949773    0.286180
      5          6           0        1.330952    0.711540    0.183796
      6          6           0        2.106695    1.961599   -0.247351
      7          6           0        3.635009    1.721414   -0.342594
      8          8           0        4.350007    2.862198    0.151990
      9          6           0        4.040741    0.500079    0.508221
     10          6           0        5.548461    0.443884    0.842897
     11          6           0        6.436857    0.240207   -0.369427
     12          6           0        6.720532   -1.052951   -0.831235
     13          6           0        7.525375   -1.256921   -1.952750
     14          6           0        8.065180   -0.164483   -2.634032
     15          6           0        7.791861    1.128591   -2.184492
     16          6           0        6.985154    1.328500   -1.062918
     17          6           0        3.171740    0.457287    1.767434
     18          8           0        1.783875    0.259365    1.470451
     19          6           0       -3.050176   -0.435077    0.197214
     20          6           0       -4.015763   -1.098014    1.207641
     21          6           0       -3.787532   -2.424914    1.620993
     22          6           0       -4.636712   -3.071087    2.516219
     23          6           0       -5.757168   -2.410898    3.025717
     24          6           0       -6.014009   -1.106010    2.612780
     25          6           0       -5.158065   -0.461239    1.714334
     26          6           0       -3.101020   -1.195452   -1.149843
     27          6           0       -4.207172   -1.981185   -1.511673
     28          6           0       -4.272150   -2.626695   -2.748705
     29          6           0       -3.232906   -2.500874   -3.668745
     30          6           0       -2.131496   -1.710414   -3.337980
     31          6           0       -2.072704   -1.068471   -2.101287
     32          6           0       -3.384360    1.060441   -0.018084
     33          6           0       -3.312602    1.969983    1.055862
     34          6           0       -3.592769    3.324960    0.891647
     35          6           0       -3.959683    3.822233   -0.360487
     36          6           0       -4.048845    2.939296   -1.433770
     37          6           0       -3.768561    1.580107   -1.264062
     38          1           0       -1.797870   -1.216549    3.323458
     39          1           0       -1.668617    0.545367    3.234870
     40          1           0       -0.202877   -0.436059    3.211154
     41          1           0       -0.324468   -2.401054   -0.502084
     42          1           0       -0.781681   -3.006023    1.094470
     43          1           0        0.704912   -2.072740    0.909009
     44          1           0       -0.353056    1.813047    0.941559
     45          1           0       -0.551519    1.249208   -0.700696
     46          1           0        1.513365   -0.086920   -0.555769
     47          1           0        1.935714    2.739578    0.508225
     48          1           0        1.707159    2.334705   -1.198405
     49          1           0        3.929032    1.533919   -1.385265
     50          1           0        4.042751    3.635567   -0.345971
     51          1           0        3.799834   -0.394460   -0.082420
     52          1           0        5.832005    1.361482    1.366629
     53          1           0        5.704634   -0.388457    1.541741
     54          1           0        6.312259   -1.910689   -0.299746
     55          1           0        7.736202   -2.268752   -2.289853
     56          1           0        8.696552   -0.320079   -3.504938
     57          1           0        8.211247    1.985603   -2.705942
     58          1           0        6.763361    2.334760   -0.719487
     59          1           0        3.464700   -0.375699    2.416489
     60          1           0        3.301732    1.388633    2.339235
     61          1           0       -2.942131   -2.971452    1.215795
     62          1           0       -4.423274   -4.095158    2.812276
     63          1           0       -6.421138   -2.910570    3.725974
     64          1           0       -6.889358   -0.578381    2.983577
     65          1           0       -5.394533    0.550027    1.405342
     66          1           0       -5.034248   -2.092550   -0.819848
     67          1           0       -5.145115   -3.228071   -2.990014
     68          1           0       -3.280785   -3.005786   -4.629828
     69          1           0       -1.312791   -1.589948   -4.043074
     70          1           0       -1.210608   -0.446089   -1.885043
     71          1           0       -3.053273    1.608892    2.045230
     72          1           0       -3.525788    3.992047    1.747525
     73          1           0       -4.177240    4.878685   -0.492902
     74          1           0       -4.343324    3.301585   -2.415693
     75          1           0       -3.855470    0.921146   -2.119547
 ---------------------------------------------------------------------

 SCF Done:  E(RB3LYP) =  -1758.44716825     A.U. after   14 cycles

 Excitation energies and oscillator strengths:

 Excited state symmetry could not be determined.
 Excited State   1:      Triplet-?Sym    3.6463 eV  340.02 nm  f=0.0000  <S**2>=2.000
     128 ->142         0.12313
     128 ->143        -0.10558
     128 ->144        -0.13204
     129 ->143         0.10360
     130 ->137         0.10131
     130 ->139         0.12383
     130 ->142         0.10930
     131 ->137        -0.14644
     131 ->144         0.10498
     133 ->139         0.11353
     133 ->144         0.18928
     134 ->137        -0.22243
     134 ->138         0.14520
     136 ->138        -0.28849
     136 ->139         0.28915
 This state for optimization and/or second-order correction.
 Total Energy, E(TD-HF/TD-DFT) =  -1758.31316776
 Copying the excited state density for this state as the 1-particle RhoCI density.

 Excited state symmetry could not be determined.
 Excited State   2:      Triplet-?Sym    3.6635 eV  338.43 nm  f=0.0000  <S**2>=2.000
     128 ->142        -0.12190
     128 ->143        -0.12395
     129 ->137         0.16105
     130 ->142         0.14781
     131 ->137        -0.13268
     131 ->139         0.12886
     133 ->137         0.19746
     133 ->138         0.10297
     133 ->142        -0.16769
     134 ->139        -0.21106
     134 ->143        -0.13483
     136 ->137         0.16806
     136 ->138        -0.20547
     136 ->139        -0.24576

 Excited state symmetry could not be determined.
 Excited State   3:      Singlet-?Sym    4.7812 eV  259.32 nm  f=0.0005  <S**2>=0.000
     136 ->137         0.67487

 Excited state symmetry could not be determined.
 Excited State   4:      Singlet-?Sym    5.0729 eV  244.41 nm  f=0.0394  <S**2>=0.000
     133 ->137        -0.10436
     134 ->137         0.13767
     136 ->138         0.62984
     136 ->139         0.18195

 Alpha  occ. eigenvalues --  -66.12154 -19.15037 -19.14109 -10.23863 -10.23773
 Alpha  occ. eigenvalues --  -10.22538 -10.19797 -10.19608 -10.19544 -10.19416
 Alpha  occ. eigenvalues --  -10.19208 -10.18968 -10.18662 -10.18591 -10.18489
 Alpha  occ. eigenvalues --  -10.18481 -10.18461 -10.18459 -10.18457 -10.18432
 Alpha  occ. eigenvalues --  -10.18401 -10.18387 -10.18381 -10.18376 -10.18307
 Alpha  occ. eigenvalues --  -10.18301 -10.18243 -10.18210 -10.18195 -10.18008
 Alpha  occ. eigenvalues --  -10.17978 -10.17952 -10.17869 -10.17804 -10.16242
 Alpha  occ. eigenvalues --  -10.15062 -10.14791  -5.26380  -3.62318  -3.62246
 Alpha  occ. eigenvalues --   -3.62218  -1.02591  -1.01766  -0.86217  -0.84897
 Alpha  occ. eigenvalues --   -0.84358  -0.84228  -0.80502  -0.78814  -0.78434
 Alpha  occ. eigenvalues --   -0.75166  -0.74219  -0.74117  -0.73617  -0.73606
 Alpha  occ. eigenvalues --   -0.73162  -0.73099  -0.70606  -0.68645  -0.66545
 Alpha  occ. eigenvalues --   -0.66342  -0.66205  -0.64111  -0.60621  -0.60425
 Alpha  occ. eigenvalues --   -0.60176  -0.59711  -0.59369  -0.58734  -0.58658
 Alpha  occ. eigenvalues --   -0.57273  -0.55546  -0.54178  -0.52558  -0.51221
 Alpha  occ. eigenvalues --   -0.51038  -0.50365  -0.49624  -0.48252  -0.47652
 Alpha  occ. eigenvalues --   -0.47081  -0.45785  -0.45665  -0.45452  -0.45063
 Alpha  occ. eigenvalues --   -0.44662  -0.44129  -0.44041  -0.43555  -0.43055
 Alpha  occ. eigenvalues --   -0.42131  -0.41590  -0.41488  -0.41461  -0.41223
 Alpha  occ. eigenvalues --   -0.40971  -0.40762  -0.40568  -0.40064  -0.39468
 Alpha  occ. eigenvalues --   -0.39226  -0.38818  -0.38176  -0.38032  -0.37590
 Alpha  occ. eigenvalues --   -0.37363  -0.36788  -0.36599  -0.35833  -0.35420
 Alpha  occ. eigenvalues --   -0.35401  -0.35117  -0.34894  -0.34355  -0.34006
 Alpha  occ. eigenvalues --   -0.33907  -0.33797  -0.33427  -0.32643  -0.32358
 Alpha  occ. eigenvalues --   -0.32245  -0.32008  -0.29609  -0.29342  -0.29011
 Alpha  occ. eigenvalues --   -0.28689  -0.26182  -0.24996  -0.24598  -0.24555
 Alpha  occ. eigenvalues --   -0.24372  -0.24272  -0.23916  -0.23680  -0.23400
 Alpha  occ. eigenvalues --   -0.21386
 Alpha virt. eigenvalues --   -0.01163  -0.00227  -0.00017   0.00470   0.00594
 Alpha virt. eigenvalues --    0.00953   0.01123   0.01346   0.06447   0.07010
 Alpha virt. eigenvalues --    0.09064   0.09438   0.09944   0.10034   0.10225

 Mulliken charges:
               1
     1  C   -0.678697
     2  Si   0.846473
     3  C   -0.695683
     4  C   -0.517250
     5  C    0.147876
     6  C   -0.330983
     7  C    0.143125
     8  O   -0.634366
     9  C   -0.136483
    10  C   -0.353024
    11  C    0.155248
    12  C   -0.184051
    13  C   -0.128605
    14  C   -0.131290
    15  C   -0.131396
    16  C   -0.179206
    17  C   -0.016391
    18  O   -0.506830
    19  C   -0.356523
    20  C    0.119053
    21  C   -0.167630
    22  C   -0.141298
    23  C   -0.129087
    24  C   -0.133242
    25  C   -0.189468
    26  C    0.116730
    27  C   -0.174981
    28  C   -0.132790
    29  C   -0.128644
    30  C   -0.140952
    31  C   -0.174848
    32  C    0.127111
    33  C   -0.176941
    34  C   -0.141270
    35  C   -0.129292
    36  C   -0.134378
    37  C   -0.187242
    38  H    0.168524
    39  H    0.156038
    40  H    0.180860
    41  H    0.164766
    42  H    0.158370
    43  H    0.176689
    44  H    0.157198
    45  H    0.154376
    46  H    0.116625
    47  H    0.151599
    48  H    0.137663
    49  H    0.128451
    50  H    0.392739
    51  H    0.142390
    52  H    0.169556
    53  H    0.136999
    54  H    0.119864
    55  H    0.126217
    56  H    0.125435
    57  H    0.124885
    58  H    0.139510
    59  H    0.137441
    60  H    0.139943
    61  H    0.139694
    62  H    0.127324
    63  H    0.125933
    64  H    0.127016
    65  H    0.145318
    66  H    0.147412
    67  H    0.128574
    68  H    0.126780
    69  H    0.126389
    70  H    0.136005
    71  H    0.143241
    72  H    0.127492
    73  H    0.125640
    74  H    0.127009
    75  H    0.147257
 Sum of Mulliken charges =  -0.00000

 Dipole moment (field-independent basis, Debye):
    X=              0.1967    Y=              1.0090    Z=             -1.4279  Tot=              1.7594
 Quadrupole moment (field-independent basis, Debye-Ang):
   XX=           -231.2897   YY=           -210.9886   ZZ=           -218.7279
   XY=              0.8075   XZ=             -7.0172   YZ=             -2.8469

 Normal termination of Gaussian 16 at Sat Nov  5 12:36:41 2022.
