 Gaussian 16, Revision B.01,
 Gaussian 16:  ES64L-G16RevB.01 20-Dec-2017

 -----------------------------
 #p b3lyp/6-31g(d) opt SCF=XQC
 -----------------------------

 ------------------------------
 Gaussian input prepared by ASE
 ------------------------------
 Symbolic Z-matrix:
 Charge =  0 Multiplicity = 1

 SCF Done:  E(RB3LYP) =  -1758.43419386     A.U. after   14 cycles
 SCF Done:  E(RB3LYP) =  -1758.44564258     A.U. after   12 cycles
 SCF Done:  E(RB3LYP) =  -1758.44546229     A.U. after   12 cycles
 SCF Done:  E(RB3LYP) =  -1758.44555207     A.U. after   12 cycles
 SCF Done:  E(RB3LYP) =  -1758.44649154     A.U. after   11 cycles
 SCF Done:  E(RB3LYP) =  -1758.44675110     A.U. after   11 cycles
 SCF Done:  E(RB3LYP) =  -1758.44684547     A.U. after   11 cycles
 SCF Done:  E(RB3LYP) =  -1758.44692522     A.U. after   10 cycles
 SCF Done:  E(RB3LYP) =  -1758.44699217     A.U. after   10 cycles
 SCF Done:  E(RB3LYP) =  -1758.44704724     A.U. after   10 cycles
 SCF Done:  E(RB3LYP) =  -1758.44717713     A.U. after    9 cycles
 SCF Done:  E(RB3LYP) =  -1758.44717747     A.U. after    9 cycles
 SCF Done:  E(RB3LYP) =  -1758.44717806     A.U. after    9 cycles
 SCF Done:  E(RB3LYP) =  -1758.44717814     A.U. after    9 cycles
 SCF Done:  E(RB3LYP) =  -1758.44717841     A.U. after    7 cycles
 SCF Done:  E(RB3LYP) =  -1758.44717845     A.U. after    7 cycles
 SCF Done:  E(RB3LYP) =  -1758.44717858     A.U. after    7 cycles
 SCF Done:  E(RB3LYP) =  -1758.44717859     A.U. after    7 cycles
 SCF Done:  E(RB3LYP) =  -1758.44717857     A.U. after    6 cycles
 SCF Done:  E(RB3LYP) =  -1758.44717856     A.U. after    6 cycles
 Optimization completed.
    -- Stationary point found.

                         Standard orientation:
 ---------------------------------------------------------------------
 Center     Atomic      Atomic             Coordinates (Angstroms)
 Number     Number       Type             X           Y           Z
 ---------------------------------------------------------------------
      1          6           0       -1.495996   -1.159114   -2.469293
      2         14           0       -1.247786   -0.089474   -0.925294
      3          6           0       -0.527777    1.563516   -1.522486
      4          6           0        0.015567   -0.969480    0.226480
      5          6           0        1.488208   -0.652713   -0.046634
      6          6           0        2.448639   -1.481292    0.814378
      7          6           0        3.939484   -1.165680    0.531051
      8          8           0        4.717066   -2.370637    0.556890
      9          6           0        4.097460   -0.527350   -0.864564
     10          6           0        5.537945   -0.588529   -1.421021
     11          6           0        6.535099    0.235222   -0.628821
     12          6           0        6.720905    1.594424   -0.918722
     13          6           0        7.624803    2.369200   -0.190804
     14          6           0        8.364218    1.793621    0.844053
     15          6           0        8.190076    0.441106    1.142726
     16          6           0        7.283867   -0.330274    0.413053
     17          6           0        3.085447   -1.161640   -1.821704
     18          8           0        1.729387   -0.895784   -1.442282
     19          6           0       -2.966001    0.155349    0.080835
     20          6           0       -4.115057    0.177492   -0.954533
     21          6           0       -4.092140    1.121005   -1.999938
     22          6           0       -5.110736    1.191563   -2.947334
     23          6           0       -6.200358    0.320635   -2.876144
     24          6           0       -6.254075   -0.605250   -1.837360
     25          6           0       -5.228587   -0.672703   -0.888995
     26          6           0       -2.943170    1.489844    0.864366
     27          6           0       -4.081411    2.306212    0.963466
     28          6           0       -4.072401    3.485516    1.712006
     29          6           0       -2.923366    3.883464    2.392954
     30          6           0       -1.785553    3.078545    2.323496
     31          6           0       -1.801035    1.902241    1.574478
     32          6           0       -3.097588   -1.037826    1.057370
     33          6           0       -3.050050   -2.361931    0.577514
     34          6           0       -3.150649   -3.457685    1.432281
     35          6           0       -3.305928   -3.267535    2.806863
     36          6           0       -3.367642   -1.967382    3.302098
     37          6           0       -3.268068   -0.870771    2.440538
     38          1           0       -2.193734   -0.702605   -3.177982
     39          1           0       -1.852708   -2.171109   -2.252725
     40          1           0       -0.517501   -1.255344   -2.953260
     41          1           0       -0.421165    2.311085   -0.731679
     42          1           0       -1.132073    2.006971   -2.321062
     43          1           0        0.463585    1.355264   -1.940902
     44          1           0       -0.135915   -2.051810    0.121171
     45          1           0       -0.200826   -0.743245    1.277782
     46          1           0        1.664262    0.416617    0.161470
     47          1           0        2.279590   -2.540616    0.580636
     48          1           0        2.210993   -1.337683    1.875624
     49          1           0        4.332130   -0.465181    1.281982
     50          1           0        4.562528   -2.797457    1.413869
     51          1           0        3.827230    0.532723   -0.763014
     52          1           0        5.860855   -1.632952   -1.460876
     53          1           0        5.512751   -0.218452   -2.454449
     54          1           0        6.156100    2.048693   -1.730827
     55          1           0        7.756318    3.420009   -0.436554
     56          1           0        9.072744    2.393112    1.409668
     57          1           0        8.764562   -0.017175    1.944106
     58          1           0        7.140140   -1.379916    0.652409
     59          1           0        3.201007   -0.760418   -2.834932
     60          1           0        3.252784   -2.248294   -1.871117
     61          1           0       -3.273106    1.830363   -2.059819
     62          1           0       -5.053534    1.932829   -3.740541
     63          1           0       -6.996187    0.370861   -3.614400
     64          1           0       -7.100721   -1.282100   -1.752606
     65          1           0       -5.308433   -1.397305   -0.087353
     66          1           0       -4.992344    2.019609    0.450494
     67          1           0       -4.973808    4.091281    1.761658
     68          1           0       -2.914189    4.802728    2.972417
     69          1           0       -0.880246    3.363684    2.853648
     70          1           0       -0.904939    1.290619    1.558370
     71          1           0       -2.953853   -2.540816   -0.487959
     72          1           0       -3.109762   -4.462753    1.019746
     73          1           0       -3.382969   -4.119626    3.476909
     74          1           0       -3.499251   -1.794686    4.367461
     75          1           0       -3.327717    0.126307    2.859960
 ---------------------------------------------------------------------

 The electronic state is 1-A.
 Alpha  occ. eigenvalues --  -66.12154 -19.15037 -19.14109 -10.23863 -10.23773
 Alpha  occ. eigenvalues --  -10.22538 -10.19797 -10.19608 -10.19544 -10.19416
 Alpha  occ. eigenvalues --  -10.19208 -10.18968 -10.18662 -10.18591 -10.18489
 Alpha  occ. eigenvalues --  -10.18481 -10.18461 -10.18459 -10.18457 -10.18432
 Alpha  occ. eigenvalues --  -10.18401 -10.18387 -10.18381 -10.18376 -10.18307
 Alpha  occ. eigenvalues --  -10.18301 -10.18243 -10.18210 -10.18195 -10.18008
 Alpha  occ. eigenvalues --  -10.17978 -10.17952 -10.17869 -10.17804 -10.16242
 Alpha  occ. eigenvalues --  -10.15062 -10.14791  -5.26380  -3.62318  -3.62246
 Alpha  occ. eigenvalues --   -3.62218  -1.02591  -1.01766  -0.86217  -0.84897
 Alpha  occ. eigenvalues --   -0.84358  -0.84228  -0.80502  -0.78814  -0.78434
 Alpha  occ. eigenvalues --   -0.75166  -0.74219  -0.74117  -0.73617  -0.73606
 Alpha  occ. eigenvalues --   -0.73162  -0.73099  -0.70606  -0.68645  -0.66545
 Alpha  occ. eigenvalues --   -0.66342  -0.66205  -0.64111  -0.60621  -0.60425
 Alpha  occ. eigenvalues --   -0.60176  -0.59711  -0.59369  -0.58734  -0.58658
 Alpha  occ. eigenvalues --   -0.57273  -0.55546  -0.54178  -0.52558  -0.51221
 Alpha  occ. eigenvalues --   -0.51038  -0.50365  -0.49624  -0.48252  -0.47652
 Alpha  occ. eigenvalues --   -0.47081  -0.45785  -0.45665  -0.45452  -0.45063
 Alpha  occ. eigenvalues --   -0.44662  -0.44129  -0.44041  -0.43555  -0.43055
 Alpha  occ. eigenvalues --   -0.42131  -0.41590  -0.41488  -0.41461  -0.41223
 Alpha  occ. eigenvalues --   -0.40971  -0.40763  -0.40568  -0.40064  -0.39468
 Alpha  occ. eigenvalues --   -0.39227  -0.38818  -0.38176  -0.38032  -0.37590
 Alpha  occ. eigenvalues --   -0.37363  -0.36788  -0.36599  -0.35833  -0.35420
 Alpha  occ. eigenvalues --   -0.35400  -0.35117  -0.34894  -0.34355  -0.34006
 Alpha  occ. eigenvalues --   -0.33907  -0.33797  -0.33427  -0.32643  -0.32358
 Alpha  occ. eigenvalues --   -0.32245  -0.32008  -0.29608  -0.29342  -0.29011
 Alpha  occ. eigenvalues --   -0.28689  -0.26182  -0.24996  -0.24598  -0.24555
 Alpha  occ. eigenvalues --   -0.24372  -0.24272  -0.23916  -0.23680  -0.23400
 Alpha  occ. eigenvalues --   -0.21386
 Alpha virt. eigenvalues --   -0.01162  -0.00227  -0.00017   0.00470   0.00594
 Alpha virt. eigenvalues --    0.00953   0.01123   0.01346   0.06447   0.07010
 Alpha virt. eigenvalues --    0.09063   0.09438   0.09943   0.10034   0.10225

 Mulliken charges:
               1
     1  C   -0.678696
     2  Si   0.846294
     3  C   -0.695633
     4  C   -0.517250
     5  C    0.147889
     6  C   -0.330971
     7  C    0.143115
     8  O   -0.634357
     9  C   -0.136472
    10  C   -0.353028
    11  C    0.155224
    12  C   -0.184046
    13  C   -0.128604
    14  C   -0.131292
    15  C   -0.131396
    16  C   -0.179188
    17  C   -0.016390
    18  O   -0.506827
    19  C   -0.356464
    20  C    0.119023
    21  C   -0.167614
    22  C   -0.141292
    23  C   -0.129097
    24  C   -0.133228
    25  C   -0.189475
    26  C    0.116704
    27  C   -0.174977
    28  C   -0.132785
    29  C   -0.128643
    30  C   -0.140963
    31  C   -0.174817
    32  C    0.127103
    33  C   -0.176927
    34  C   -0.141269
    35  C   -0.129300
    36  C   -0.134374
    37  C   -0.187244
    38  H    0.168531
    39  H    0.156043
    40  H    0.180868
    41  H    0.164774
    42  H    0.158370
    43  H    0.176690
    44  H    0.157205
    45  H    0.154380
    46  H    0.116624
    47  H    0.151596
    48  H    0.137660
    49  H    0.128450
    50  H    0.392738
    51  H    0.142390
    52  H    0.169558
    53  H    0.137000
    54  H    0.119865
    55  H    0.126216
    56  H    0.125435
    57  H    0.124885
    58  H    0.139507
    59  H    0.137439
    60  H    0.139944
    61  H    0.139698
    62  H    0.127323
    63  H    0.125933
    64  H    0.127014
    65  H    0.145318
    66  H    0.147411
    67  H    0.128573
    68  H    0.126780
    69  H    0.126391
    70  H    0.136019
    71  H    0.143241
    72  H    0.127492
    73  H    0.125641
    74  H    0.127009
    75  H    0.147259
 Sum of Mulliken charges =  -0.00000

 Dipole moment (field-independent basis, Debye):
    X=              0.4805    Y=             -0.1398    Z=              1.6867  Tot=              1.7594
 Quadrupole moment (field-independent basis, Debye-Ang):
   XX=           -228.8187   YY=           -215.2556   ZZ=           -216.9108
   XY=              1.4495   XZ=              9.2212   YZ=             -4.8011

 Normal termination of Gaussian 16 at Fri Nov  4 22:05:31 2022.
