 Gaussian 16, Revision B.01,
 Gaussian 16:  ES64L-G16RevB.01 20-Dec-2017

 -----------------------------
 #p b3lyp/6-31g(d) opt SCF=XQC
 -----------------------------

 ------------------------------
 Gaussian input prepared by ASE
 ------------------------------
 Symbolic Z-matrix:
 Charge =  0 Multiplicity = 1

 SCF Done:  E(RB3LYP) =  -1650.04293709     A.U. after   15 cycles
 SCF Done:  E(RB3LYP) =  -1650.05212492     A.U. after   14 cycles
 SCF Done:  E(RB3LYP) =  -1650.05370534     A.U. after   12 cycles
 SCF Done:  E(RB3LYP) =  -1650.05410673     A.U. after   12 cycles
 SCF Done:  E(RB3LYP) =  -1650.05423029     A.U. after   11 cycles
 SCF Done:  E(RB3LYP) =  -1650.05436495     A.U. after   11 cycles
 SCF Done:  E(RB3LYP) =  -1650.05444913     A.U. after   12 cycles
 SCF Done:  E(RB3LYP) =  -1650.05451414     A.U. after   11 cycles
 SCF Done:  E(RB3LYP) =  -1650.05468418     A.U. after   12 cycles
 SCF Done:  E(RB3LYP) =  -1650.05472294     A.U. after   11 cycles
 SCF Done:  E(RB3LYP) =  -1650.05493041     A.U. after   11 cycles
 SCF Done:  E(RB3LYP) =  -1650.05493931     A.U. after   11 cycles
 SCF Done:  E(RB3LYP) =  -1650.05493006     A.U. after   12 cycles
 SCF Done:  E(RB3LYP) =  -1650.05494023     A.U. after   12 cycles
 SCF Done:  E(RB3LYP) =  -1650.05493782     A.U. after   11 cycles
 SCF Done:  E(RB3LYP) =  -1650.05494044     A.U. after   11 cycles
 SCF Done:  E(RB3LYP) =  -1650.05494026     A.U. after    9 cycles
 SCF Done:  E(RB3LYP) =  -1650.05494045     A.U. after    8 cycles
 SCF Done:  E(RB3LYP) =  -1650.05494062     A.U. after    9 cycles
 SCF Done:  E(RB3LYP) =  -1650.05494064     A.U. after    8 cycles
 Optimization completed.
    -- Stationary point found.

                         Standard orientation:
 ---------------------------------------------------------------------
 Center     Atomic      Atomic             Coordinates (Angstroms)
 Number     Number       Type             X           Y           Z
 ---------------------------------------------------------------------
      1          6           0        6.562091   -2.055774   -0.065338
      2          6           0        7.010073   -0.644990   -0.281616
      3          7           0        8.255470   -0.325038   -0.539283
      4          6           0        8.293184    1.054479   -0.622676
      5          6           0        7.061428    1.587226   -0.397987
      6          7           0        6.211321    0.499768   -0.186560
      7          6           0        4.839841    0.644014    0.100122
      8          6           0        3.915358   -0.373537   -0.089041
      9          6           0        2.575004   -0.090613    0.258194
     10          7           0        1.637331   -1.081071    0.103540
     11          6           0        0.246538   -1.108322    0.321714
     12          6           0       -0.509168   -0.024439    0.796311
     13          6           0       -1.881882   -0.172945    0.983873
     14          6           0       -2.529833   -1.376193    0.694660
     15          7           0       -3.943029   -1.479374    0.917002
     16         16           0       -5.013873   -1.166565   -0.390242
     17          8           0       -6.261293   -1.817530    0.024424
     18          8           0       -4.381476   -1.482762   -1.674938
     19          6           0       -5.221285    0.612553   -0.312437
     20          6           0       -4.615584    1.411621   -1.281995
     21          6           0       -4.795178    2.795060   -1.222690
     22          6           0       -5.571814    3.357733   -0.208683
     23          6           0       -6.178836    2.542244    0.751662
     24          6           0       -6.008070    1.160258    0.704125
     25          6           0       -1.776543   -2.451856    0.210201
     26          6           0       -0.405226   -2.322537    0.038449
     27          7           0        2.209369    1.116077    0.721511
     28          6           0        3.188355    2.017709    0.822084
     29          7           0        4.478578    1.862931    0.549731
     30          1           0        5.986345   -2.453383   -0.911576
     31          1           0        5.956828   -2.169798    0.840892
     32          1           0        7.462329   -2.665217    0.035723
     33          1           0        9.215487    1.577121   -0.836404
     34          1           0        6.682058    2.594026   -0.359166
     35          1           0        4.187890   -1.333454   -0.505040
     36          1           0        2.011292   -1.952915   -0.246402
     37          1           0       -0.017131    0.909151    1.025376
     38          1           0       -2.463398    0.656156    1.374333
     39          1           0       -4.244501   -2.371343    1.307550
     40          1           0       -4.026070    0.949813   -2.066263
     41          1           0       -4.330777    3.430214   -1.971493
     42          1           0       -5.710038    4.434660   -0.167535
     43          1           0       -6.789679    2.983122    1.534186
     44          1           0       -6.481427    0.511436    1.433478
     45          1           0       -2.267332   -3.387956   -0.039732
     46          1           0        0.168054   -3.169383   -0.334014
     47          1           0        2.890184    3.001942    1.178892
 ---------------------------------------------------------------------

 The electronic state is 1-A.
 Alpha  occ. eigenvalues --  -89.11067 -19.14485 -19.14292 -14.40568 -14.39939
 Alpha  occ. eigenvalues --  -14.37103 -14.34488 -14.34368 -14.31411 -10.29920
 Alpha  occ. eigenvalues --  -10.29626 -10.27073 -10.25479 -10.25391 -10.23536
 Alpha  occ. eigenvalues --  -10.23186 -10.21993 -10.21644 -10.21534 -10.21358
 Alpha  occ. eigenvalues --  -10.21157 -10.21144 -10.21104 -10.20901 -10.20740
 Alpha  occ. eigenvalues --  -10.20343 -10.20249 -10.19865 -10.19673  -8.13656
 Alpha  occ. eigenvalues --   -6.10147  -6.10064  -6.09954  -1.10944  -1.03230
 Alpha  occ. eigenvalues --   -1.01034  -1.00096  -0.97280  -0.93413  -0.91371
 Alpha  occ. eigenvalues --   -0.87801  -0.87285  -0.85269  -0.80533  -0.78257
 Alpha  occ. eigenvalues --   -0.77837  -0.76733  -0.76288  -0.74723  -0.70558
 Alpha  occ. eigenvalues --   -0.68800  -0.68236  -0.66963  -0.63307  -0.63001
 Alpha  occ. eigenvalues --   -0.62643  -0.60119  -0.59677  -0.58621  -0.56000
 Alpha  occ. eigenvalues --   -0.54962  -0.53938  -0.53313  -0.52263  -0.51225
 Alpha  occ. eigenvalues --   -0.50132  -0.49817  -0.48462  -0.47470  -0.47398
 Alpha  occ. eigenvalues --   -0.46680  -0.46007  -0.45487  -0.45084  -0.44961
 Alpha  occ. eigenvalues --   -0.44401  -0.44286  -0.43927  -0.43651  -0.42766
 Alpha  occ. eigenvalues --   -0.41840  -0.40914  -0.40554  -0.39867  -0.39122
 Alpha  occ. eigenvalues --   -0.38794  -0.38446  -0.36785  -0.36632  -0.36300
 Alpha  occ. eigenvalues --   -0.34265  -0.33153  -0.32177  -0.31259  -0.31207
 Alpha  occ. eigenvalues --   -0.30939  -0.29456  -0.28491  -0.27896  -0.27206
 Alpha  occ. eigenvalues --   -0.26735  -0.26652  -0.26469  -0.26181  -0.22760
 Alpha  occ. eigenvalues --   -0.22012
 Alpha virt. eigenvalues --   -0.05014  -0.04084  -0.03936  -0.02146  -0.01343
 Alpha virt. eigenvalues --   -0.00094   0.03679   0.04924   0.05803   0.06996
 Alpha virt. eigenvalues --    0.08181   0.08528   0.09495   0.09867   0.10652

 Mulliken charges:
               1
     1  C   -0.537969
     2  C    0.479952
     3  N   -0.465304
     4  C   -0.047882
     5  C    0.038460
     6  N   -0.556892
     7  C    0.519404
     8  C   -0.246459
     9  C    0.605472
    10  N   -0.789558
    11  C    0.374868
    12  C   -0.162394
    13  C   -0.150843
    14  C    0.248487
    15  N   -0.784632
    16  S    1.212061
    17  O   -0.547653
    18  O   -0.523712
    19  C   -0.148503
    20  C   -0.139601
    21  C   -0.128374
    22  C   -0.118950
    23  C   -0.130512
    24  C   -0.127832
    25  C   -0.134544
    26  C   -0.217922
    27  N   -0.497892
    28  C    0.192439
    29  N   -0.480628
    30  H    0.165138
    31  H    0.167357
    32  H    0.197298
    33  H    0.140430
    34  H    0.182464
    35  H    0.147287
    36  H    0.337575
    37  H    0.186712
    38  H    0.151280
    39  H    0.357473
    40  H    0.185201
    41  H    0.146859
    42  H    0.144755
    43  H    0.146621
    44  H    0.176193
    45  H    0.146177
    46  H    0.129606
    47  H    0.158487
 Sum of Mulliken charges =  -0.00000

 Dipole moment (field-independent basis, Debye):
    X=             -0.1961    Y=              1.1634    Z=              1.4288  Tot=              1.8530
 Quadrupole moment (field-independent basis, Debye-Ang):
   XX=           -221.9819   YY=           -152.4751   ZZ=           -175.6779
   XY=            -24.7563   XZ=            -11.3285   YZ=             -4.7167

 Normal termination of Gaussian 16 at Fri Nov  4 21:26:09 2022.
