 Gaussian 16, Revision B.01,
 Gaussian 16:  ES64L-G16RevB.01 20-Dec-2017

 -------------------------------------------------------------------
 #p b3lyp/6-31g(d) 6D 10F nosymm GFInput td=(50-50,nstate=2) SCF=XQC
 -------------------------------------------------------------------

 ------------------------------
 Gaussian input prepared by ASE
 ------------------------------
 Symbolic Z-matrix:
 Charge =  0 Multiplicity = 1

                          Input orientation:
 ---------------------------------------------------------------------
 Center     Atomic      Atomic             Coordinates (Angstroms)
 Number     Number       Type             X           Y           Z
 ---------------------------------------------------------------------
      1          6           0       -6.410857    1.519005   -0.144691
      2          6           0       -6.634534    0.535932    0.960439
      3          7           0       -7.829210    0.207211    1.389933
      4          6           0       -7.636771   -0.672715    2.438809
      5          6           0       -6.310189   -0.873466    2.665539
      6          7           0       -5.642172   -0.107138    1.708228
      7          6           0       -4.237740   -0.036100    1.627761
      8          6           0       -3.563878    0.362385    0.481907
      9          6           0       -2.152988    0.401953    0.552553
     10          7           0       -1.454846    0.811500   -0.556060
     11          6           0       -0.075652    0.927632   -0.814873
     12          6           0        0.938574    0.628420    0.108683
     13          6           0        2.272802    0.792512   -0.258040
     14          6           0        2.627402    1.235167   -1.534599
     15          7           0        4.015526    1.398287   -1.856635
     16         16           0        4.848355    0.102867   -2.619344
     17          8           0        6.016860    0.753394   -3.221981
     18          8           0        3.931095   -0.710267   -3.424203
     19          6           0        5.379726   -0.896640   -1.229034
     20          6           0        4.747983   -2.116267   -0.986473
     21          6           0        5.178603   -2.895441    0.089226
     22          6           0        6.225854   -2.453661    0.899206
     23          6           0        6.854153   -1.231823    0.638220
     24          6           0        6.434607   -0.444513   -0.432027
     25          6           0        1.615038    1.521454   -2.457833
     26          6           0        0.281839    1.381348   -2.097720
     27          7           0       -1.495362    0.042328    1.667294
     28          6           0       -2.259705   -0.356047    2.686385
     29          7           0       -3.584837   -0.413746    2.745581
     30          1           0       -6.091643    1.041271   -1.080409
     31          1           0       -5.670196    2.283038    0.116600
     32          1           0       -7.367645    2.009289   -0.335064
     33          1           0       -8.475228   -1.103350    2.968924
     34          1           0       -5.757817   -1.457522    3.381665
     35          1           0       -4.078613    0.609282   -0.436168
     36          1           0       -2.038844    1.065071   -1.341596
     37          1           0        0.674678    0.288143    1.099002
     38          1           0        3.057307    0.585524    0.462888
     39          1           0        4.224150    2.223179   -2.417929
     40          1           0        3.944039   -2.442841   -1.636777
     41          1           0        4.697170   -3.848207    0.289869
     42          1           0        6.558562   -3.064156    1.734175
     43          1           0        7.674608   -0.895450    1.265558
     44          1           0        6.918445    0.500179   -0.656635
     45          1           0        1.873205    1.846481   -3.461492
     46          1           0       -0.494358    1.612858   -2.824664
     47          1           0       -1.727493   -0.666354    3.583822
 ---------------------------------------------------------------------

 SCF Done:  E(RB3LYP) =  -1650.05494229     A.U. after   15 cycles

 Excitation energies and oscillator strengths:

 Excited state symmetry could not be determined.
 Excited State   1:      Triplet-?Sym    3.2352 eV  383.23 nm  f=0.0000  <S**2>=2.000
     102 ->111         0.12751
     104 ->111         0.11177
     106 ->107         0.50787
     106 ->108        -0.12622
     106 ->109         0.31103
     106 ->112         0.16353
 This state for optimization and/or second-order correction.
 Total Energy, E(TD-HF/TD-DFT) =  -1649.93604957
 Copying the excited state density for this state as the 1-particle RhoCI density.

 Excited state symmetry could not be determined.
 Excited State   2:      Triplet-?Sym    3.3410 eV  371.10 nm  f=0.0000  <S**2>=2.000
     105 ->107         0.55418
     105 ->108         0.13355
     105 ->112        -0.15050
     105 ->113        -0.20734
     106 ->107        -0.19831
     106 ->108        -0.10870
     106 ->109         0.14062

 Excited state symmetry could not be determined.
 Excited State   3:      Singlet-?Sym    4.0818 eV  303.75 nm  f=0.3026  <S**2>=0.000
     105 ->107        -0.18322
     106 ->107         0.65090
     106 ->109        -0.14597

 Excited state symmetry could not be determined.
 Excited State   4:      Singlet-?Sym    4.2467 eV  291.95 nm  f=0.0254  <S**2>=0.000
     105 ->107         0.63340
     105 ->108         0.13607
     105 ->109        -0.15371
     106 ->107         0.12873
     106 ->109        -0.16019

 Alpha  occ. eigenvalues --  -89.11067 -19.14485 -19.14292 -14.40568 -14.39939
 Alpha  occ. eigenvalues --  -14.37103 -14.34488 -14.34368 -14.31411 -10.29919
 Alpha  occ. eigenvalues --  -10.29626 -10.27073 -10.25479 -10.25391 -10.23536
 Alpha  occ. eigenvalues --  -10.23186 -10.21993 -10.21644 -10.21534 -10.21358
 Alpha  occ. eigenvalues --  -10.21157 -10.21144 -10.21104 -10.20901 -10.20740
 Alpha  occ. eigenvalues --  -10.20343 -10.20249 -10.19865 -10.19673  -8.13656
 Alpha  occ. eigenvalues --   -6.10147  -6.10064  -6.09954  -1.10944  -1.03230
 Alpha  occ. eigenvalues --   -1.01034  -1.00096  -0.97280  -0.93413  -0.91371
 Alpha  occ. eigenvalues --   -0.87801  -0.87285  -0.85269  -0.80533  -0.78257
 Alpha  occ. eigenvalues --   -0.77837  -0.76733  -0.76288  -0.74723  -0.70558
 Alpha  occ. eigenvalues --   -0.68800  -0.68236  -0.66963  -0.63307  -0.63001
 Alpha  occ. eigenvalues --   -0.62643  -0.60119  -0.59677  -0.58621  -0.56000
 Alpha  occ. eigenvalues --   -0.54962  -0.53938  -0.53313  -0.52263  -0.51225
 Alpha  occ. eigenvalues --   -0.50132  -0.49817  -0.48462  -0.47470  -0.47398
 Alpha  occ. eigenvalues --   -0.46680  -0.46007  -0.45487  -0.45084  -0.44961
 Alpha  occ. eigenvalues --   -0.44401  -0.44286  -0.43927  -0.43651  -0.42766
 Alpha  occ. eigenvalues --   -0.41840  -0.40914  -0.40554  -0.39867  -0.39122
 Alpha  occ. eigenvalues --   -0.38794  -0.38446  -0.36785  -0.36632  -0.36300
 Alpha  occ. eigenvalues --   -0.34265  -0.33153  -0.32177  -0.31259  -0.31207
 Alpha  occ. eigenvalues --   -0.30939  -0.29456  -0.28491  -0.27896  -0.27206
 Alpha  occ. eigenvalues --   -0.26735  -0.26652  -0.26469  -0.26181  -0.22760
 Alpha  occ. eigenvalues --   -0.22012
 Alpha virt. eigenvalues --   -0.05014  -0.04084  -0.03936  -0.02146  -0.01343
 Alpha virt. eigenvalues --   -0.00094   0.03679   0.04924   0.05803   0.06996
 Alpha virt. eigenvalues --    0.08180   0.08528   0.09495   0.09866   0.10652

 Mulliken charges:
               1
     1  C   -0.537966
     2  C    0.479941
     3  N   -0.465302
     4  C   -0.047887
     5  C    0.038458
     6  N   -0.556879
     7  C    0.519399
     8  C   -0.246453
     9  C    0.605481
    10  N   -0.789561
    11  C    0.374871
    12  C   -0.162394
    13  C   -0.150851
    14  C    0.248491
    15  N   -0.784617
    16  S    1.212010
    17  O   -0.547643
    18  O   -0.523711
    19  C   -0.148487
    20  C   -0.139598
    21  C   -0.128371
    22  C   -0.118952
    23  C   -0.130511
    24  C   -0.127831
    25  C   -0.134531
    26  C   -0.217929
    27  N   -0.497898
    28  C    0.192438
    29  N   -0.480629
    30  H    0.165139
    31  H    0.167358
    32  H    0.197299
    33  H    0.140430
    34  H    0.182464
    35  H    0.147285
    36  H    0.337575
    37  H    0.186715
    38  H    0.151279
    39  H    0.357472
    40  H    0.185201
    41  H    0.146860
    42  H    0.144754
    43  H    0.146621
    44  H    0.176192
    45  H    0.146176
    46  H    0.129606
    47  H    0.158487
 Sum of Mulliken charges =  -0.00000

 Dipole moment (field-independent basis, Debye):
    X=              0.6751    Y=              0.4525    Z=              1.6652  Tot=              1.8530
 Quadrupole moment (field-independent basis, Debye-Ang):
   XX=           -205.1886   YY=           -162.6348   ZZ=           -182.5318
   XY=             -5.6696   XZ=             37.1655   YZ=            -12.9320

 Normal termination of Gaussian 16 at Sat Nov  5 12:15:12 2022.
