 Gaussian 16, Revision B.01,
 Gaussian 16:  ES64L-G16RevB.01 20-Dec-2017

 -----------------------------
 #p b3lyp/6-31g(d) opt SCF=XQC
 -----------------------------

 ------------------------------
 Gaussian input prepared by ASE
 ------------------------------
 Symbolic Z-matrix:
 Charge =  0 Multiplicity = 1

 SCF Done:  E(RB3LYP) =  -1182.91482575     A.U. after   15 cycles
 SCF Done:  E(RB3LYP) =  -1182.92108337     A.U. after   14 cycles
 SCF Done:  E(RB3LYP) =  -1182.92211256     A.U. after   12 cycles
 SCF Done:  E(RB3LYP) =  -1182.92252186     A.U. after   12 cycles
 SCF Done:  E(RB3LYP) =  -1182.92257476     A.U. after   11 cycles
 SCF Done:  E(RB3LYP) =  -1182.92263638     A.U. after   10 cycles
 SCF Done:  E(RB3LYP) =  -1182.92265294     A.U. after    9 cycles
 SCF Done:  E(RB3LYP) =  -1182.92265743     A.U. after    9 cycles
 SCF Done:  E(RB3LYP) =  -1182.92265855     A.U. after    8 cycles
 SCF Done:  E(RB3LYP) =  -1182.92265910     A.U. after    8 cycles
 SCF Done:  E(RB3LYP) =  -1182.92265937     A.U. after    8 cycles
 SCF Done:  E(RB3LYP) =  -1182.92265949     A.U. after    7 cycles
 SCF Done:  E(RB3LYP) =  -1182.92265957     A.U. after    7 cycles
 SCF Done:  E(RB3LYP) =  -1182.92265961     A.U. after    6 cycles
 Optimization completed.
    -- Stationary point found.

                         Standard orientation:
 ---------------------------------------------------------------------
 Center     Atomic      Atomic             Coordinates (Angstroms)
 Number     Number       Type             X           Y           Z
 ---------------------------------------------------------------------
      1          6           0        4.458848   -3.202795   -0.787488
      2          8           0        3.960949   -2.528507    0.358778
      3          6           0        3.719205   -1.165247    0.159311
      4          6           0        2.450625   -0.896434   -0.677578
      5          8           0        1.734455   -1.824208   -1.052813
      6          7           0        2.181462    0.407186   -1.012094
      7          6           0        2.716422    1.579926   -0.323141
      8          6           0        1.659424    2.278918    0.527413
      9          6           0        2.081478    3.246774    1.446560
     10          6           0        1.163829    3.930747    2.238858
     11          6           0       -0.196802    3.645803    2.112286
     12          6           0       -0.625719    2.687324    1.197593
     13          6           0        0.287209    1.994859    0.391465
     14          6           0       -0.168981    0.894236   -0.566573
     15          6           0       -1.524852    1.080352   -1.188281
     16          7           0       -2.079757    2.220460   -1.556888
     17          6           0       -3.266149    1.879217   -2.162249
     18          6           0       -3.427136    0.517899   -2.170538
     19          7           0       -2.306124    0.001901   -1.546675
     20          6           0       -2.027969   -1.422121   -1.330865
     21          6           0       -2.221402   -1.893135    0.099465
     22          6           0       -1.211187   -2.592978    0.766341
     23          6           0       -1.447870   -3.041648    2.065853
     24          6           0       -2.684305   -2.770987    2.650251
     25          7           0       -3.663311   -2.095718    2.031777
     26          6           0       -3.422566   -1.673649    0.787106
     27          6           0        0.903204    0.685628   -1.659278
     28          1           0        3.723686   -3.216743   -1.599302
     29          1           0        5.392694   -2.739073   -1.144931
     30          1           0        4.671714   -4.227957   -0.474703
     31          1           0        4.584621   -0.665812   -0.310334
     32          1           0        3.589354   -0.729585    1.157469
     33          1           0        3.569428    1.297308    0.296535
     34          1           0        3.102152    2.278508   -1.080446
     35          1           0        3.144458    3.461974    1.542216
     36          1           0        1.507404    4.676094    2.950988
     37          1           0       -0.925643    4.172006    2.722578
     38          1           0       -1.685121    2.484670    1.087354
     39          1           0       -0.199727   -0.041141    0.007292
     40          1           0       -3.934380    2.632873   -2.556865
     41          1           0       -4.206727   -0.124853   -2.552753
     42          1           0       -2.694606   -1.970481   -2.004858
     43          1           0       -1.004307   -1.642262   -1.647952
     44          1           0       -0.253702   -2.768894    0.280161
     45          1           0       -0.685855   -3.585908    2.615853
     46          1           0       -2.903107   -3.107559    3.662352
     47          1           0       -4.230178   -1.120344    0.308279
     48          1           0        0.654726   -0.147840   -2.314637
     49          1           0        1.002157    1.593799   -2.263933
 ---------------------------------------------------------------------

 The electronic state is 1-A.
 Alpha  occ. eigenvalues --  -19.15547 -19.12678 -14.39197 -14.37439 -14.33050
 Alpha  occ. eigenvalues --  -14.30592 -10.29562 -10.25118 -10.24578 -10.24302
 Alpha  occ. eigenvalues --  -10.23803 -10.22659 -10.22508 -10.22368 -10.22252
 Alpha  occ. eigenvalues --  -10.21117 -10.20999 -10.20954 -10.20683 -10.20338
 Alpha  occ. eigenvalues --  -10.20184 -10.19959 -10.19284 -10.19248 -10.19029
 Alpha  occ. eigenvalues --  -10.18759 -10.18493  -1.05401  -1.02971  -1.01329
 Alpha  occ. eigenvalues --   -0.95298  -0.94055  -0.88499  -0.85844  -0.81405
 Alpha  occ. eigenvalues --   -0.80815  -0.77353  -0.77309  -0.75339  -0.74071
 Alpha  occ. eigenvalues --   -0.72590  -0.70827  -0.69364  -0.66562  -0.63909
 Alpha  occ. eigenvalues --   -0.63268  -0.61826  -0.60841  -0.60005  -0.58761
 Alpha  occ. eigenvalues --   -0.55249  -0.54147  -0.52944  -0.52199  -0.51751
 Alpha  occ. eigenvalues --   -0.50649  -0.49638  -0.49013  -0.48751  -0.47501
 Alpha  occ. eigenvalues --   -0.47272  -0.46412  -0.45814  -0.45153  -0.44446
 Alpha  occ. eigenvalues --   -0.44100  -0.43512  -0.43423  -0.42089  -0.41741
 Alpha  occ. eigenvalues --   -0.41093  -0.40781  -0.40452  -0.39992  -0.39572
 Alpha  occ. eigenvalues --   -0.39161  -0.38827  -0.38457  -0.37925  -0.36745
 Alpha  occ. eigenvalues --   -0.36284  -0.34950  -0.34377  -0.33584  -0.32202
 Alpha  occ. eigenvalues --   -0.28617  -0.27966  -0.27315  -0.26500  -0.26032
 Alpha  occ. eigenvalues --   -0.25759  -0.25161  -0.24961  -0.24373  -0.24078
 Alpha  occ. eigenvalues --   -0.21615
 Alpha virt. eigenvalues --   -0.02432  -0.01833  -0.00562  -0.00171   0.00803
 Alpha virt. eigenvalues --    0.02673   0.06860   0.08152   0.09191   0.09674
 Alpha virt. eigenvalues --    0.09839   0.10968   0.11527   0.11668   0.12871

 Mulliken charges:
               1
     1  C   -0.210922
     2  O   -0.443536
     3  C   -0.118259
     4  C    0.569833
     5  O   -0.523091
     6  N   -0.413394
     7  C   -0.234557
     8  C    0.085742
     9  C   -0.185943
    10  C   -0.126282
    11  C   -0.136051
    12  C   -0.163225
    13  C    0.149158
    14  C   -0.254320
    15  C    0.478839
    16  N   -0.486866
    17  C   -0.039155
    18  C    0.004432
    19  N   -0.427502
    20  C   -0.280238
    21  C    0.141198
    22  C   -0.171568
    23  C   -0.142037
    24  C    0.039438
    25  N   -0.409382
    26  C    0.001945
    27  C   -0.172753
    28  H    0.164870
    29  H    0.124268
    30  H    0.159788
    31  H    0.142990
    32  H    0.175083
    33  H    0.170881
    34  H    0.174699
    35  H    0.119653
    36  H    0.129975
    37  H    0.133296
    38  H    0.149686
    39  H    0.178701
    40  H    0.133423
    41  H    0.150003
    42  H    0.178641
    43  H    0.204445
    44  H    0.191282
    45  H    0.144818
    46  H    0.143879
    47  H    0.145757
    48  H    0.181280
    49  H    0.171078
 Sum of Mulliken charges =  -0.00000

 Dipole moment (field-independent basis, Debye):
    X=              3.0047    Y=             -0.4275    Z=             -0.9515  Tot=              3.1806
 Quadrupole moment (field-independent basis, Debye-Ang):
   XX=           -148.4678   YY=           -159.0488   ZZ=           -153.0593
   XY=              6.5593   XZ=              5.6557   YZ=              7.5146

 Normal termination of Gaussian 16 at Fri Nov  4 21:02:01 2022.
