 Gaussian 16, Revision B.01,
 Gaussian 16:  ES64L-G16RevB.01 20-Dec-2017

 -------------------------------------------------------------------
 #p b3lyp/6-31g(d) 6D 10F nosymm GFInput td=(50-50,nstate=2) SCF=XQC
 -------------------------------------------------------------------

 ------------------------------
 Gaussian input prepared by ASE
 ------------------------------
 Symbolic Z-matrix:
 Charge =  0 Multiplicity = 1

                          Input orientation:
 ---------------------------------------------------------------------
 Center     Atomic      Atomic             Coordinates (Angstroms)
 Number     Number       Type             X           Y           Z
 ---------------------------------------------------------------------
      1          6           0        4.497050    2.370063   -1.628580
      2          8           0        3.602796    1.446915   -2.232403
      3          6           0        3.346000    0.310673   -1.457992
      4          6           0        2.409472    0.596128   -0.264941
      5          8           0        1.923967    1.714551   -0.097970
      6          7           0        2.175623   -0.433172    0.612347
      7          6           0        2.369863   -1.851179    0.316230
      8          6           0        1.045248   -2.587868    0.137460
      9          6           0        1.071484   -3.876390   -0.409103
     10          6           0       -0.101674   -4.605514   -0.581481
     11          6           0       -1.320786   -4.041260   -0.202118
     12          6           0       -1.355607   -2.761592    0.346109
     13          6           0       -0.181733   -2.018964    0.528626
     14          6           0       -0.217996   -0.588536    1.067027
     15          6           0       -1.301982   -0.285419    2.063341
     16          7           0       -1.782140   -1.098430    2.986434
     17          6           0       -2.675199   -0.349058    3.715353
     18          6           0       -2.729030    0.934220    3.236321
     19          7           0       -1.843818    0.977853    2.174895
     20          6           0       -1.553905    2.157274    1.352278
     21          6           0       -2.175463    2.128918   -0.032632
     22          6           0       -1.395925    2.347432   -1.172637
     23          6           0       -2.016555    2.352289   -2.421977
     24          6           0       -3.392302    2.135530   -2.484300
     25          7           0       -4.156732    1.916808   -1.405059
     26          6           0       -3.548533    1.916524   -0.215353
     27          6           0        1.166668   -0.220709    1.645396
     28          1           0        4.074086    2.805000   -0.716643
     29          1           0        5.461784    1.891167   -1.394442
     30          1           0        4.665655    3.161975   -2.362440
     31          1           0        4.280880   -0.148972   -1.092379
     32          1           0        2.863754   -0.411834   -2.127623
     33          1           0        2.987895   -1.969408   -0.575704
     34          1           0        2.934305   -2.302415    1.145752
     35          1           0        2.025485   -4.309282   -0.705536
     36          1           0       -0.065426   -5.602825   -1.011331
     37          1           0       -2.245104   -4.598114   -0.329017
     38          1           0       -2.302300   -2.335826    0.659237
     39          1           0       -0.371188    0.076434    0.207060
     40          1           0       -3.226483   -0.776687    4.542076
     41          1           0       -3.291813    1.805455    3.538324
     42          1           0       -1.920595    3.021876    1.915636
     43          1           0       -0.470242    2.275108    1.259102
     44          1           0       -0.321803    2.496062   -1.081726
     45          1           0       -1.442910    2.515798   -3.329491
     46          1           0       -3.909008    2.134052   -3.442692
     47          1           0       -4.189233    1.728619    0.645957
     48          1           0        1.207336    0.819681    1.964521
     49          1           0        1.396130   -0.862954    2.502740
 ---------------------------------------------------------------------

 SCF Done:  E(RB3LYP) =  -1182.92266074     A.U. after   15 cycles

 Excitation energies and oscillator strengths:

 Excited state symmetry could not be determined.
 Excited State   1:      Triplet-?Sym    3.6800 eV  336.91 nm  f=0.0000  <S**2>=2.000
      91 ->100         0.13132
      93 -> 99        -0.23503
      93 ->100        -0.13235
      94 -> 99        -0.35697
      94 ->100         0.28981
      95 -> 99         0.22388
      95 ->100         0.28176
      96 ->100        -0.16872
 This state for optimization and/or second-order correction.
 Total Energy, E(TD-HF/TD-DFT) =  -1182.78742368
 Copying the excited state density for this state as the 1-particle RhoCI density.

 Excited state symmetry could not be determined.
 Excited State   2:      Triplet-?Sym    3.8291 eV  323.80 nm  f=0.0000  <S**2>=2.000
      86 -> 97        -0.37237
      88 -> 98         0.19048
      89 -> 98        -0.18812
      90 -> 98         0.23824
      91 -> 98        -0.39113
      92 -> 98        -0.15683
      95 -> 98         0.13999

 Excited state symmetry could not be determined.
 Excited State   3:      Singlet-?Sym    4.6270 eV  267.96 nm  f=0.0068  <S**2>=0.000
      96 -> 97         0.70463

 Excited state symmetry could not be determined.
 Excited State   4:      Singlet-?Sym    4.7431 eV  261.40 nm  f=0.0028  <S**2>=0.000
      96 -> 98         0.70374

 Alpha  occ. eigenvalues --  -19.15547 -19.12677 -14.39197 -14.37439 -14.33050
 Alpha  occ. eigenvalues --  -14.30592 -10.29562 -10.25118 -10.24578 -10.24302
 Alpha  occ. eigenvalues --  -10.23803 -10.22659 -10.22508 -10.22368 -10.22252
 Alpha  occ. eigenvalues --  -10.21117 -10.20999 -10.20955 -10.20683 -10.20338
 Alpha  occ. eigenvalues --  -10.20184 -10.19959 -10.19284 -10.19248 -10.19029
 Alpha  occ. eigenvalues --  -10.18759 -10.18493  -1.05401  -1.02970  -1.01329
 Alpha  occ. eigenvalues --   -0.95298  -0.94055  -0.88499  -0.85844  -0.81405
 Alpha  occ. eigenvalues --   -0.80815  -0.77353  -0.77309  -0.75339  -0.74071
 Alpha  occ. eigenvalues --   -0.72590  -0.70827  -0.69364  -0.66562  -0.63909
 Alpha  occ. eigenvalues --   -0.63268  -0.61826  -0.60841  -0.60005  -0.58761
 Alpha  occ. eigenvalues --   -0.55249  -0.54147  -0.52944  -0.52199  -0.51751
 Alpha  occ. eigenvalues --   -0.50649  -0.49638  -0.49013  -0.48751  -0.47501
 Alpha  occ. eigenvalues --   -0.47272  -0.46412  -0.45814  -0.45153  -0.44446
 Alpha  occ. eigenvalues --   -0.44100  -0.43512  -0.43423  -0.42089  -0.41741
 Alpha  occ. eigenvalues --   -0.41093  -0.40781  -0.40453  -0.39992  -0.39571
 Alpha  occ. eigenvalues --   -0.39161  -0.38827  -0.38457  -0.37925  -0.36745
 Alpha  occ. eigenvalues --   -0.36284  -0.34950  -0.34377  -0.33584  -0.32202
 Alpha  occ. eigenvalues --   -0.28617  -0.27966  -0.27315  -0.26500  -0.26032
 Alpha  occ. eigenvalues --   -0.25759  -0.25161  -0.24961  -0.24373  -0.24078
 Alpha  occ. eigenvalues --   -0.21615
 Alpha virt. eigenvalues --   -0.02432  -0.01833  -0.00562  -0.00171   0.00803
 Alpha virt. eigenvalues --    0.02673   0.06860   0.08152   0.09191   0.09674
 Alpha virt. eigenvalues --    0.09839   0.10968   0.11527   0.11668   0.12871

 Mulliken charges:
               1
     1  C   -0.210924
     2  O   -0.443531
     3  C   -0.118265
     4  C    0.569823
     5  O   -0.523092
     6  N   -0.413377
     7  C   -0.234559
     8  C    0.085707
     9  C   -0.185936
    10  C   -0.126285
    11  C   -0.136055
    12  C   -0.163214
    13  C    0.149173
    14  C   -0.254335
    15  C    0.478871
    16  N   -0.486860
    17  C   -0.039165
    18  C    0.004433
    19  N   -0.427518
    20  C   -0.280233
    21  C    0.141161
    22  C   -0.171547
    23  C   -0.142058
    24  C    0.039458
    25  N   -0.409400
    26  C    0.001974
    27  C   -0.172741
    28  H    0.164870
    29  H    0.124268
    30  H    0.159787
    31  H    0.142989
    32  H    0.175085
    33  H    0.170883
    34  H    0.174699
    35  H    0.119652
    36  H    0.129975
    37  H    0.133296
    38  H    0.149682
    39  H    0.178702
    40  H    0.133425
    41  H    0.150004
    42  H    0.178642
    43  H    0.204441
    44  H    0.191286
    45  H    0.144818
    46  H    0.143878
    47  H    0.145756
    48  H    0.181280
    49  H    0.171075
 Sum of Mulliken charges =  -0.00000

 Dipole moment (field-independent basis, Debye):
    X=              3.1723    Y=              0.1523    Z=             -0.1699  Tot=              3.1805
 Quadrupole moment (field-independent basis, Debye-Ang):
   XX=           -154.2168   YY=           -150.1036   ZZ=           -157.4788
   XY=             -5.8407   XZ=             -2.5817   YZ=             10.1337

 Normal termination of Gaussian 16 at Sat Nov  5 12:18:51 2022.
