 Gaussian 16, Revision B.01,
 Gaussian 16:  ES64L-G16RevB.01 20-Dec-2017

 -----------------------------
 #p b3lyp/6-31g(d) opt SCF=XQC
 -----------------------------

 ------------------------------
 Gaussian input prepared by ASE
 ------------------------------
 Symbolic Z-matrix:
 Charge =  0 Multiplicity = 1

 SCF Done:  E(RB3LYP) =  -1471.79869096     A.U. after   15 cycles
 SCF Done:  E(RB3LYP) =  -1471.80805806     A.U. after   14 cycles
 SCF Done:  E(RB3LYP) =  -1471.81077898     A.U. after   13 cycles
 SCF Done:  E(RB3LYP) =  -1471.81205810     A.U. after   12 cycles
 SCF Done:  E(RB3LYP) =  -1471.81216592     A.U. after   12 cycles
 SCF Done:  E(RB3LYP) =  -1471.81232338     A.U. after   11 cycles
 SCF Done:  E(RB3LYP) =  -1471.81240929     A.U. after   10 cycles
 SCF Done:  E(RB3LYP) =  -1471.81251556     A.U. after   12 cycles
 SCF Done:  E(RB3LYP) =  -1471.81254319     A.U. after   10 cycles
 SCF Done:  E(RB3LYP) =  -1471.81257229     A.U. after   10 cycles
 SCF Done:  E(RB3LYP) =  -1471.81271446     A.U. after   10 cycles
 SCF Done:  E(RB3LYP) =  -1471.81271762     A.U. after   10 cycles
 SCF Done:  E(RB3LYP) =  -1471.81271877     A.U. after    9 cycles
 SCF Done:  E(RB3LYP) =  -1471.81271838     A.U. after    9 cycles
 SCF Done:  E(RB3LYP) =  -1471.81271904     A.U. after    9 cycles
 SCF Done:  E(RB3LYP) =  -1471.81271897     A.U. after    9 cycles
 SCF Done:  E(RB3LYP) =  -1471.81271884     A.U. after    8 cycles
 SCF Done:  E(RB3LYP) =  -1471.81271876     A.U. after    8 cycles
 SCF Done:  E(RB3LYP) =  -1471.81271908     A.U. after    9 cycles
 SCF Done:  E(RB3LYP) =  -1471.81271879     A.U. after    9 cycles
 Optimization completed.
    -- Stationary point found.

                         Standard orientation:
 ---------------------------------------------------------------------
 Center     Atomic      Atomic             Coordinates (Angstroms)
 Number     Number       Type             X           Y           Z
 ---------------------------------------------------------------------
      1          6           0       -3.525868   -1.339728    2.843345
      2          6           0       -2.123242   -0.896413    2.382429
      3          6           0       -1.593761   -1.690753    1.205193
      4          6           0       -0.731081   -2.772731    1.425122
      5          6           0       -0.227557   -3.538730    0.373584
      6          6           0       -0.602652   -3.237523   -0.937615
      7          6           0       -1.479300   -2.183846   -1.186300
      8          6           0       -1.965240   -1.403756   -0.127136
      9          7           0       -2.856915   -0.330833   -0.423807
     10         16           0       -2.374524    1.006810   -1.370791
     11          8           0       -3.493557    1.942270   -1.251853
     12          8           0       -1.918406    0.481903   -2.656530
     13          6           0       -0.954490    1.715250   -0.535972
     14          6           0       -1.122374    2.810872    0.309416
     15          6           0       -0.011197    3.309251    0.986381
     16          6           0        1.262308    2.736914    0.857145
     17          6           0        2.418651    3.335505    1.620926
     18          6           0        1.405664    1.614173    0.007273
     19          6           0        2.748619    0.950171   -0.179886
     20          8           0        3.801265    1.585144   -0.183748
     21          7           0        2.705943   -0.404121   -0.364007
     22          6           0        3.920811   -1.205422   -0.542162
     23          6           0        4.528812   -1.605945    0.809527
     24          6           0        3.606050   -2.415448   -1.425491
     25          6           0        0.299305    1.126106   -0.696948
     26          1           0       -3.519839   -2.393844    3.140233
     27          1           0       -4.274742   -1.232957    2.049202
     28          1           0       -3.859111   -0.744470    3.700609
     29          1           0       -1.426516   -1.007910    3.221037
     30          1           0       -2.133205    0.175548    2.145310
     31          1           0       -0.442974   -3.008258    2.447300
     32          1           0        0.440752   -4.370668    0.578359
     33          1           0       -0.232448   -3.834163   -1.766578
     34          1           0       -1.796885   -1.948647   -2.195274
     35          1           0       -3.410515    0.009670    0.355747
     36          1           0       -2.099018    3.271726    0.414533
     37          1           0       -0.132484    4.172199    1.635866
     38          1           0        3.136035    3.799224    0.938281
     39          1           0        2.978325    2.575037    2.174230
     40          1           0        2.059201    4.089713    2.327686
     41          1           0        1.845465   -0.897317   -0.161816
     42          1           0        4.628108   -0.549486   -1.057704
     43          1           0        5.459560   -2.166342    0.663551
     44          1           0        3.837344   -2.239056    1.379744
     45          1           0        4.754956   -0.714238    1.401631
     46          1           0        4.508908   -3.013077   -1.589899
     47          1           0        2.857889   -3.065609   -0.953173
     48          1           0        3.217958   -2.100983   -2.399807
     49          1           0        0.417261    0.307401   -1.397651
 ---------------------------------------------------------------------

 The electronic state is 1-A.
 Alpha  occ. eigenvalues --  -89.11871 -19.14900 -19.14898 -19.11573 -14.37985
 Alpha  occ. eigenvalues --  -14.36160 -10.29288 -10.24603 -10.23364 -10.23082
 Alpha  occ. eigenvalues --  -10.22541 -10.22061 -10.21994 -10.21829 -10.21434
 Alpha  occ. eigenvalues --  -10.21027 -10.20890 -10.20517 -10.20421 -10.20367
 Alpha  occ. eigenvalues --  -10.19994 -10.19610 -10.18735 -10.18608 -10.18133
 Alpha  occ. eigenvalues --   -8.14367  -6.10874  -6.10780  -6.10673  -1.11670
 Alpha  occ. eigenvalues --   -1.03455  -1.00889  -0.94515  -0.92592  -0.88440
 Alpha  occ. eigenvalues --   -0.86085  -0.80324  -0.80183  -0.79253  -0.76547
 Alpha  occ. eigenvalues --   -0.75442  -0.73864  -0.71617  -0.69566  -0.66244
 Alpha  occ. eigenvalues --   -0.65241  -0.65100  -0.62365  -0.61650  -0.60121
 Alpha  occ. eigenvalues --   -0.59150  -0.58227  -0.55552  -0.53996  -0.51035
 Alpha  occ. eigenvalues --   -0.49857  -0.49666  -0.49344  -0.47860  -0.47685
 Alpha  occ. eigenvalues --   -0.46972  -0.45632  -0.45218  -0.44863  -0.44363
 Alpha  occ. eigenvalues --   -0.44149  -0.43691  -0.43352  -0.42508  -0.41603
 Alpha  occ. eigenvalues --   -0.41500  -0.39819  -0.39670  -0.39241  -0.39094
 Alpha  occ. eigenvalues --   -0.38177  -0.37854  -0.37739  -0.37346  -0.37282
 Alpha  occ. eigenvalues --   -0.36753  -0.35981  -0.35448  -0.35072  -0.34572
 Alpha  occ. eigenvalues --   -0.34132  -0.32440  -0.32116  -0.31239  -0.30792
 Alpha  occ. eigenvalues --   -0.27584  -0.26697  -0.26016  -0.25768  -0.24913
 Alpha  occ. eigenvalues --   -0.23930
 Alpha virt. eigenvalues --   -0.04938  -0.04001  -0.01745  -0.01664   0.03906
 Alpha virt. eigenvalues --    0.05240   0.06797   0.07482   0.08373   0.08819
 Alpha virt. eigenvalues --    0.10154   0.10718   0.10844   0.11910   0.12015

 Mulliken charges:
               1
     1  C   -0.444557
     2  C   -0.369474
     3  C    0.169330
     4  C   -0.209475
     5  C   -0.130026
     6  C   -0.154257
     7  C   -0.137618
     8  C    0.190504
     9  N   -0.758974
    10  S    1.211476
    11  O   -0.532982
    12  O   -0.534552
    13  C   -0.154296
    14  C   -0.139443
    15  C   -0.189510
    16  C    0.146368
    17  C   -0.509433
    18  C    0.025716
    19  C    0.557296
    20  O   -0.528139
    21  N   -0.607848
    22  C    0.051967
    23  C   -0.440694
    24  C   -0.460900
    25  C   -0.198515
    26  H    0.160176
    27  H    0.151536
    28  H    0.155271
    29  H    0.154408
    30  H    0.146859
    31  H    0.130742
    32  H    0.135045
    33  H    0.141714
    34  H    0.181598
    35  H    0.359766
    36  H    0.180990
    37  H    0.142233
    38  H    0.200237
    39  H    0.169176
    40  H    0.144158
    41  H    0.331254
    42  H    0.174738
    43  H    0.146420
    44  H    0.134211
    45  H    0.168279
    46  H    0.154007
    47  H    0.139823
    48  H    0.161106
    49  H    0.184289
 Sum of Mulliken charges =  -0.00000

 Dipole moment (field-independent basis, Debye):
    X=              1.1274    Y=             -3.1065    Z=              5.0884  Tot=              6.0674
 Quadrupole moment (field-independent basis, Debye-Ang):
   XX=           -169.7289   YY=           -147.3111   ZZ=           -156.2979
   XY=             -5.9643   XZ=            -11.9424   YZ=              8.4586

 Normal termination of Gaussian 16 at Fri Nov  4 21:47:52 2022.
