 Gaussian 16, Revision B.01,
 Gaussian 16:  ES64L-G16RevB.01 20-Dec-2017

 -------------------------------------------------------------------
 #p b3lyp/6-31g(d) 6D 10F nosymm GFInput td=(50-50,nstate=2) SCF=XQC
 -------------------------------------------------------------------

 ------------------------------
 Gaussian input prepared by ASE
 ------------------------------
 Symbolic Z-matrix:
 Charge =  0 Multiplicity = 1

                          Input orientation:
 ---------------------------------------------------------------------
 Center     Atomic      Atomic             Coordinates (Angstroms)
 Number     Number       Type             X           Y           Z
 ---------------------------------------------------------------------
      1          6           0       -4.088802    2.066853    1.247930
      2          6           0       -2.609674    1.661987    1.091108
      3          6           0       -2.409932    0.178098    0.855760
      4          6           0       -2.100923   -0.663611    1.932469
      5          6           0       -1.918868   -2.036543    1.765334
      6          6           0       -2.064524   -2.599932    0.495672
      7          6           0       -2.396750   -1.792890   -0.590100
      8          6           0       -2.557304   -0.410210   -0.420030
      9          7           0       -2.892541    0.382227   -1.557537
     10         16           0       -1.840908    0.528702   -2.895962
     11          8           0       -2.460780    1.569817   -3.716513
     12          8           0       -1.587576   -0.821947   -3.394225
     13          6           0       -0.297999    1.167650   -2.242903
     14          6           0       -0.026340    2.532955   -2.316367
     15          6           0        1.156018    3.010391   -1.754708
     16          6           0        2.070323    2.167418   -1.106999
     17          6           0        3.331759    2.758794   -0.525745
     18          6           0        1.765194    0.787512   -1.028660
     19          6           0        2.706210   -0.176950   -0.347662
     20          8           0        3.927657   -0.044554   -0.390178
     21          7           0        2.101344   -1.217192    0.301848
     22          6           0        2.867796   -2.233248    1.029796
     23          6           0        3.179745   -1.777452    2.462305
     24          6           0        2.113176   -3.564558    0.988952
     25          6           0        0.592932    0.297539   -1.615086
     26          1           0       -4.546079    1.540469    2.092415
     27          1           0       -4.680704    1.822749    0.357457
     28          1           0       -4.179813    3.144015    1.426044
     29          1           0       -2.069132    1.947494    2.000735
     30          1           0       -2.151350    2.241726    0.279155
     31          1           0       -1.991571   -0.223666    2.921316
     32          1           0       -1.678539   -2.661298    2.621263
     33          1           0       -1.942105   -3.669666    0.351132
     34          1           0       -2.533544   -2.215805   -1.578350
     35          1           0       -3.287099    1.295547   -1.356813
     36          1           0       -0.718496    3.198494   -2.821587
     37          1           0        1.380694    4.071672   -1.821225
     38          1           0        4.211255    2.415340   -1.077291
     39          1           0        3.486887    2.447285    0.511843
     40          1           0        3.292108    3.851817   -0.561438
     41          1           0        1.103944   -1.174518    0.468932
     42          1           0        3.811523   -2.330135    0.485461
     43          1           0        3.790156   -2.525517    2.981382
     44          1           0        2.257299   -1.632846    3.038750
     45          1           0        3.733529   -0.834077    2.446911
     46          1           0        2.683477   -4.342534    1.507461
     47          1           0        1.137125   -3.480952    1.484808
     48          1           0        1.944607   -3.889755   -0.042856
     49          1           0        0.386599   -0.766699   -1.613734
 ---------------------------------------------------------------------

 SCF Done:  E(RB3LYP) =  -1471.81272512     A.U. after   15 cycles

 Excitation energies and oscillator strengths:

 Excited state symmetry could not be determined.
 Excited State   1:      Triplet-?Sym    3.4956 eV  354.68 nm  f=0.0000  <S**2>=2.000
      91 -> 97        -0.25970
      91 -> 98         0.23804
      92 -> 97         0.28644
      92 -> 98         0.21220
      92 ->100         0.12198
      94 -> 97        -0.22958
      95 -> 97         0.17802
      96 -> 97         0.28689
      96 -> 98         0.11326
 This state for optimization and/or second-order correction.
 Total Energy, E(TD-HF/TD-DFT) =  -1471.68426308
 Copying the excited state density for this state as the 1-particle RhoCI density.

 Excited state symmetry could not be determined.
 Excited State   2:      Triplet-?Sym    3.5699 eV  347.31 nm  f=0.0000  <S**2>=2.000
      92 -> 97         0.11448
      92 -> 98         0.12370
      93 -> 99        -0.29724
      93 ->100         0.17314
      96 -> 98        -0.30661
      96 -> 99         0.22518
      96 ->100         0.36619

 Excited state symmetry could not be determined.
 Excited State   3:      Singlet-?Sym    4.4326 eV  279.71 nm  f=0.0040  <S**2>=0.000
      94 -> 97        -0.23465
      94 -> 98         0.11832
      95 -> 97         0.55529
      95 -> 98        -0.22922
      96 -> 97        -0.13384

 Excited state symmetry could not be determined.
 Excited State   4:      Singlet-?Sym    4.5748 eV  271.02 nm  f=0.0493  <S**2>=0.000
      95 -> 97         0.10715
      96 -> 97         0.68644

 Alpha  occ. eigenvalues --  -89.11871 -19.14900 -19.14898 -19.11573 -14.37985
 Alpha  occ. eigenvalues --  -14.36160 -10.29288 -10.24603 -10.23364 -10.23082
 Alpha  occ. eigenvalues --  -10.22541 -10.22061 -10.21994 -10.21829 -10.21434
 Alpha  occ. eigenvalues --  -10.21027 -10.20890 -10.20517 -10.20421 -10.20368
 Alpha  occ. eigenvalues --  -10.19994 -10.19610 -10.18735 -10.18608 -10.18133
 Alpha  occ. eigenvalues --   -8.14367  -6.10874  -6.10780  -6.10673  -1.11670
 Alpha  occ. eigenvalues --   -1.03455  -1.00889  -0.94515  -0.92592  -0.88440
 Alpha  occ. eigenvalues --   -0.86085  -0.80324  -0.80183  -0.79253  -0.76547
 Alpha  occ. eigenvalues --   -0.75442  -0.73864  -0.71617  -0.69566  -0.66244
 Alpha  occ. eigenvalues --   -0.65241  -0.65100  -0.62365  -0.61650  -0.60121
 Alpha  occ. eigenvalues --   -0.59150  -0.58227  -0.55552  -0.53996  -0.51035
 Alpha  occ. eigenvalues --   -0.49857  -0.49666  -0.49344  -0.47861  -0.47685
 Alpha  occ. eigenvalues --   -0.46972  -0.45632  -0.45218  -0.44863  -0.44363
 Alpha  occ. eigenvalues --   -0.44149  -0.43691  -0.43352  -0.42508  -0.41603
 Alpha  occ. eigenvalues --   -0.41500  -0.39819  -0.39670  -0.39241  -0.39094
 Alpha  occ. eigenvalues --   -0.38177  -0.37854  -0.37739  -0.37347  -0.37282
 Alpha  occ. eigenvalues --   -0.36753  -0.35981  -0.35448  -0.35072  -0.34572
 Alpha  occ. eigenvalues --   -0.34132  -0.32440  -0.32116  -0.31239  -0.30792
 Alpha  occ. eigenvalues --   -0.27584  -0.26697  -0.26016  -0.25768  -0.24913
 Alpha  occ. eigenvalues --   -0.23930
 Alpha virt. eigenvalues --   -0.04938  -0.04000  -0.01745  -0.01664   0.03906
 Alpha virt. eigenvalues --    0.05240   0.06797   0.07482   0.08373   0.08819
 Alpha virt. eigenvalues --    0.10154   0.10718   0.10844   0.11910   0.12015

 Mulliken charges:
               1
     1  C   -0.444561
     2  C   -0.369486
     3  C    0.169373
     4  C   -0.209488
     5  C   -0.130022
     6  C   -0.154254
     7  C   -0.137611
     8  C    0.190460
     9  N   -0.758947
    10  S    1.211459
    11  O   -0.532990
    12  O   -0.534546
    13  C   -0.154300
    14  C   -0.139442
    15  C   -0.189509
    16  C    0.146373
    17  C   -0.509433
    18  C    0.025715
    19  C    0.557283
    20  O   -0.528131
    21  N   -0.607840
    22  C    0.051960
    23  C   -0.440694
    24  C   -0.460904
    25  C   -0.198508
    26  H    0.160176
    27  H    0.151537
    28  H    0.155272
    29  H    0.154410
    30  H    0.146862
    31  H    0.130742
    32  H    0.135044
    33  H    0.141714
    34  H    0.181597
    35  H    0.359767
    36  H    0.180989
    37  H    0.142232
    38  H    0.200236
    39  H    0.169177
    40  H    0.144158
    41  H    0.331253
    42  H    0.174738
    43  H    0.146421
    44  H    0.134210
    45  H    0.168279
    46  H    0.154007
    47  H    0.139826
    48  H    0.161108
    49  H    0.184288
 Sum of Mulliken charges =  -0.00000

 Dipole moment (field-independent basis, Debye):
    X=             -0.5548    Y=              0.9506    Z=              5.9667  Tot=              6.0674
 Quadrupole moment (field-independent basis, Debye-Ang):
   XX=           -169.2990   YY=           -138.3483   ZZ=           -171.6415
   XY=             -2.3872   XZ=             -9.4914   YZ=             -3.8258

 Normal termination of Gaussian 16 at Sat Nov  5 12:19:09 2022.
