 Gaussian 16, Revision B.01,
 Gaussian 16:  ES64L-G16RevB.01 20-Dec-2017

 -----------------------------
 #p b3lyp/6-31g(d) opt SCF=XQC
 -----------------------------

 ------------------------------
 Gaussian input prepared by ASE
 ------------------------------
 Symbolic Z-matrix:
 Charge =  0 Multiplicity = 1

 SCF Done:  E(RB3LYP) =  -1392.32661848     A.U. after   15 cycles
 SCF Done:  E(RB3LYP) =  -1392.33299689     A.U. after   12 cycles
 SCF Done:  E(RB3LYP) =  -1392.33347583     A.U. after   11 cycles
 SCF Done:  E(RB3LYP) =  -1392.33369311     A.U. after   11 cycles
 SCF Done:  E(RB3LYP) =  -1392.33380339     A.U. after   11 cycles
 SCF Done:  E(RB3LYP) =  -1392.33390447     A.U. after   11 cycles
 SCF Done:  E(RB3LYP) =  -1392.33390090     A.U. after   11 cycles
 SCF Done:  E(RB3LYP) =  -1392.33408739     A.U. after   11 cycles
 SCF Done:  E(RB3LYP) =  -1392.33435529     A.U. after   14 cycles
 SCF Done:  E(RB3LYP) =  -1392.33450801     A.U. after   12 cycles
 SCF Done:  E(RB3LYP) =  -1392.33460240     A.U. after   10 cycles
 SCF Done:  E(RB3LYP) =  -1392.33459538     A.U. after   10 cycles
 SCF Done:  E(RB3LYP) =  -1392.33460584     A.U. after   11 cycles
 SCF Done:  E(RB3LYP) =  -1392.33460717     A.U. after    8 cycles
 SCF Done:  E(RB3LYP) =  -1392.33460966     A.U. after    9 cycles
 SCF Done:  E(RB3LYP) =  -1392.33461055     A.U. after    9 cycles
 SCF Done:  E(RB3LYP) =  -1392.33461099     A.U. after    8 cycles
 SCF Done:  E(RB3LYP) =  -1392.33461117     A.U. after    7 cycles
 SCF Done:  E(RB3LYP) =  -1392.33461122     A.U. after    7 cycles
 SCF Done:  E(RB3LYP) =  -1392.33461124     A.U. after    6 cycles
 Optimization completed.
    -- Stationary point found.

                         Standard orientation:
 ---------------------------------------------------------------------
 Center     Atomic      Atomic             Coordinates (Angstroms)
 Number     Number       Type             X           Y           Z
 ---------------------------------------------------------------------
      1          6           0        9.627490   -1.989740   -0.763899
      2          8           0        8.354502   -1.326522   -0.821622
      3          6           0        7.626249   -1.376889    0.316439
      4          8           0        8.006420   -1.935522    1.326363
      5          6           0        6.317651   -0.673338    0.185977
      6          6           0        5.468560   -0.659426    1.300374
      7          6           0        4.238342   -0.013557    1.238408
      8          6           0        3.841515    0.618757    0.054043
      9          7           0        2.580641    1.284607   -0.013186
     10          6           0        2.414516    2.669584   -0.128521
     11          6           0        3.565110    3.624713   -0.152278
     12          6           0        1.065921    2.908657   -0.152800
     13          6           0        0.378424    1.654308   -0.056283
     14          6           0       -1.062651    1.520410   -0.075270
     15          7           0       -1.680681    0.398090    0.053912
     16          7           0       -3.041893    0.438693    0.007214
     17          6           0       -3.781445   -0.730824    0.007165
     18          8           0       -3.305813   -1.851579   -0.001846
     19          6           0       -5.245828   -0.472748    0.040846
     20          6           0       -6.001777    0.576085    0.483323
     21          6           0       -7.375711    0.198175    0.291497
     22          6           0       -8.628424    0.788978    0.527230
     23          6           0       -9.769708    0.069895    0.191430
     24          6           0       -9.685083   -1.220524   -0.370064
     25          6           0       -8.455511   -1.828820   -0.610994
     26          6           0       -7.325697   -1.094284   -0.267442
     27          8           0       -6.031665   -1.501362   -0.415892
     28          6           0        1.346384    0.655497    0.032397
     29          6           0        1.203437   -0.830934    0.112718
     30          6           0        4.683554    0.601950   -1.063852
     31          6           0        5.918713   -0.037267   -0.997162
     32          1           0        9.496234   -3.052231   -0.542982
     33          1           0       10.258282   -1.541890    0.008454
     34          1           0       10.071924   -1.853959   -1.750198
     35          1           0        5.794331   -1.153781    2.209385
     36          1           0        3.583465    0.014733    2.103418
     37          1           0        4.194541    3.516099   -1.044401
     38          1           0        3.180372    4.648430   -0.142104
     39          1           0        4.220540    3.504443    0.719738
     40          1           0        0.604075    3.885535   -0.222657
     41          1           0       -1.624901    2.457611   -0.212561
     42          1           0       -3.510063    1.324335   -0.179004
     43          1           0       -5.633961    1.490708    0.928499
     44          1           0       -8.703514    1.782785    0.959586
     45          1           0      -10.748661    0.508067    0.363995
     46          1           0      -10.598623   -1.752955   -0.618724
     47          1           0       -8.372801   -2.821780   -1.039789
     48          1           0        0.174690   -1.109142   -0.120750
     49          1           0        1.882205   -1.338044   -0.583399
     50          1           0        1.424453   -1.215141    1.117607
     51          1           0        4.357589    1.078276   -1.983145
     52          1           0        6.571606   -0.053901   -1.862257
 ---------------------------------------------------------------------

 The electronic state is 1-A.
 Alpha  occ. eigenvalues --  -19.21516 -19.20026 -19.14096 -19.11272 -14.39630
 Alpha  occ. eigenvalues --  -14.39007 -14.36295 -10.32263 -10.29336 -10.25608
 Alpha  occ. eigenvalues --  -10.25178 -10.24757 -10.24651 -10.22947 -10.22034
 Alpha  occ. eigenvalues --  -10.21807 -10.21645 -10.21433 -10.21275 -10.21193
 Alpha  occ. eigenvalues --  -10.21133 -10.20507 -10.20200 -10.19903 -10.19807
 Alpha  occ. eigenvalues --  -10.19704 -10.19466 -10.19323 -10.18137 -10.17650
 Alpha  occ. eigenvalues --  -10.17356  -1.11411  -1.10840  -1.04346  -1.01896
 Alpha  occ. eigenvalues --   -0.99442  -0.99139  -0.87987  -0.85913  -0.85325
 Alpha  occ. eigenvalues --   -0.81487  -0.80347  -0.78063  -0.76879  -0.76344
 Alpha  occ. eigenvalues --   -0.75378  -0.73925  -0.72456  -0.72317  -0.67981
 Alpha  occ. eigenvalues --   -0.64929  -0.64545  -0.63161  -0.62216  -0.60608
 Alpha  occ. eigenvalues --   -0.60445  -0.58765  -0.58141  -0.57087  -0.56134
 Alpha  occ. eigenvalues --   -0.54181  -0.52568  -0.51935  -0.50133  -0.49449
 Alpha  occ. eigenvalues --   -0.49218  -0.48747  -0.48262  -0.47029  -0.46429
 Alpha  occ. eigenvalues --   -0.45910  -0.45343  -0.44595  -0.44454  -0.44129
 Alpha  occ. eigenvalues --   -0.43563  -0.43266  -0.42834  -0.42403  -0.42083
 Alpha  occ. eigenvalues --   -0.41330  -0.41226  -0.40982  -0.40929  -0.39023
 Alpha  occ. eigenvalues --   -0.38904  -0.38684  -0.38091  -0.37839  -0.37187
 Alpha  occ. eigenvalues --   -0.37105  -0.36657  -0.36175  -0.35819  -0.35355
 Alpha  occ. eigenvalues --   -0.34550  -0.34420  -0.30889  -0.29901  -0.28355
 Alpha  occ. eigenvalues --   -0.28092  -0.27999  -0.27272  -0.26542  -0.25320
 Alpha  occ. eigenvalues --   -0.24106  -0.22924  -0.22204  -0.19202
 Alpha virt. eigenvalues --   -0.05931  -0.04946  -0.02242  -0.01407   0.00883
 Alpha virt. eigenvalues --    0.02526   0.03647   0.05178   0.07336   0.08151
 Alpha virt. eigenvalues --    0.09536   0.09645   0.10616   0.10906   0.11632

 Mulliken charges:
               1
     1  C   -0.218062
     2  O   -0.467266
     3  C    0.593115
     4  O   -0.486419
     5  C    0.064858
     6  C   -0.169641
     7  C   -0.143044
     8  C    0.257966
     9  N   -0.596242
    10  C    0.324926
    11  C   -0.523536
    12  C   -0.277336
    13  C    0.043883
    14  C    0.032756
    15  N   -0.232616
    16  N   -0.489735
    17  C    0.566477
    18  O   -0.476752
    19  C    0.270109
    20  C   -0.249943
    21  C    0.118027
    22  C   -0.201854
    23  C   -0.136102
    24  C   -0.144008
    25  C   -0.184874
    26  C    0.331712
    27  O   -0.494575
    28  C    0.298634
    29  C   -0.539324
    30  C   -0.144707
    31  C   -0.175390
    32  H    0.174701
    33  H    0.173638
    34  H    0.166239
    35  H    0.172940
    36  H    0.157791
    37  H    0.159984
    38  H    0.166592
    39  H    0.166296
    40  H    0.120725
    41  H    0.102592
    42  H    0.317709
    43  H    0.149829
    44  H    0.134530
    45  H    0.131630
    46  H    0.135912
    47  H    0.153511
    48  H    0.226028
    49  H    0.157819
    50  H    0.161467
    51  H    0.154285
    52  H    0.164744
 Sum of Mulliken charges =  -0.00000

 Dipole moment (field-independent basis, Debye):
    X=              1.5966    Y=              4.9913    Z=             -1.6007  Tot=              5.4795
 Quadrupole moment (field-independent basis, Debye-Ang):
   XX=           -130.6766   YY=           -172.3493   ZZ=           -177.1265
   XY=            -10.5782   XZ=            -15.3856   YZ=              4.8317

 Normal termination of Gaussian 16 at Fri Nov  4 21:21:08 2022.
