 Gaussian 16, Revision B.01,
 Gaussian 16:  ES64L-G16RevB.01 20-Dec-2017

 -------------------------------------------------------------------
 #p b3lyp/6-31g(d) 6D 10F nosymm GFInput td=(50-50,nstate=2) SCF=XQC
 -------------------------------------------------------------------

 ------------------------------
 Gaussian input prepared by ASE
 ------------------------------
 Symbolic Z-matrix:
 Charge =  0 Multiplicity = 1

                          Input orientation:
 ---------------------------------------------------------------------
 Center     Atomic      Atomic             Coordinates (Angstroms)
 Number     Number       Type             X           Y           Z
 ---------------------------------------------------------------------
      1          6           0       -9.350444    0.097672   -2.465566
      2          8           0       -8.087243   -0.227839   -1.863857
      3          6           0       -7.377641    0.828170   -1.406273
      4          8           0       -7.766012    1.976769   -1.486499
      5          6           0       -6.078242    0.419962   -0.798521
      6          6           0       -5.248446    1.428075   -0.290414
      7          6           0       -4.027658    1.105801    0.292889
      8          6           0       -3.620843   -0.231835    0.365315
      9          7           0       -2.369633   -0.567164    0.965070
     10          6           0       -2.223368   -1.263515    2.170377
     11          6           0       -3.388265   -1.704161    2.998356
     12          6           0       -0.878480   -1.376385    2.404873
     13          6           0       -0.173085   -0.745723    1.327820
     14          6           0        1.270032   -0.693174    1.229637
     15          7           0        1.903352   -0.090179    0.284356
     16          7           0        3.264353   -0.138136    0.330230
     17          6           0        4.022089    0.369369   -0.710434
     18          8           0        3.564351    0.837493   -1.736950
     19          6           0        5.481456    0.301711   -0.431462
     20          6           0        6.213236    0.258428    0.721761
     21          6           0        7.595987    0.258828    0.327672
     22          6           0        8.835094    0.229306    0.989225
     23          6           0        9.993054    0.243861    0.220274
     24          6           0        9.938230    0.288892   -1.187769
     25          6           0        8.722621    0.321413   -1.866853
     26          6           0        7.575753    0.307337   -1.080376
     27          8           0        6.290975    0.336622   -1.539458
     28          6           0       -1.126588   -0.245810    0.442749
     29          6           0       -0.961676    0.465030   -0.862576
     30          6           0       -4.443486   -1.241807   -0.146755
     31          6           0       -5.669397   -0.918158   -0.722130
     32          1           0       -9.206261    0.753744   -3.327947
     33          1           0      -10.001170    0.598135   -1.743701
     34          1           0       -9.780212   -0.855406   -2.774898
     35          1           0       -5.581735    2.458420   -0.354629
     36          1           0       -3.388031    1.880780    0.702999
     37          1           0       -4.000732   -2.468992    2.504614
     38          1           0       -3.019891   -2.130422    3.935759
     39          1           0       -4.056380   -0.870381    3.249159
     40          1           0       -0.430928   -1.854219    3.267338
     41          1           0        1.819725   -1.214069    2.029528
     42          1           0        3.721628   -0.681942    1.060569
     43          1           0        5.823612    0.265498    1.730795
     44          1           0        8.887232    0.194644    2.073800
     45          1           0       10.961941    0.220344    0.711016
     46          1           0       10.864100    0.300233   -1.755664
     47          1           0        8.662792    0.358865   -2.949302
     48          1           0        0.075118    0.382127   -1.191836
     49          1           0       -1.620519    0.047647   -1.633408
     50          1           0       -1.193592    1.535685   -0.783974
     51          1           0       -4.109545   -2.273713   -0.103225
     52          1           0       -6.307222   -1.698193   -1.121706
 ---------------------------------------------------------------------

 SCF Done:  E(RB3LYP) =  -1392.33460754     A.U. after   15 cycles

 Excitation energies and oscillator strengths:

 Excited state symmetry could not be determined.
 Excited State   1:      Triplet-?Sym    2.4863 eV  498.67 nm  f=0.0000  <S**2>=2.000
     109 ->110         0.40698
     109 ->111        -0.39553
     109 ->113        -0.37296
 This state for optimization and/or second-order correction.
 Total Energy, E(TD-HF/TD-DFT) =  -1392.24323754
 Copying the excited state density for this state as the 1-particle RhoCI density.

 Excited state symmetry could not be determined.
 Excited State   2:      Triplet-?Sym    2.9711 eV  417.30 nm  f=0.0000  <S**2>=2.000
     106 ->114        -0.11584
     107 ->110        -0.12932
     107 ->111         0.44058
     107 ->113        -0.15162
     108 ->110         0.10898
     108 ->111        -0.28461
     109 ->110        -0.21867
     109 ->111        -0.26361
     109 ->113         0.10103

 Excited state symmetry could not be determined.
 Excited State   3:      Singlet-?Sym    3.0671 eV  404.23 nm  f=0.0496  <S**2>=0.000
     109 ->110         0.69603

 Excited state symmetry could not be determined.
 Excited State   4:      Singlet-?Sym    3.4754 eV  356.74 nm  f=0.4977  <S**2>=0.000
     109 ->111         0.69637

 Alpha  occ. eigenvalues --  -19.21516 -19.20026 -19.14096 -19.11272 -14.39630
 Alpha  occ. eigenvalues --  -14.39007 -14.36295 -10.32263 -10.29336 -10.25608
 Alpha  occ. eigenvalues --  -10.25178 -10.24757 -10.24651 -10.22947 -10.22034
 Alpha  occ. eigenvalues --  -10.21807 -10.21645 -10.21433 -10.21275 -10.21193
 Alpha  occ. eigenvalues --  -10.21133 -10.20507 -10.20200 -10.19903 -10.19807
 Alpha  occ. eigenvalues --  -10.19704 -10.19466 -10.19323 -10.18137 -10.17650
 Alpha  occ. eigenvalues --  -10.17356  -1.11411  -1.10840  -1.04346  -1.01896
 Alpha  occ. eigenvalues --   -0.99442  -0.99139  -0.87987  -0.85913  -0.85325
 Alpha  occ. eigenvalues --   -0.81487  -0.80347  -0.78063  -0.76879  -0.76344
 Alpha  occ. eigenvalues --   -0.75378  -0.73925  -0.72456  -0.72317  -0.67981
 Alpha  occ. eigenvalues --   -0.64929  -0.64545  -0.63161  -0.62216  -0.60608
 Alpha  occ. eigenvalues --   -0.60445  -0.58765  -0.58141  -0.57087  -0.56134
 Alpha  occ. eigenvalues --   -0.54181  -0.52568  -0.51935  -0.50133  -0.49449
 Alpha  occ. eigenvalues --   -0.49218  -0.48747  -0.48262  -0.47029  -0.46429
 Alpha  occ. eigenvalues --   -0.45910  -0.45343  -0.44595  -0.44454  -0.44129
 Alpha  occ. eigenvalues --   -0.43563  -0.43266  -0.42834  -0.42403  -0.42083
 Alpha  occ. eigenvalues --   -0.41330  -0.41226  -0.40982  -0.40929  -0.39023
 Alpha  occ. eigenvalues --   -0.38904  -0.38684  -0.38091  -0.37839  -0.37187
 Alpha  occ. eigenvalues --   -0.37105  -0.36657  -0.36175  -0.35819  -0.35355
 Alpha  occ. eigenvalues --   -0.34550  -0.34420  -0.30889  -0.29901  -0.28355
 Alpha  occ. eigenvalues --   -0.28092  -0.27999  -0.27272  -0.26542  -0.25320
 Alpha  occ. eigenvalues --   -0.24106  -0.22924  -0.22204  -0.19202
 Alpha virt. eigenvalues --   -0.05931  -0.04946  -0.02242  -0.01407   0.00883
 Alpha virt. eigenvalues --    0.02526   0.03647   0.05178   0.07336   0.08151
 Alpha virt. eigenvalues --    0.09536   0.09645   0.10616   0.10906   0.11632

 Mulliken charges:
               1
     1  C   -0.218058
     2  O   -0.467262
     3  C    0.593103
     4  O   -0.486417
     5  C    0.064864
     6  C   -0.169644
     7  C   -0.143039
     8  C    0.257965
     9  N   -0.596260
    10  C    0.324934
    11  C   -0.523545
    12  C   -0.277337
    13  C    0.043887
    14  C    0.032750
    15  N   -0.232616
    16  N   -0.489734
    17  C    0.566481
    18  O   -0.476755
    19  C    0.270113
    20  C   -0.249947
    21  C    0.118025
    22  C   -0.201860
    23  C   -0.136098
    24  C   -0.144005
    25  C   -0.184882
    26  C    0.331722
    27  O   -0.494574
    28  C    0.298655
    29  C   -0.539326
    30  C   -0.144706
    31  C   -0.175389
    32  H    0.174700
    33  H    0.173637
    34  H    0.166239
    35  H    0.172939
    36  H    0.157789
    37  H    0.159984
    38  H    0.166593
    39  H    0.166298
    40  H    0.120725
    41  H    0.102592
    42  H    0.317709
    43  H    0.149828
    44  H    0.134531
    45  H    0.131630
    46  H    0.135911
    47  H    0.153511
    48  H    0.226027
    49  H    0.157821
    50  H    0.161464
    51  H    0.154282
    52  H    0.164745
 Sum of Mulliken charges =  -0.00000

 Dipole moment (field-independent basis, Debye):
    X=             -1.6476    Y=             -3.5990    Z=              3.7891  Tot=              5.4795
 Quadrupole moment (field-independent basis, Debye-Ang):
   XX=           -132.3096   YY=           -179.9522   ZZ=           -169.7935
   XY=              8.8987   XZ=             18.0483   YZ=              2.1039

 Normal termination of Gaussian 16 at Fri Nov  4 23:27:33 2022.
