 Gaussian 16, Revision B.01,
 Gaussian 16:  ES64L-G16RevB.01 20-Dec-2017

 -----------------------------
 #p b3lyp/6-31g(d) opt SCF=XQC
 -----------------------------

 ------------------------------
 Gaussian input prepared by ASE
 ------------------------------
 Symbolic Z-matrix:
 Charge =  0 Multiplicity = 1

 SCF Done:  E(RB3LYP) =  -787.998314956     A.U. after   14 cycles
 SCF Done:  E(RB3LYP) =  -788.002833412     A.U. after   12 cycles
 SCF Done:  E(RB3LYP) =  -788.002980237     A.U. after   11 cycles
 SCF Done:  E(RB3LYP) =  -788.003009605     A.U. after   11 cycles
 SCF Done:  E(RB3LYP) =  -788.003025182     A.U. after   10 cycles
 SCF Done:  E(RB3LYP) =  -788.003039851     A.U. after   11 cycles
 SCF Done:  E(RB3LYP) =  -788.003045756     A.U. after   10 cycles
 SCF Done:  E(RB3LYP) =  -788.003046135     A.U. after    8 cycles
 SCF Done:  E(RB3LYP) =  -788.003046203     A.U. after    7 cycles
 SCF Done:  E(RB3LYP) =  -788.003046241     A.U. after    7 cycles
 SCF Done:  E(RB3LYP) =  -788.003046271     A.U. after    7 cycles
 SCF Done:  E(RB3LYP) =  -788.003046284     A.U. after    7 cycles
 Optimization completed.
    -- Stationary point found.

                         Standard orientation:
 ---------------------------------------------------------------------
 Center     Atomic      Atomic             Coordinates (Angstroms)
 Number     Number       Type             X           Y           Z
 ---------------------------------------------------------------------
      1          6           0       -5.793987    0.349117    1.810781
      2          8           0       -4.558081    0.837592    1.316152
      3          6           0       -3.867878    0.066041    0.425057
      4          6           0       -4.289862   -1.185453   -0.037449
      5          6           0       -3.490898   -1.873891   -0.955445
      6          6           0       -2.291209   -1.334749   -1.409268
      7          6           0       -1.863194   -0.079440   -0.946995
      8          6           0       -0.540096    0.502211   -1.400293
      9          6           0        0.629736    0.043949   -0.508996
     10          6           0        2.015517    0.588364   -0.961426
     11          6           0        2.020816    2.060390   -0.944233
     12          7           0        2.000345    3.221153   -0.916377
     13          6           0        3.150732    0.005488   -0.121952
     14          6           0        3.790021   -1.163222   -0.551564
     15          6           0        4.788242   -1.753134    0.224331
     16          6           0        5.160877   -1.176995    1.439771
     17          6           0        4.530531   -0.009083    1.872427
     18          6           0        3.530754    0.578984    1.096985
     19          6           0       -2.659033    0.609829   -0.032795
     20          1           0       -6.166530    1.114498    2.494146
     21          1           0       -6.522597    0.199563    1.002781
     22          1           0       -5.666495   -0.594169    2.358669
     23          1           0       -5.222359   -1.623529    0.299132
     24          1           0       -3.820761   -2.843375   -1.320048
     25          1           0       -1.685928   -1.881038   -2.128721
     26          1           0       -0.591755    1.597268   -1.394173
     27          1           0       -0.339982    0.200445   -2.437311
     28          1           0        0.694095   -1.050249   -0.511150
     29          1           0        0.451008    0.346565    0.529220
     30          1           0        2.169929    0.286367   -2.006478
     31          1           0        3.506754   -1.613989   -1.500447
     32          1           0        5.278109   -2.658191   -0.124607
     33          1           0        5.941424   -1.632143    2.043207
     34          1           0        4.819343    0.449903    2.814033
     35          1           0        3.054476    1.496303    1.433153
     36          1           0       -2.362907    1.586525    0.340403
 ---------------------------------------------------------------------

 The electronic state is 1-A.
 Alpha  occ. eigenvalues --  -19.17729 -14.33002 -10.24668 -10.24300 -10.24146
 Alpha  occ. eigenvalues --  -10.22363 -10.21247 -10.20547 -10.20010 -10.19874
 Alpha  occ. eigenvalues --  -10.19780 -10.19742 -10.19714 -10.19690 -10.19469
 Alpha  occ. eigenvalues --  -10.19140 -10.18656 -10.18183 -10.18153  -1.06318
 Alpha  occ. eigenvalues --   -0.90248  -0.86765  -0.85403  -0.82199  -0.77904
 Alpha  occ. eigenvalues --   -0.75482  -0.75255  -0.73833  -0.69879  -0.69418
 Alpha  occ. eigenvalues --   -0.63221  -0.61670  -0.60324  -0.60072  -0.57578
 Alpha  occ. eigenvalues --   -0.53187  -0.52491  -0.51222  -0.48505  -0.48436
 Alpha  occ. eigenvalues --   -0.47346  -0.46825  -0.45387  -0.45011  -0.44062
 Alpha  occ. eigenvalues --   -0.43141  -0.42730  -0.42420  -0.40825  -0.40093
 Alpha  occ. eigenvalues --   -0.38590  -0.37287  -0.36852  -0.36647  -0.36132
 Alpha  occ. eigenvalues --   -0.35433  -0.35069  -0.34758  -0.34492  -0.32466
 Alpha  occ. eigenvalues --   -0.32148  -0.31831  -0.31234  -0.25790  -0.25528
 Alpha  occ. eigenvalues --   -0.24213  -0.21823
 Alpha virt. eigenvalues --   -0.01470  -0.00949   0.00092   0.01294   0.03307
 Alpha virt. eigenvalues --    0.04308   0.08988   0.09308   0.10247   0.10766
 Alpha virt. eigenvalues --    0.11544   0.12545   0.13019   0.13933   0.14421

 Mulliken charges:
               1
     1  C   -0.214654
     2  O   -0.506841
     3  C    0.380327
     4  C   -0.197983
     5  C   -0.136042
     6  C   -0.182159
     7  C    0.169182
     8  C   -0.366550
     9  C   -0.246011
    10  C   -0.252181
    11  C    0.359435
    12  N   -0.484920
    13  C    0.160827
    14  C   -0.176915
    15  C   -0.129699
    16  C   -0.125201
    17  C   -0.133017
    18  C   -0.171093
    19  C   -0.233354
    20  H    0.170348
    21  H    0.151880
    22  H    0.151148
    23  H    0.130175
    24  H    0.129070
    25  H    0.115996
    26  H    0.172020
    27  H    0.141969
    28  H    0.157041
    29  H    0.161865
    30  H    0.181532
    31  H    0.127307
    32  H    0.134885
    33  H    0.134627
    34  H    0.138136
    35  H    0.151268
    36  H    0.137583
 Sum of Mulliken charges =  -0.00000

 Dipole moment (field-independent basis, Debye):
    X=             -1.1625    Y=             -4.4280    Z=              0.7232  Tot=              4.6349
 Quadrupole moment (field-independent basis, Debye-Ang):
   XX=            -92.4390   YY=           -122.5615   ZZ=           -105.4904
   XY=             -6.9630   XZ=             -2.2575   YZ=              6.3871

 Normal termination of Gaussian 16 at Fri Nov  4 20:46:49 2022.
