 Gaussian 16, Revision B.01,
 Gaussian 16:  ES64L-G16RevB.01 20-Dec-2017

 -------------------------------------------------------------------
 #p b3lyp/6-31g(d) 6D 10F nosymm GFInput td=(50-50,nstate=2) SCF=XQC
 -------------------------------------------------------------------

 ------------------------------
 Gaussian input prepared by ASE
 ------------------------------
 Symbolic Z-matrix:
 Charge =  0 Multiplicity = 1

                          Input orientation:
 ---------------------------------------------------------------------
 Center     Atomic      Atomic             Coordinates (Angstroms)
 Number     Number       Type             X           Y           Z
 ---------------------------------------------------------------------
      1          6           0       -5.654298   -1.910631   -0.229911
      2          8           0       -4.430462   -1.598902    0.414900
      3          6           0       -3.746898   -0.490207    0.003494
      4          6           0       -4.164545    0.367287   -1.020468
      5          6           0       -3.373392    1.474081   -1.343096
      6          6           0       -2.185607    1.729749   -0.665096
      7          6           0       -1.761967    0.871239    0.362612
      8          6           0       -0.451167    1.113266    1.082063
      9          6           0        0.736090    0.445239    0.362979
     10          6           0        2.109913    0.699870    1.047995
     11          6           0        2.102219    0.180887    2.425595
     12          7           0        2.071721   -0.242068    3.506681
     13          6           0        3.262896    0.122731    0.229024
     14          6           0        3.906110    0.932852   -0.713907
     15          6           0        4.921223    0.416340   -1.519646
     16          6           0        5.306997   -0.918567   -1.388158
     17          6           0        4.672778   -1.731177   -0.446895
     18          6           0        3.656133   -1.214478    0.356935
     19          6           0       -2.550061   -0.232237    0.687360
     20          1           0       -6.023338   -2.818462    0.250960
     21          1           0       -6.393670   -1.108322   -0.104478
     22          1           0       -5.510046   -2.101847   -1.301756
     23          1           0       -5.087863    0.190249   -1.559810
     24          1           0       -3.699990    2.144251   -2.134202
     25          1           0       -1.586383    2.599239   -0.924571
     26          1           0       -0.512584    0.732837    2.108396
     27          1           0       -0.264052    2.193145    1.155309
     28          1           0        0.810258    0.821788   -0.663726
     29          1           0        0.570368   -0.635817    0.290416
     30          1           0        2.251213    1.786868    1.123143
     31          1           0        3.612593    1.975422   -0.817375
     32          1           0        5.413885    1.058910   -2.244382
     33          1           0        6.100647   -1.321471   -2.011324
     34          1           0        4.971655   -2.769654   -0.333142
     35          1           0        3.176754   -1.849086    1.097741
     36          1           0       -2.257129   -0.913325    1.481850
 ---------------------------------------------------------------------

 SCF Done:  E(RB3LYP) =  -788.003043359     A.U. after   15 cycles

 Excitation energies and oscillator strengths:

 Excited state symmetry could not be determined.
 Excited State   1:      Triplet-?Sym    3.7076 eV  334.41 nm  f=0.0000  <S**2>=2.000
      64 -> 69         0.10656
      65 -> 70         0.17142
      66 -> 68        -0.22805
      66 -> 70         0.35192
      67 -> 70        -0.20151
      67 -> 71         0.47298
 This state for optimization and/or second-order correction.
 Total Energy, E(TD-HF/TD-DFT) =  -787.866792302
 Copying the excited state density for this state as the 1-particle RhoCI density.

 Excited state symmetry could not be determined.
 Excited State   2:      Triplet-?Sym    3.7469 eV  330.90 nm  f=0.0000  <S**2>=2.000
      64 -> 68         0.13151
      64 -> 69         0.44357
      65 -> 68         0.41890
      65 -> 69        -0.13612
      65 -> 70         0.10338
      66 -> 68        -0.16746
      66 -> 70        -0.16001
      67 -> 71        -0.12517

 Excited state symmetry could not be determined.
 Excited State   3:      Singlet-?Sym    5.0223 eV  246.87 nm  f=0.0314  <S**2>=0.000
      66 -> 71         0.22786
      67 -> 68         0.57080
      67 -> 70        -0.32360

 Excited state symmetry could not be determined.
 Excited State   4:      Singlet-?Sym    5.2890 eV  234.42 nm  f=0.0018  <S**2>=0.000
      66 -> 71        -0.14731
      67 -> 68         0.31898
      67 -> 69         0.45367
      67 -> 70         0.38821

 Alpha  occ. eigenvalues --  -19.17729 -14.33002 -10.24668 -10.24300 -10.24146
 Alpha  occ. eigenvalues --  -10.22363 -10.21247 -10.20547 -10.20010 -10.19874
 Alpha  occ. eigenvalues --  -10.19780 -10.19742 -10.19714 -10.19690 -10.19469
 Alpha  occ. eigenvalues --  -10.19140 -10.18656 -10.18183 -10.18153  -1.06319
 Alpha  occ. eigenvalues --   -0.90248  -0.86766  -0.85403  -0.82199  -0.77904
 Alpha  occ. eigenvalues --   -0.75482  -0.75255  -0.73833  -0.69879  -0.69418
 Alpha  occ. eigenvalues --   -0.63221  -0.61670  -0.60324  -0.60072  -0.57578
 Alpha  occ. eigenvalues --   -0.53187  -0.52491  -0.51222  -0.48505  -0.48436
 Alpha  occ. eigenvalues --   -0.47346  -0.46825  -0.45387  -0.45011  -0.44062
 Alpha  occ. eigenvalues --   -0.43141  -0.42730  -0.42420  -0.40825  -0.40093
 Alpha  occ. eigenvalues --   -0.38590  -0.37287  -0.36852  -0.36647  -0.36132
 Alpha  occ. eigenvalues --   -0.35433  -0.35069  -0.34758  -0.34492  -0.32466
 Alpha  occ. eigenvalues --   -0.32148  -0.31831  -0.31234  -0.25790  -0.25528
 Alpha  occ. eigenvalues --   -0.24213  -0.21823
 Alpha virt. eigenvalues --   -0.01470  -0.00949   0.00092   0.01294   0.03307
 Alpha virt. eigenvalues --    0.04308   0.08988   0.09308   0.10247   0.10766
 Alpha virt. eigenvalues --    0.11544   0.12545   0.13019   0.13933   0.14421

 Mulliken charges:
               1
     1  C   -0.214647
     2  O   -0.506853
     3  C    0.380345
     4  C   -0.197994
     5  C   -0.136022
     6  C   -0.182182
     7  C    0.169222
     8  C   -0.366556
     9  C   -0.246010
    10  C   -0.252184
    11  C    0.359437
    12  N   -0.484919
    13  C    0.160807
    14  C   -0.176902
    15  C   -0.129700
    16  C   -0.125202
    17  C   -0.133021
    18  C   -0.171079
    19  C   -0.233380
    20  H    0.170347
    21  H    0.151879
    22  H    0.151146
    23  H    0.130173
    24  H    0.129068
    25  H    0.115995
    26  H    0.172020
    27  H    0.141969
    28  H    0.157040
    29  H    0.161864
    30  H    0.181532
    31  H    0.127307
    32  H    0.134885
    33  H    0.134627
    34  H    0.138137
    35  H    0.151267
    36  H    0.137585
 Sum of Mulliken charges =  -0.00000

 Dipole moment (field-independent basis, Debye):
    X=             -1.1115    Y=              0.8201    Z=             -4.4242  Tot=              4.6348
 Quadrupole moment (field-independent basis, Debye-Ang):
   XX=            -92.6437   YY=           -103.3210   ZZ=           -126.0546
   XY=              4.7357   XZ=             -6.0006   YZ=              0.8093

 Normal termination of Gaussian 16 at Sat Nov  5 12:12:24 2022.
