 Gaussian 16, Revision B.01,
 Gaussian 16:  ES64L-G16RevB.01 20-Dec-2017

 -----------------------------
 #p b3lyp/6-31g(d) opt SCF=XQC
 -----------------------------

 ------------------------------
 Gaussian input prepared by ASE
 ------------------------------
 Symbolic Z-matrix:
 Charge =  0 Multiplicity = 1

 SCF Done:  E(RB3LYP) =  -1398.57483873     A.U. after   15 cycles
 SCF Done:  E(RB3LYP) =  -1398.57892180     A.U. after   15 cycles
 SCF Done:  E(RB3LYP) =  -1398.57426571     A.U. after   14 cycles
 SCF Done:  E(RB3LYP) =  -1398.58081857     A.U. after   13 cycles
 SCF Done:  E(RB3LYP) =  -1398.58227731     A.U. after   14 cycles
 SCF Done:  E(RB3LYP) =  -1398.58236220     A.U. after   13 cycles
 SCF Done:  E(RB3LYP) =  -1398.58392334     A.U. after   13 cycles
 SCF Done:  E(RB3LYP) =  -1398.58425844     A.U. after   12 cycles
 SCF Done:  E(RB3LYP) =  -1398.58440852     A.U. after   12 cycles
 SCF Done:  E(RB3LYP) =  -1398.58448277     A.U. after   11 cycles
 SCF Done:  E(RB3LYP) =  -1398.58601262     A.U. after   11 cycles
 SCF Done:  E(RB3LYP) =  -1398.58604392     A.U. after   10 cycles
 SCF Done:  E(RB3LYP) =  -1398.58605265     A.U. after   10 cycles
 SCF Done:  E(RB3LYP) =  -1398.58605804     A.U. after   10 cycles
 SCF Done:  E(RB3LYP) =  -1398.58606191     A.U. after   10 cycles
 SCF Done:  E(RB3LYP) =  -1398.58606439     A.U. after   10 cycles
 SCF Done:  E(RB3LYP) =  -1398.58606577     A.U. after    8 cycles
 SCF Done:  E(RB3LYP) =  -1398.58606597     A.U. after    8 cycles
 SCF Done:  E(RB3LYP) =  -1398.58606606     A.U. after    9 cycles
 SCF Done:  E(RB3LYP) =  -1398.58606608     A.U. after    7 cycles
 Optimization completed.
    -- Stationary point found.

                         Standard orientation:
 ---------------------------------------------------------------------
 Center     Atomic      Atomic             Coordinates (Angstroms)
 Number     Number       Type             X           Y           Z
 ---------------------------------------------------------------------
      1          8           0       -4.360423    4.308242    0.246043
      2          6           0       -3.425678    3.541858    0.272308
      3          8           0       -2.517320    3.568601    1.262933
      4          6           0       -3.186923    2.484637   -0.811508
      5          6           0       -3.056822    1.039154   -0.254731
      6          7           0       -1.840076    0.336473   -0.699577
      7          6           0       -1.956128   -0.727062   -1.705297
      8          6           0       -2.172908   -2.147047   -1.132259
      9          6           0       -3.454876   -2.318796   -0.344854
     10          6           0       -3.450275   -2.279275    1.055408
     11          6           0       -4.638075   -2.404411    1.778597
     12          6           0       -5.850816   -2.573740    1.109554
     13          6           0       -5.868300   -2.622563   -0.286202
     14          6           0       -4.679313   -2.498065   -1.005183
     15          6           0       -0.661810    0.747576   -0.161941
     16          8           0       -0.596045    1.675683    0.651514
     17          6           0        0.628644    0.045684   -0.618085
     18          8           0        1.690948    0.254264    0.282187
     19          6           0        2.573176    1.280471    0.066731
     20          6           0        2.264030    2.480778   -0.574968
     21          6           0        3.244359    3.465137   -0.729305
     22          6           0        4.532612    3.264197   -0.238193
     23          6           0        4.845963    2.064910    0.405972
     24          6           0        3.879595    1.075274    0.551603
     25          8           0        4.192818   -0.070902    1.257696
     26          6           0        4.259006   -1.284479    0.604355
     27          6           0        4.375976   -1.412590   -0.782000
     28          6           0        4.479017   -2.687589   -1.343176
     29          6           0        4.471981   -3.826283   -0.537191
     30          6           0        4.361434   -3.682060    0.848946
     31          6           0        4.253543   -2.417755    1.423015
     32          1           0       -1.803899    2.903296    1.103577
     33          1           0       -2.268309    2.752779   -1.346867
     34          1           0       -4.013716    2.562014   -1.520287
     35          1           0       -3.060726    1.046501    0.838138
     36          1           0       -3.907642    0.434373   -0.567762
     37          1           0       -2.793360   -0.463155   -2.359566
     38          1           0       -1.063648   -0.725366   -2.338350
     39          1           0       -2.162141   -2.837913   -1.985801
     40          1           0       -1.315148   -2.413572   -0.503522
     41          1           0       -2.508580   -2.152169    1.584579
     42          1           0       -4.613865   -2.371656    2.864410
     43          1           0       -6.775697   -2.672281    1.670926
     44          1           0       -6.807048   -2.763823   -0.815104
     45          1           0       -4.701047   -2.547953   -2.092378
     46          1           0        0.891606    0.391893   -1.628845
     47          1           0        0.488474   -1.037746   -0.661662
     48          1           0        1.248570    2.669930   -0.902356
     49          1           0        2.984982    4.398783   -1.220103
     50          1           0        5.290840    4.033433   -0.349131
     51          1           0        5.838838    1.875111    0.801779
     52          1           0        4.397107   -0.528282   -1.410318
     53          1           0        4.573792   -2.784665   -2.421884
     54          1           0        4.555852   -4.813911   -0.981449
     55          1           0        4.357209   -4.559902    1.489816
     56          1           0        4.163797   -2.285886    2.496635
 ---------------------------------------------------------------------

 The electronic state is 1-A.
 Alpha  occ. eigenvalues --  -19.19144 -19.18551 -19.16128 -19.14939 -19.11141
 Alpha  occ. eigenvalues --  -14.39619 -10.31598 -10.30009 -10.27481 -10.26002
 Alpha  occ. eigenvalues --  -10.25679 -10.25049 -10.24906 -10.24413 -10.21945
 Alpha  occ. eigenvalues --  -10.21438 -10.20556 -10.20524 -10.20492 -10.20395
 Alpha  occ. eigenvalues --  -10.20341 -10.20269 -10.19647 -10.19577 -10.19530
 Alpha  occ. eigenvalues --  -10.19368 -10.19257 -10.19221 -10.18877 -10.18590
 Alpha  occ. eigenvalues --  -10.18563  -1.09050  -1.07453  -1.07055  -1.05720
 Alpha  occ. eigenvalues --   -0.99142  -0.96445  -0.87110  -0.86197  -0.84657
 Alpha  occ. eigenvalues --   -0.81249  -0.79492  -0.77199  -0.76355  -0.75819
 Alpha  occ. eigenvalues --   -0.74664  -0.74548  -0.73500  -0.71836  -0.67720
 Alpha  occ. eigenvalues --   -0.67409  -0.63563  -0.62007  -0.61743  -0.60873
 Alpha  occ. eigenvalues --   -0.60040  -0.59038  -0.58817  -0.56476  -0.55136
 Alpha  occ. eigenvalues --   -0.54297  -0.53297  -0.53004  -0.52289  -0.50560
 Alpha  occ. eigenvalues --   -0.49928  -0.49407  -0.47733  -0.47581  -0.47277
 Alpha  occ. eigenvalues --   -0.47020  -0.46788  -0.46304  -0.45298  -0.44719
 Alpha  occ. eigenvalues --   -0.44482  -0.44059  -0.43550  -0.43337  -0.42725
 Alpha  occ. eigenvalues --   -0.42364  -0.41723  -0.41588  -0.40517  -0.40109
 Alpha  occ. eigenvalues --   -0.39718  -0.39579  -0.39017  -0.37886  -0.37541
 Alpha  occ. eigenvalues --   -0.37222  -0.36887  -0.36428  -0.36277  -0.35426
 Alpha  occ. eigenvalues --   -0.35363  -0.34670  -0.34555  -0.34175  -0.32526
 Alpha  occ. eigenvalues --   -0.32372  -0.29144  -0.28632  -0.27671  -0.26477
 Alpha  occ. eigenvalues --   -0.25753  -0.25171  -0.25157  -0.24626  -0.23098
 Alpha  occ. eigenvalues --   -0.22000
 Alpha virt. eigenvalues --   -0.01923  -0.01611  -0.01128  -0.00769  -0.00182
 Alpha virt. eigenvalues --    0.00423   0.01328   0.02538   0.05936   0.07240
 Alpha virt. eigenvalues --    0.07902   0.08384   0.09182   0.09238   0.09550

 Mulliken charges:
               1
     1  O   -0.452087
     2  C    0.571789
     3  O   -0.594109
     4  C   -0.379119
     5  C   -0.184513
     6  N   -0.402712
     7  C   -0.169338
     8  C   -0.355828
     9  C    0.168723
    10  C   -0.185008
    11  C   -0.126776
    12  C   -0.128730
    13  C   -0.126356
    14  C   -0.187571
    15  C    0.596736
    16  O   -0.534168
    17  C   -0.146882
    18  O   -0.503529
    19  C    0.359487
    20  C   -0.182470
    21  C   -0.135244
    22  C   -0.140368
    23  C   -0.174544
    24  C    0.291518
    25  O   -0.576289
    26  C    0.373753
    27  C   -0.183635
    28  C   -0.143303
    29  C   -0.132674
    30  C   -0.138008
    31  C   -0.173290
    32  H    0.454921
    33  H    0.173014
    34  H    0.177531
    35  H    0.192247
    36  H    0.182474
    37  H    0.171091
    38  H    0.164438
    39  H    0.157682
    40  H    0.161408
    41  H    0.135238
    42  H    0.141226
    43  H    0.138980
    44  H    0.137523
    45  H    0.124959
    46  H    0.170383
    47  H    0.187208
    48  H    0.140453
    49  H    0.135732
    50  H    0.134785
    51  H    0.146110
    52  H    0.140405
    53  H    0.127953
    54  H    0.124946
    55  H    0.131257
    56  H    0.142582
 Sum of Mulliken charges =  -0.00000

 Dipole moment (field-independent basis, Debye):
    X=              0.5487    Y=             -6.3134    Z=             -5.1713  Tot=              8.1794
 Quadrupole moment (field-independent basis, Debye-Ang):
   XX=           -184.1833   YY=           -198.6890   ZZ=           -170.9039
   XY=             31.2586   XZ=              3.3495   YZ=             -9.9026

 Normal termination of Gaussian 16 at Fri Nov  4 21:58:06 2022.
