 Gaussian 16, Revision B.01,
 Gaussian 16:  ES64L-G16RevB.01 20-Dec-2017

 -------------------------------------------------------------------
 #p b3lyp/6-31g(d) 6D 10F nosymm GFInput td=(50-50,nstate=2) SCF=XQC
 -------------------------------------------------------------------

 ------------------------------
 Gaussian input prepared by ASE
 ------------------------------
 Symbolic Z-matrix:
 Charge =  0 Multiplicity = 1

                          Input orientation:
 ---------------------------------------------------------------------
 Center     Atomic      Atomic             Coordinates (Angstroms)
 Number     Number       Type             X           Y           Z
 ---------------------------------------------------------------------
      1          8           0       -4.535065    4.160665    0.911734
      2          6           0       -3.549220    3.464259    0.841668
      3          8           0       -2.623134    3.450046    1.816005
      4          6           0       -3.262043    2.547945   -0.353018
      5          6           0       -3.020000    1.064387    0.042986
      6          7           0       -1.767751    0.501309   -0.492677
      7          6           0       -1.832275   -0.454804   -1.605213
      8          6           0       -1.937600   -1.939470   -1.185218
      9          6           0       -3.186844   -2.284701   -0.402178
     10          6           0       -3.153929   -2.394067    0.993985
     11          6           0       -4.313901   -2.679541    1.716825
     12          6           0       -5.526574   -2.862585    1.051281
     13          6           0       -5.571596   -2.763839   -0.341216
     14          6           0       -4.410302   -2.479360   -1.059960
     15          6           0       -0.609091    0.935659    0.068764
     16          8           0       -0.589623    1.774323    0.976333
     17          6           0        0.716365    0.379805   -0.479126
     18          8           0        1.781413    0.566491    0.422708
     19          6           0        2.585586    1.669917    0.306052
     20          6           0        2.180036    2.906609   -0.198136
     21          6           0        3.086299    3.969008   -0.259977
     22          6           0        4.395938    3.809113    0.187733
     23          6           0        4.805665    2.573468    0.694421
     24          6           0        3.913498    1.507754    0.746834
     25          8           0        4.320799    0.318191    1.320802
     26          6           0        4.456223   -0.811239    0.539744
     27          6           0        4.550990   -0.782568   -0.853910
     28          6           0        4.729461   -1.980094   -1.550500
     29          6           0        4.819046   -3.195634   -0.871735
     30          6           0        4.729566   -3.207847    0.523343
     31          6           0        4.547284   -2.022642    1.231669
     32          1           0       -1.869134    2.857887    1.575538
     33          1           0       -2.376267    2.936136   -0.869806
     34          1           0       -4.107725    2.641254   -1.037164
     35          1           0       -3.000160    0.955191    1.130238
     36          1           0       -3.833704    0.437354   -0.320821
     37          1           0       -2.700056   -0.183036   -2.214943
     38          1           0       -0.956311   -0.322341   -2.247411
     39          1           0       -1.898030   -2.533138   -2.108224
     40          1           0       -1.049731   -2.209660   -0.601450
     41          1           0       -2.211769   -2.257303    1.519911
     42          1           0       -4.267934   -2.760789    2.799385
     43          1           0       -6.429750   -3.085779    1.612273
     44          1           0       -6.509832   -2.914459   -0.868441
     45          1           0       -4.452645   -2.414781   -2.145773
     46          1           0        0.932277    0.849345   -1.450496
     47          1           0        0.650503   -0.700058   -0.636997
     48          1           0        1.146917    3.056805   -0.488355
     49          1           0        2.752172    4.928725   -0.643586
     50          1           0        5.096521    4.637747    0.149136
     51          1           0        5.817821    2.413750    1.052916
     52          1           0        4.496990    0.162787   -1.383645
     53          1           0        4.806770   -1.954934   -2.634661
     54          1           0        4.961123   -4.121946   -1.420888
     55          1           0        4.800259   -4.146921    1.066004
     56          1           0        4.472472   -2.012397    2.314445
 ---------------------------------------------------------------------

 SCF Done:  E(RB3LYP) =  -1398.58605695     A.U. after   15 cycles

 Excitation energies and oscillator strengths:

 Excited state symmetry could not be determined.
 Excited State   1:      Triplet-?Sym    3.6734 eV  337.52 nm  f=0.0000  <S**2>=2.000
     108 ->114         0.13442
     108 ->115        -0.31606
     108 ->116        -0.10703
     108 ->118        -0.10438
     110 ->114         0.10348
     110 ->116        -0.20005
     110 ->117        -0.32274
     110 ->118        -0.10759
     111 ->114        -0.16143
     111 ->115         0.10597
     111 ->116         0.23534
     111 ->117         0.23360
 This state for optimization and/or second-order correction.
 Total Energy, E(TD-HF/TD-DFT) =  -1398.45106137
 Copying the excited state density for this state as the 1-particle RhoCI density.

 Excited state symmetry could not be determined.
 Excited State   2:      Triplet-?Sym    3.7437 eV  331.18 nm  f=0.0000  <S**2>=2.000
     107 ->115        -0.24718
     107 ->116         0.27743
     107 ->117        -0.19400
     108 ->116         0.13818
     110 ->117         0.12190
     110 ->118        -0.21709
     111 ->115         0.14649
     111 ->118        -0.42925

 Excited state symmetry could not be determined.
 Excited State   3:      Singlet-?Sym    5.0180 eV  247.08 nm  f=0.0724  <S**2>=0.000
     108 ->116         0.10648
     108 ->117         0.13287
     110 ->114         0.17602
     111 ->114        -0.43486
     111 ->115         0.46927

 Excited state symmetry could not be determined.
 Excited State   4:      Singlet-?Sym    5.0648 eV  244.80 nm  f=0.0104  <S**2>=0.000
     107 ->118        -0.11911
     110 ->114        -0.13513
     110 ->115        -0.11706
     110 ->116        -0.13417
     111 ->113        -0.17670
     111 ->114         0.43496
     111 ->115         0.41548
     111 ->116        -0.14904

 Alpha  occ. eigenvalues --  -19.19144 -19.18551 -19.16128 -19.14939 -19.11141
 Alpha  occ. eigenvalues --  -14.39619 -10.31598 -10.30009 -10.27482 -10.26002
 Alpha  occ. eigenvalues --  -10.25679 -10.25049 -10.24906 -10.24413 -10.21945
 Alpha  occ. eigenvalues --  -10.21437 -10.20556 -10.20524 -10.20492 -10.20395
 Alpha  occ. eigenvalues --  -10.20341 -10.20268 -10.19647 -10.19577 -10.19531
 Alpha  occ. eigenvalues --  -10.19368 -10.19257 -10.19221 -10.18877 -10.18590
 Alpha  occ. eigenvalues --  -10.18563  -1.09050  -1.07453  -1.07055  -1.05720
 Alpha  occ. eigenvalues --   -0.99142  -0.96445  -0.87110  -0.86198  -0.84657
 Alpha  occ. eigenvalues --   -0.81249  -0.79492  -0.77199  -0.76355  -0.75819
 Alpha  occ. eigenvalues --   -0.74664  -0.74548  -0.73500  -0.71836  -0.67720
 Alpha  occ. eigenvalues --   -0.67409  -0.63563  -0.62007  -0.61743  -0.60873
 Alpha  occ. eigenvalues --   -0.60040  -0.59038  -0.58817  -0.56476  -0.55136
 Alpha  occ. eigenvalues --   -0.54297  -0.53297  -0.53004  -0.52289  -0.50560
 Alpha  occ. eigenvalues --   -0.49928  -0.49407  -0.47733  -0.47581  -0.47277
 Alpha  occ. eigenvalues --   -0.47020  -0.46788  -0.46304  -0.45298  -0.44719
 Alpha  occ. eigenvalues --   -0.44482  -0.44059  -0.43550  -0.43337  -0.42725
 Alpha  occ. eigenvalues --   -0.42363  -0.41723  -0.41588  -0.40517  -0.40109
 Alpha  occ. eigenvalues --   -0.39718  -0.39579  -0.39017  -0.37886  -0.37541
 Alpha  occ. eigenvalues --   -0.37222  -0.36887  -0.36428  -0.36277  -0.35426
 Alpha  occ. eigenvalues --   -0.35363  -0.34670  -0.34555  -0.34175  -0.32526
 Alpha  occ. eigenvalues --   -0.32372  -0.29144  -0.28632  -0.27671  -0.26477
 Alpha  occ. eigenvalues --   -0.25753  -0.25171  -0.25157  -0.24626  -0.23098
 Alpha  occ. eigenvalues --   -0.22000
 Alpha virt. eigenvalues --   -0.01923  -0.01611  -0.01128  -0.00769  -0.00182
 Alpha virt. eigenvalues --    0.00423   0.01328   0.02537   0.05936   0.07240
 Alpha virt. eigenvalues --    0.07902   0.08385   0.09182   0.09238   0.09550

 Mulliken charges:
               1
     1  O   -0.452085
     2  C    0.571784
     3  O   -0.594109
     4  C   -0.379106
     5  C   -0.184517
     6  N   -0.402707
     7  C   -0.169330
     8  C   -0.355844
     9  C    0.168757
    10  C   -0.185020
    11  C   -0.126781
    12  C   -0.128731
    13  C   -0.126349
    14  C   -0.187576
    15  C    0.596715
    16  O   -0.534159
    17  C   -0.146887
    18  O   -0.503520
    19  C    0.359467
    20  C   -0.182460
    21  C   -0.135248
    22  C   -0.140365
    23  C   -0.174555
    24  C    0.291541
    25  O   -0.576308
    26  C    0.373775
    27  C   -0.183647
    28  C   -0.143309
    29  C   -0.132666
    30  C   -0.138016
    31  C   -0.173284
    32  H    0.454921
    33  H    0.173009
    34  H    0.177530
    35  H    0.192247
    36  H    0.182475
    37  H    0.171090
    38  H    0.164437
    39  H    0.157681
    40  H    0.161409
    41  H    0.135239
    42  H    0.141225
    43  H    0.138979
    44  H    0.137521
    45  H    0.124959
    46  H    0.170385
    47  H    0.187209
    48  H    0.140454
    49  H    0.135732
    50  H    0.134786
    51  H    0.146111
    52  H    0.140405
    53  H    0.127952
    54  H    0.124946
    55  H    0.131256
    56  H    0.142581
 Sum of Mulliken charges =  -0.00000

 Dipole moment (field-independent basis, Debye):
    X=              0.8691    Y=             -5.6725    Z=             -5.8282  Tot=              8.1793
 Quadrupole moment (field-independent basis, Debye-Ang):
   XX=           -188.1938   YY=           -194.3962   ZZ=           -175.1710
   XY=             30.6812   XZ=              7.2666   YZ=            -14.6724

 Normal termination of Gaussian 16 at Sat Nov  5 12:25:43 2022.
