 Gaussian 16, Revision B.01,
 Gaussian 16:  ES64L-G16RevB.01 20-Dec-2017

 -----------------------------
 #p b3lyp/6-31g(d) opt SCF=XQC
 -----------------------------

 ------------------------------
 Gaussian input prepared by ASE
 ------------------------------
 Symbolic Z-matrix:
 Charge =  0 Multiplicity = 1

 SCF Done:  E(RB3LYP) =  -2299.33071446     A.U. after   15 cycles
 SCF Done:  E(RB3LYP) =  -2299.34720883     A.U. after   14 cycles
 SCF Done:  E(RB3LYP) =  -2299.34980448     A.U. after   15 cycles
 SCF Done:  E(RB3LYP) =  -2299.35196738     A.U. after   13 cycles
 SCF Done:  E(RB3LYP) =  -2299.35376195     A.U. after   13 cycles
 SCF Done:  E(RB3LYP) =  -2299.35569458     A.U. after   13 cycles
 SCF Done:  E(RB3LYP) =  -2299.35714170     A.U. after   12 cycles
 SCF Done:  E(RB3LYP) =  -2299.35820028     A.U. after   13 cycles
 SCF Done:  E(RB3LYP) =  -2299.35886952     A.U. after   13 cycles
 SCF Done:  E(RB3LYP) =  -2299.35938075     A.U. after   12 cycles
 SCF Done:  E(RB3LYP) =  -2299.36200630     A.U. after    9 cycles
 SCF Done:  E(RB3LYP) =  -2299.36200655     A.U. after    9 cycles
 SCF Done:  E(RB3LYP) =  -2299.36200704     A.U. after    9 cycles
 SCF Done:  E(RB3LYP) =  -2299.36200767     A.U. after    9 cycles
 SCF Done:  E(RB3LYP) =  -2299.36200825     A.U. after    9 cycles
 SCF Done:  E(RB3LYP) =  -2299.36200892     A.U. after    8 cycles
 SCF Done:  E(RB3LYP) =  -2299.36200943     A.U. after    9 cycles
 SCF Done:  E(RB3LYP) =  -2299.36200947     A.U. after    8 cycles
 SCF Done:  E(RB3LYP) =  -2299.36200949     A.U. after    6 cycles
 SCF Done:  E(RB3LYP) =  -2299.36200948     A.U. after    6 cycles
 Optimization completed on the basis of negligible forces.
    -- Stationary point found.

                         Standard orientation:
 ---------------------------------------------------------------------
 Center     Atomic      Atomic             Coordinates (Angstroms)
 Number     Number       Type             X           Y           Z
 ---------------------------------------------------------------------
      1          6           0       -3.489780    1.088161    4.730718
      2          6           0       -2.230653    0.684754    3.955061
      3          6           0       -2.544504   -0.298339    2.808568
      4          6           0       -3.571842    0.228642    1.771252
      5          8           0       -4.620452   -0.393551    1.586126
      6          7           0       -3.259877    1.386230    1.142115
      7          6           0       -4.085286    1.937239    0.070398
      8          6           0       -3.978015    3.480352    0.064816
      9          6           0       -4.307439    4.089873   -1.318617
     10          6           0       -5.319120    3.224832   -2.081748
     11          6           0       -4.733858    1.824419   -2.386826
     12          6           0       -3.725561    1.356665   -1.308879
     13          7           0       -1.323498   -0.880027    2.179991
     14          6           0       -1.166894   -2.351595    2.224665
     15          6           0       -1.505809   -3.103202    0.947414
     16          6           0       -0.582238   -3.989525    0.390262
     17          6           0       -0.873825   -4.734357   -0.757717
     18          6           0       -2.122593   -4.588843   -1.368535
     19          8           0       -2.522539   -5.253777   -2.490783
     20          6           0       -1.617007   -6.167215   -3.088302
     21          6           0       -3.063553   -3.704651   -0.816072
     22          6           0       -2.761854   -2.976804    0.325989
     23          6           0       -0.371038   -0.069282    1.628880
     24          8           0       -0.491234    1.155634    1.553674
     25          6           0        0.908352   -0.746876    1.094394
     26          7           0        1.847110    0.184763    0.488096
     27          6           0        1.660226    0.608563   -0.873873
     28          6           0        2.133634   -0.207447   -1.903704
     29          6           0        1.935989    0.173915   -3.229877
     30          6           0        1.291940    1.371946   -3.556778
     31          6           0        1.102323    1.762912   -5.003021
     32          6           0        0.826910    2.203781   -2.514106
     33          6           0        0.131297    3.510343   -2.818648
     34          6           0        1.008590    1.807307   -1.186149
     35         16           0        2.886305    1.059319    1.502969
     36          8           0        2.669158    0.507332    2.846079
     37          8           0        2.775604    2.493082    1.231158
     38          6           0        4.522275    0.557715    0.956682
     39          6           0        5.166331    1.277814   -0.050420
     40          6           0        6.432162    0.872731   -0.471155
     41          6           0        7.068173   -0.237109    0.101259
     42          6           0        8.429477   -0.682869   -0.377543
     43          6           0        6.403661   -0.932614    1.122228
     44          6           0        5.136775   -0.545568    1.552386
     45          1           0       -4.199295    1.625840    4.092469
     46          1           0       -4.008814    0.214420    5.143180
     47          1           0       -3.227464    1.747198    5.565220
     48          1           0       -1.522038    0.186663    4.629470
     49          1           0       -1.722456    1.570024    3.568549
     50          1           0       -3.069870   -1.150056    3.244116
     51          1           0       -2.297017    1.704961    1.239710
     52          1           0       -5.110748    1.635741    0.304388
     53          1           0       -4.648389    3.885483    0.832585
     54          1           0       -2.961748    3.774538    0.359430
     55          1           0       -3.389427    4.171662   -1.916753
     56          1           0       -4.683114    5.112542   -1.195652
     57          1           0       -5.625124    3.717858   -3.012310
     58          1           0       -6.229900    3.125501   -1.475424
     59          1           0       -5.552089    1.098745   -2.469146
     60          1           0       -4.233851    1.835444   -3.363472
     61          1           0       -2.706475    1.674156   -1.569882
     62          1           0       -3.707257    0.263418   -1.250085
     63          1           0       -1.805704   -2.699998    3.041872
     64          1           0       -0.143466   -2.596178    2.525855
     65          1           0        0.391894   -4.116407    0.859274
     66          1           0       -0.127297   -5.410750   -1.157962
     67          1           0       -2.136164   -6.580147   -3.955100
     68          1           0       -1.353358   -6.982642   -2.401547
     69          1           0       -0.698214   -5.666042   -3.421210
     70          1           0       -4.031256   -3.610860   -1.299043
     71          1           0       -3.512866   -2.306578    0.736298
     72          1           0        1.408958   -1.265979    1.915761
     73          1           0        0.644453   -1.493840    0.339712
     74          1           0        2.651490   -1.131074   -1.661850
     75          1           0        2.299552   -0.467435   -4.029450
     76          1           0        1.585772    2.721777   -5.231137
     77          1           0        1.523359    1.008928   -5.674993
     78          1           0        0.040383    1.879690   -5.255624
     79          1           0       -0.777486    3.358537   -3.416140
     80          1           0        0.775476    4.188319   -3.393703
     81          1           0       -0.154505    4.026162   -1.897520
     82          1           0        0.647862    2.424523   -0.372618
     83          1           0        4.689025    2.151617   -0.480064
     84          1           0        6.938311    1.435831   -1.251550
     85          1           0        8.341174   -1.442880   -1.165434
     86          1           0        9.015484   -1.125051    0.435020
     87          1           0        9.001456    0.152483   -0.794053
     88          1           0        6.889835   -1.783302    1.594052
     89          1           0        4.636111   -1.072484    2.357784
 ---------------------------------------------------------------------

 The electronic state is 1-A.
 Alpha  occ. eigenvalues --  -89.10481 -19.18142 -19.13588 -19.13337 -19.12350
 Alpha  occ. eigenvalues --  -19.10052 -14.37501 -14.36459 -14.33737 -10.29322
 Alpha  occ. eigenvalues --  -10.27215 -10.25039 -10.24506 -10.23787 -10.23663
 Alpha  occ. eigenvalues --  -10.22953 -10.22334 -10.22016 -10.21331 -10.20922
 Alpha  occ. eigenvalues --  -10.20699 -10.20582 -10.20096 -10.20016 -10.19749
 Alpha  occ. eigenvalues --  -10.19747 -10.19555 -10.19491 -10.19487 -10.19214
 Alpha  occ. eigenvalues --  -10.18972 -10.18801 -10.18712 -10.18628 -10.18550
 Alpha  occ. eigenvalues --  -10.18261 -10.18132 -10.18032 -10.17647 -10.17619
 Alpha  occ. eigenvalues --  -10.17441 -10.17405 -10.17054 -10.16994  -8.12923
 Alpha  occ. eigenvalues --   -6.09438  -6.09350  -6.09222  -1.10168  -1.06742
 Alpha  occ. eigenvalues --   -1.04226  -1.01648  -0.99343  -0.93942  -0.93616
 Alpha  occ. eigenvalues --   -0.90690  -0.87161  -0.85484  -0.85362  -0.81528
 Alpha  occ. eigenvalues --   -0.79390  -0.79118  -0.77689  -0.77022  -0.76171
 Alpha  occ. eigenvalues --   -0.75816  -0.75018  -0.73930  -0.73091  -0.72808
 Alpha  occ. eigenvalues --   -0.72109  -0.71134  -0.69654  -0.68631  -0.67735
 Alpha  occ. eigenvalues --   -0.67576  -0.63202  -0.62144  -0.62100  -0.61480
 Alpha  occ. eigenvalues --   -0.60669  -0.60384  -0.60195  -0.58968  -0.58868
 Alpha  occ. eigenvalues --   -0.57491  -0.56281  -0.54921  -0.54106  -0.53609
 Alpha  occ. eigenvalues --   -0.52805  -0.51425  -0.50377  -0.50176  -0.49446
 Alpha  occ. eigenvalues --   -0.48392  -0.48105  -0.47966  -0.47776  -0.47273
 Alpha  occ. eigenvalues --   -0.47193  -0.46966  -0.46613  -0.46186  -0.45756
 Alpha  occ. eigenvalues --   -0.45011  -0.44687  -0.44139  -0.44086  -0.43540
 Alpha  occ. eigenvalues --   -0.43334  -0.43300  -0.43070  -0.43001  -0.42902
 Alpha  occ. eigenvalues --   -0.42343  -0.42188  -0.41875  -0.41174  -0.40691
 Alpha  occ. eigenvalues --   -0.40486  -0.39990  -0.39658  -0.39449  -0.39298
 Alpha  occ. eigenvalues --   -0.38952  -0.38589  -0.38546  -0.38467  -0.37730
 Alpha  occ. eigenvalues --   -0.37233  -0.37006  -0.36914  -0.36829  -0.36502
 Alpha  occ. eigenvalues --   -0.36190  -0.35615  -0.35396  -0.35284  -0.34989
 Alpha  occ. eigenvalues --   -0.34866  -0.34613  -0.34543  -0.34189  -0.33894
 Alpha  occ. eigenvalues --   -0.33253  -0.33031  -0.32761  -0.31933  -0.30987
 Alpha  occ. eigenvalues --   -0.30966  -0.30098  -0.29717  -0.29642  -0.29465
 Alpha  occ. eigenvalues --   -0.27380  -0.26450  -0.26301  -0.25972  -0.25271
 Alpha  occ. eigenvalues --   -0.24704  -0.24014  -0.23635  -0.23046  -0.22541
 Alpha  occ. eigenvalues --   -0.21981
 Alpha virt. eigenvalues --   -0.02885  -0.01472  -0.00784  -0.00535   0.00183
 Alpha virt. eigenvalues --    0.00373   0.01443   0.03078   0.06497   0.06597
 Alpha virt. eigenvalues --    0.07866   0.08819   0.09232   0.09387   0.09626

 Mulliken charges:
               1
     1  C   -0.455472
     2  C   -0.266345
     3  C   -0.069854
     4  C    0.611888
     5  O   -0.543259
     6  N   -0.621958
     7  C    0.047980
     8  C   -0.280477
     9  C   -0.269036
    10  C   -0.265663
    11  C   -0.265499
    12  C   -0.274416
    13  N   -0.431094
    14  C   -0.262321
    15  C    0.165567
    16  C   -0.203326
    17  C   -0.194513
    18  C    0.378170
    19  O   -0.504036
    20  C   -0.215117
    21  C   -0.180055
    22  C   -0.200906
    23  C    0.634214
    24  O   -0.531770
    25  C   -0.243759
    26  N   -0.643239
    27  C    0.224952
    28  C   -0.132955
    29  C   -0.201204
    30  C    0.145968
    31  C   -0.533936
    32  C    0.111396
    33  C   -0.536847
    34  C   -0.170342
    35  S    1.261505
    36  O   -0.564820
    37  O   -0.533488
    38  C   -0.142889
    39  C   -0.137737
    40  C   -0.178322
    41  C    0.180332
    42  C   -0.530455
    43  C   -0.176761
    44  C   -0.145165
    45  H    0.161791
    46  H    0.145080
    47  H    0.149752
    48  H    0.140779
    49  H    0.180254
    50  H    0.162734
    51  H    0.375519
    52  H    0.163627
    53  H    0.142636
    54  H    0.136657
    55  H    0.133410
    56  H    0.134439
    57  H    0.130775
    58  H    0.136349
    59  H    0.140192
    60  H    0.129984
    61  H    0.133562
    62  H    0.152001
    63  H    0.177207
    64  H    0.163120
    65  H    0.123080
    66  H    0.130858
    67  H    0.171656
    68  H    0.152223
    69  H    0.150986
    70  H    0.146633
    71  H    0.186369
    72  H    0.198172
    73  H    0.194059
    74  H    0.130069
    75  H    0.121902
    76  H    0.161461
    77  H    0.154419
    78  H    0.162410
    79  H    0.159514
    80  H    0.159752
    81  H    0.166745
    82  H    0.175537
    83  H    0.178499
    84  H    0.134176
    85  H    0.170186
    86  H    0.163255
    87  H    0.163045
    88  H    0.132250
    89  H    0.167939
 Sum of Mulliken charges =  -0.00000

 Dipole moment (field-independent basis, Debye):
    X=              4.1571    Y=             -4.0701    Z=             -4.4871  Tot=              7.3472
 Quadrupole moment (field-independent basis, Debye-Ang):
   XX=           -259.4024   YY=           -250.0056   ZZ=           -257.4428
   XY=            -21.3623   XZ=             -8.1293   YZ=             -6.9319

 Normal termination of Gaussian 16 at Sat Nov  5 00:41:33 2022.
