 Gaussian 16, Revision B.01,
 Gaussian 16:  ES64L-G16RevB.01 20-Dec-2017

 -------------------------------------------------------------------
 #p b3lyp/6-31g(d) 6D 10F nosymm GFInput td=(50-50,nstate=2) SCF=XQC
 -------------------------------------------------------------------

 ------------------------------
 Gaussian input prepared by ASE
 ------------------------------
 Symbolic Z-matrix:
 Charge =  0 Multiplicity = 1

                          Input orientation:
 ---------------------------------------------------------------------
 Center     Atomic      Atomic             Coordinates (Angstroms)
 Number     Number       Type             X           Y           Z
 ---------------------------------------------------------------------
      1          6           0        5.103801   -0.579677    3.144025
      2          6           0        3.591664   -0.390449    2.978451
      3          6           0        3.252377    0.679054    1.919929
      4          6           0        3.835471    0.397039    0.509388
      5          8           0        4.605821    1.212721   -0.002667
      6          7           0        3.479096   -0.772627   -0.072008
      7          6           0        3.870283   -1.114938   -1.437030
      8          6           0        4.012766   -2.649117   -1.573882
      9          6           0        3.839774   -3.129983   -3.034281
     10          6           0        4.303057   -2.059958   -4.031567
     11          6           0        3.433204   -0.784058   -3.921141
     12          6           0        2.893077   -0.558185   -2.487729
     13          7           0        1.806679    1.044553    1.893582
     14          6           0        1.453992    2.457201    2.162044
     15          6           0        1.120076    3.309494    0.948272
     16          6           0       -0.076571    4.027172    0.904173
     17          6           0       -0.399241    4.858743   -0.173800
     18          6           0        0.497437    4.975823   -1.239612
     19          8           0        0.295222    5.748409   -2.345847
     20          6           0       -0.905913    6.497703   -2.430816
     21          6           0        1.707478    4.263703   -1.206406
     22          6           0        2.015982    3.447126   -0.127927
     23          6           0        0.851829    0.091307    1.674968
     24          8           0        1.120747   -1.084966    1.420832
     25          6           0       -0.622977    0.536154    1.768272
     26          7           0       -1.569126   -0.530936    1.480287
     27          6           0       -1.890600   -0.857306    0.116605
     28          6           0       -2.864257   -0.104890   -0.544004
     29          6           0       -3.168079   -0.389013   -1.874494
     30          6           0       -2.534902   -1.430074   -2.561675
     31          6           0       -2.893443   -1.720355   -3.999595
     32          6           0       -1.561065   -2.200110   -1.887837
     33          6           0       -0.855417   -3.338831   -2.587195
     34          6           0       -1.244518   -1.898219   -0.560309
     35         16           0       -1.952932   -1.625512    2.716951
     36          8           0       -1.295788   -1.096401    3.918613
     37          8           0       -1.740138   -3.000678    2.263685
     38          6           0       -3.725766   -1.420142    2.920214
     39          6           0       -4.603485   -2.208114    2.174349
     40          6           0       -5.977070   -2.032639    2.335320
     41          6           0       -6.489036   -1.086374    3.233310
     42          6           0       -7.978551   -0.886679    3.383545
     43          6           0       -5.583413   -0.319227    3.980983
     44          6           0       -4.207854   -0.477181    3.830226
     45          1           0        5.565564   -0.948028    2.221547
     46          1           0        5.602376    0.359152    3.414154
     47          1           0        5.311457   -1.309059    3.934224
     48          1           0        3.151658   -0.062213    3.929090
     49          1           0        3.115230   -1.339579    2.726419
     50          1           0        3.769511    1.596547    2.206132
     51          1           0        2.702710   -1.270881    0.360636
     52          1           0        4.840992   -0.634990   -1.593871
     53          1           0        4.992400   -2.950774   -1.183597
     54          1           0        3.264909   -3.141205   -0.937721
     55          1           0        2.782755   -3.359577   -3.227146
     56          1           0        4.387739   -4.067506   -3.185576
     57          1           0        4.275606   -2.448964   -5.056545
     58          1           0        5.354172   -1.814842   -3.826405
     59          1           0        4.022117    0.085617   -4.236938
     60          1           0        2.586624   -0.850300   -4.616037
     61          1           0        1.919579   -1.051549   -2.359844
     62          1           0        2.729692    0.508762   -2.303580
     63          1           0        2.307606    2.887021    2.694855
     64          1           0        0.618149    2.492164    2.867795
     65          1           0       -0.781186    3.949258    1.730280
     66          1           0       -1.339792    5.397575   -0.168261
     67          1           0       -0.857256    7.035327   -3.379483
     68          1           0       -0.990267    7.220760   -1.608540
     69          1           0       -1.789830    5.845884   -2.428769
     70          1           0        2.395439    4.373431   -2.038977
     71          1           0        2.963709    2.914791   -0.125360
     72          1           0       -0.819201    0.918390    2.773315
     73          1           0       -0.810380    1.348934    1.060167
     74          1           0       -3.375739    0.694103   -0.015089
     75          1           0       -3.921661    0.203569   -2.388094
     76          1           0       -3.271470   -2.743339   -4.125217
     77          1           0       -3.664254   -1.033172   -4.361454
     78          1           0       -2.023113   -1.624581   -4.661797
     79          1           0       -0.305582   -2.994666   -3.473288
     80          1           0       -1.563513   -4.102698   -2.934203
     81          1           0       -0.141795   -3.827744   -1.917913
     82          1           0       -0.491564   -2.468209   -0.030138
     83          1           0       -4.212904   -2.958390    1.495763
     84          1           0       -6.662774   -2.649572    1.759570
     85          1           0       -8.339485   -0.092896    2.715847
     86          1           0       -8.243155   -0.595679    4.405549
     87          1           0       -8.532400   -1.797664    3.134927
     88          1           0       -5.961144    0.405014    4.698930
     89          1           0       -3.511223    0.102217    4.426861
 ---------------------------------------------------------------------

 SCF Done:  E(RB3LYP) =  -2299.36201554     A.U. after   15 cycles

 Excitation energies and oscillator strengths:

 Excited state symmetry could not be determined.
 Excited State   1:      Triplet-?Sym    3.6174 eV  342.74 nm  f=0.0000  <S**2>=2.000
     156 ->167        -0.22439
     157 ->167        -0.13140
     158 ->168        -0.35141
     158 ->169        -0.12436
     159 ->167         0.19774
     161 ->167        -0.28599
     162 ->167        -0.23191
     164 ->167         0.24487
     165 ->167        -0.12606
 This state for optimization and/or second-order correction.
 Total Energy, E(TD-HF/TD-DFT) =  -2299.22907860
 Copying the excited state density for this state as the 1-particle RhoCI density.

 Excited state symmetry could not be determined.
 Excited State   2:      Triplet-?Sym    3.6319 eV  341.37 nm  f=0.0000  <S**2>=2.000
     161 ->168         0.10702
     161 ->169        -0.13393
     161 ->172         0.22084
     162 ->167         0.11829
     162 ->169        -0.19792
     162 ->172        -0.27548
     163 ->169        -0.18808
     164 ->168         0.16855
     164 ->169        -0.34456
     165 ->169         0.16588

 Excited state symmetry could not be determined.
 Excited State   3:      Singlet-?Sym    4.8252 eV  256.95 nm  f=0.0919  <S**2>=0.000
     164 ->167         0.45563
     165 ->167        -0.42653
     166 ->167        -0.29111

 Excited state symmetry could not be determined.
 Excited State   4:      Singlet-?Sym    4.8521 eV  255.53 nm  f=0.0100  <S**2>=0.000
     164 ->167         0.20910
     165 ->167        -0.18634
     166 ->167         0.64123

 Alpha  occ. eigenvalues --  -89.10481 -19.18142 -19.13588 -19.13336 -19.12350
 Alpha  occ. eigenvalues --  -19.10052 -14.37501 -14.36460 -14.33737 -10.29322
 Alpha  occ. eigenvalues --  -10.27215 -10.25039 -10.24506 -10.23787 -10.23663
 Alpha  occ. eigenvalues --  -10.22953 -10.22334 -10.22016 -10.21331 -10.20922
 Alpha  occ. eigenvalues --  -10.20699 -10.20581 -10.20096 -10.20016 -10.19750
 Alpha  occ. eigenvalues --  -10.19747 -10.19555 -10.19491 -10.19487 -10.19214
 Alpha  occ. eigenvalues --  -10.18972 -10.18801 -10.18712 -10.18628 -10.18550
 Alpha  occ. eigenvalues --  -10.18261 -10.18132 -10.18032 -10.17647 -10.17619
 Alpha  occ. eigenvalues --  -10.17442 -10.17406 -10.17054 -10.16994  -8.12923
 Alpha  occ. eigenvalues --   -6.09438  -6.09350  -6.09222  -1.10168  -1.06742
 Alpha  occ. eigenvalues --   -1.04226  -1.01648  -0.99343  -0.93942  -0.93616
 Alpha  occ. eigenvalues --   -0.90690  -0.87161  -0.85484  -0.85362  -0.81528
 Alpha  occ. eigenvalues --   -0.79390  -0.79118  -0.77689  -0.77022  -0.76171
 Alpha  occ. eigenvalues --   -0.75816  -0.75018  -0.73930  -0.73091  -0.72808
 Alpha  occ. eigenvalues --   -0.72109  -0.71135  -0.69654  -0.68631  -0.67735
 Alpha  occ. eigenvalues --   -0.67576  -0.63202  -0.62144  -0.62100  -0.61480
 Alpha  occ. eigenvalues --   -0.60669  -0.60384  -0.60195  -0.58968  -0.58868
 Alpha  occ. eigenvalues --   -0.57491  -0.56281  -0.54921  -0.54106  -0.53609
 Alpha  occ. eigenvalues --   -0.52805  -0.51425  -0.50376  -0.50176  -0.49446
 Alpha  occ. eigenvalues --   -0.48392  -0.48105  -0.47966  -0.47776  -0.47273
 Alpha  occ. eigenvalues --   -0.47193  -0.46966  -0.46613  -0.46186  -0.45756
 Alpha  occ. eigenvalues --   -0.45011  -0.44687  -0.44139  -0.44086  -0.43540
 Alpha  occ. eigenvalues --   -0.43334  -0.43300  -0.43070  -0.43001  -0.42902
 Alpha  occ. eigenvalues --   -0.42343  -0.42188  -0.41875  -0.41174  -0.40691
 Alpha  occ. eigenvalues --   -0.40486  -0.39990  -0.39658  -0.39449  -0.39298
 Alpha  occ. eigenvalues --   -0.38952  -0.38589  -0.38546  -0.38467  -0.37730
 Alpha  occ. eigenvalues --   -0.37233  -0.37006  -0.36914  -0.36829  -0.36502
 Alpha  occ. eigenvalues --   -0.36190  -0.35615  -0.35396  -0.35284  -0.34989
 Alpha  occ. eigenvalues --   -0.34866  -0.34613  -0.34543  -0.34189  -0.33894
 Alpha  occ. eigenvalues --   -0.33253  -0.33031  -0.32761  -0.31933  -0.30987
 Alpha  occ. eigenvalues --   -0.30966  -0.30098  -0.29717  -0.29642  -0.29465
 Alpha  occ. eigenvalues --   -0.27380  -0.26450  -0.26301  -0.25972  -0.25270
 Alpha  occ. eigenvalues --   -0.24704  -0.24014  -0.23635  -0.23046  -0.22540
 Alpha  occ. eigenvalues --   -0.21981
 Alpha virt. eigenvalues --   -0.02885  -0.01472  -0.00784  -0.00534   0.00183
 Alpha virt. eigenvalues --    0.00372   0.01443   0.03078   0.06497   0.06597
 Alpha virt. eigenvalues --    0.07866   0.08819   0.09232   0.09387   0.09626

 Mulliken charges:
               1
     1  C   -0.455475
     2  C   -0.266356
     3  C   -0.069860
     4  C    0.611902
     5  O   -0.543264
     6  N   -0.621963
     7  C    0.047992
     8  C   -0.280487
     9  C   -0.269044
    10  C   -0.265668
    11  C   -0.265507
    12  C   -0.274421
    13  N   -0.431082
    14  C   -0.262347
    15  C    0.165586
    16  C   -0.203329
    17  C   -0.194518
    18  C    0.378178
    19  O   -0.504031
    20  C   -0.215125
    21  C   -0.180070
    22  C   -0.200898
    23  C    0.634189
    24  O   -0.531755
    25  C   -0.243745
    26  N   -0.643236
    27  C    0.224940
    28  C   -0.132941
    29  C   -0.201206
    30  C    0.145948
    31  C   -0.533936
    32  C    0.111425
    33  C   -0.536842
    34  C   -0.170367
    35  S    1.261515
    36  O   -0.564819
    37  O   -0.533499
    38  C   -0.142879
    39  C   -0.137744
    40  C   -0.178318
    41  C    0.180326
    42  C   -0.530455
    43  C   -0.176757
    44  C   -0.145166
    45  H    0.161795
    46  H    0.145081
    47  H    0.149753
    48  H    0.140785
    49  H    0.180255
    50  H    0.162734
    51  H    0.375520
    52  H    0.163628
    53  H    0.142634
    54  H    0.136659
    55  H    0.133415
    56  H    0.134441
    57  H    0.130777
    58  H    0.136352
    59  H    0.140194
    60  H    0.129986
    61  H    0.133562
    62  H    0.152003
    63  H    0.177209
    64  H    0.163119
    65  H    0.123080
    66  H    0.130858
    67  H    0.171657
    68  H    0.152226
    69  H    0.150986
    70  H    0.146633
    71  H    0.186371
    72  H    0.198173
    73  H    0.194056
    74  H    0.130078
    75  H    0.121904
    76  H    0.161462
    77  H    0.154420
    78  H    0.162411
    79  H    0.159512
    80  H    0.159751
    81  H    0.166742
    82  H    0.175539
    83  H    0.178495
    84  H    0.134176
    85  H    0.170186
    86  H    0.163255
    87  H    0.163045
    88  H    0.132251
    89  H    0.167939
 Sum of Mulliken charges =  -0.00000

 Dipole moment (field-independent basis, Debye):
    X=             -6.2066    Y=              3.3883    Z=             -1.9948  Tot=              7.3472
 Quadrupole moment (field-independent basis, Debye-Ang):
   XX=           -246.0687   YY=           -258.7999   ZZ=           -261.4802
   XY=            -17.1169   XZ=              0.0084   YZ=             17.5513

 Normal termination of Gaussian 16 at Sat Nov  5 12:34:02 2022.
