 Gaussian 16, Revision B.01,
 Gaussian 16:  ES64L-G16RevB.01 20-Dec-2017

 -----------------------------
 #p b3lyp/6-31g(d) opt SCF=XQC
 -----------------------------

 ------------------------------
 Gaussian input prepared by ASE
 ------------------------------
 Symbolic Z-matrix:
 Charge =  0 Multiplicity = 1

 SCF Done:  E(RB3LYP) =  -1217.33110008     A.U. after   15 cycles
 SCF Done:  E(RB3LYP) =  -1217.33649705     A.U. after   12 cycles
 SCF Done:  E(RB3LYP) =  -1217.33683460     A.U. after   11 cycles
 SCF Done:  E(RB3LYP) =  -1217.33690296     A.U. after   10 cycles
 SCF Done:  E(RB3LYP) =  -1217.33694165     A.U. after   10 cycles
 SCF Done:  E(RB3LYP) =  -1217.33695530     A.U. after    9 cycles
 SCF Done:  E(RB3LYP) =  -1217.33696138     A.U. after    9 cycles
 SCF Done:  E(RB3LYP) =  -1217.33696481     A.U. after    8 cycles
 SCF Done:  E(RB3LYP) =  -1217.33696787     A.U. after    8 cycles
 SCF Done:  E(RB3LYP) =  -1217.33697032     A.U. after    8 cycles
 SCF Done:  E(RB3LYP) =  -1217.33725380     A.U. after    8 cycles
 SCF Done:  E(RB3LYP) =  -1217.33693517     A.U. after   11 cycles
 SCF Done:  E(RB3LYP) =  -1217.33723865     A.U. after   11 cycles
 SCF Done:  E(RB3LYP) =  -1217.33725589     A.U. after   10 cycles
 SCF Done:  E(RB3LYP) =  -1217.33725838     A.U. after    8 cycles
 SCF Done:  E(RB3LYP) =  -1217.33725925     A.U. after    7 cycles
 SCF Done:  E(RB3LYP) =  -1217.33725956     A.U. after    7 cycles
 SCF Done:  E(RB3LYP) =  -1217.33725974     A.U. after    7 cycles
 SCF Done:  E(RB3LYP) =  -1217.33725979     A.U. after    6 cycles
 SCF Done:  E(RB3LYP) =  -1217.33725982     A.U. after    6 cycles
 Optimization completed.
    -- Stationary point found.

                         Standard orientation:
 ---------------------------------------------------------------------
 Center     Atomic      Atomic             Coordinates (Angstroms)
 Number     Number       Type             X           Y           Z
 ---------------------------------------------------------------------
      1          6           0        6.481769    1.778075   -1.046399
      2          6           0        5.648814    0.640288   -0.509297
      3          6           0        4.252093    0.688133   -0.525385
      4          6           0        3.479880   -0.372217   -0.013808
      5          6           0        2.014456   -0.360819   -0.003481
      6          7           0        1.313221   -1.549191   -0.205487
      7          6           0       -0.031626   -1.299944   -0.185689
      8          6           0       -1.113169   -2.173131   -0.349285
      9          6           0       -2.372474   -1.610309   -0.290884
     10          9           0       -3.433777   -2.446779   -0.450436
     11          6           0       -2.627739   -0.234385   -0.084587
     12          6           0       -4.037689    0.327734   -0.036793
     13          6           0       -4.806375    0.165502   -1.378667
     14          6           0       -6.330248    0.299151   -1.161789
     15          7           0       -6.572153    1.182802   -0.020851
     16          6           0       -6.219973    0.541200    1.253828
     17          6           0       -4.892329   -0.241947    1.116912
     18          6           0       -1.523174    0.598477    0.075359
     19          6           0       -0.207652    0.092820    0.033234
     20          6           0        1.106267    0.679102    0.159102
     21          6           0        1.418577    2.122238    0.491133
     22          6           0        1.045266    3.080407   -0.658480
     23          6           0        0.770109    2.564270    1.819825
     24          6           0        4.229636   -1.458846    0.455080
     25          9           0        3.602134   -2.563698    0.939101
     26          6           0        5.616575   -1.448986    0.435704
     27          7           0        6.325896   -0.418843   -0.028746
     28          1           0        7.110269    2.198020   -0.252723
     29          1           0        7.155749    1.420375   -1.832422
     30          1           0        5.859982    2.579409   -1.456159
     31          1           0        3.753544    1.541929   -0.969133
     32          1           0        1.747136   -2.457575   -0.244594
     33          1           0       -0.997991   -3.238861   -0.516313
     34          1           0       -3.937841    1.403564    0.147187
     35          1           0       -4.588419   -0.809036   -1.826020
     36          1           0       -4.453231    0.931258   -2.078850
     37          1           0       -6.779651   -0.703834   -1.025292
     38          1           0       -6.803093    0.735664   -2.048369
     39          1           0       -7.544358    1.479845    0.000903
     40          1           0       -7.003617   -0.150909    1.614546
     41          1           0       -6.118729    1.330652    2.009837
     42          1           0       -5.093308   -1.299969    0.921229
     43          1           0       -4.337233   -0.198662    2.060746
     44          1           0       -1.698249    1.659104    0.227271
     45          1           0        2.500675    2.199236    0.642774
     46          1           0       -0.030431    3.058239   -0.865110
     47          1           0        1.317069    4.112278   -0.405589
     48          1           0        1.561301    2.808658   -1.586591
     49          1           0       -0.323114    2.555074    1.768707
     50          1           0        1.083244    3.584434    2.072068
     51          1           0        1.070342    1.902983    2.639522
     52          1           0        6.160022   -2.311816    0.816185
 ---------------------------------------------------------------------

 The electronic state is 1-A.
 Alpha  occ. eigenvalues --  -24.72447 -24.70006 -14.37905 -14.33451 -14.30811
 Alpha  occ. eigenvalues --  -10.28222 -10.26471 -10.23474 -10.23260 -10.23151
 Alpha  occ. eigenvalues --  -10.23101 -10.22655 -10.20637 -10.20017 -10.19890
 Alpha  occ. eigenvalues --  -10.19845 -10.19344 -10.19113 -10.19054 -10.19023
 Alpha  occ. eigenvalues --  -10.18697 -10.18672 -10.18605 -10.17792 -10.17488
 Alpha  occ. eigenvalues --  -10.17392 -10.17084  -1.23276  -1.20842  -0.98482
 Alpha  occ. eigenvalues --   -0.94981  -0.89835  -0.85226  -0.83164  -0.81203
 Alpha  occ. eigenvalues --   -0.78876  -0.78748  -0.76309  -0.73805  -0.73271
 Alpha  occ. eigenvalues --   -0.72278  -0.70310  -0.68379  -0.66455  -0.63935
 Alpha  occ. eigenvalues --   -0.62986  -0.61929  -0.61483  -0.60078  -0.58945
 Alpha  occ. eigenvalues --   -0.56136  -0.54570  -0.53930  -0.53270  -0.52485
 Alpha  occ. eigenvalues --   -0.50505  -0.49903  -0.48586  -0.47757  -0.47539
 Alpha  occ. eigenvalues --   -0.46863  -0.45700  -0.45405  -0.44689  -0.44365
 Alpha  occ. eigenvalues --   -0.43975  -0.43594  -0.43392  -0.43051  -0.42696
 Alpha  occ. eigenvalues --   -0.41731  -0.40341  -0.40185  -0.39240  -0.38994
 Alpha  occ. eigenvalues --   -0.38734  -0.38634  -0.38444  -0.38144  -0.37566
 Alpha  occ. eigenvalues --   -0.37082  -0.36871  -0.35946  -0.35738  -0.34364
 Alpha  occ. eigenvalues --   -0.34043  -0.32884  -0.32270  -0.31741  -0.30791
 Alpha  occ. eigenvalues --   -0.30558  -0.29310  -0.26939  -0.26207  -0.25372
 Alpha  occ. eigenvalues --   -0.21640  -0.20855  -0.20093
 Alpha virt. eigenvalues --   -0.05210  -0.01093   0.00059   0.02558   0.06515
 Alpha virt. eigenvalues --    0.07318   0.08024   0.08933   0.09898   0.11320
 Alpha virt. eigenvalues --    0.11702   0.12698   0.12926   0.13128   0.13467

 Mulliken charges:
               1
     1  C   -0.504526
     2  C    0.298738
     3  C   -0.230553
     4  C    0.075602
     5  C    0.210290
     6  N   -0.769574
     7  C    0.354729
     8  C   -0.256271
     9  C    0.319410
    10  F   -0.305108
    11  C    0.108024
    12  C   -0.161744
    13  C   -0.259073
    14  C   -0.141069
    15  N   -0.558431
    16  C   -0.118017
    17  C   -0.299407
    18  C   -0.300494
    19  C    0.074036
    20  C    0.065069
    21  C   -0.157862
    22  C   -0.448452
    23  C   -0.445003
    24  C    0.283993
    25  F   -0.300596
    26  C   -0.015572
    27  N   -0.460945
    28  H    0.173992
    29  H    0.174281
    30  H    0.150476
    31  H    0.154876
    32  H    0.333810
    33  H    0.140520
    34  H    0.146600
    35  H    0.142984
    36  H    0.135692
    37  H    0.114575
    38  H    0.134663
    39  H    0.294117
    40  H    0.112816
    41  H    0.135491
    42  H    0.152727
    43  H    0.139828
    44  H    0.135013
    45  H    0.133232
    46  H    0.152310
    47  H    0.141806
    48  H    0.146378
    49  H    0.149545
    50  H    0.140473
    51  H    0.151437
    52  H    0.155165
 Sum of Mulliken charges =  -0.00000

 Dipole moment (field-independent basis, Debye):
    X=             -0.4098    Y=              0.5615    Z=             -0.3464  Tot=              0.7767
 Quadrupole moment (field-independent basis, Debye-Ang):
   XX=           -158.1801   YY=           -151.1305   ZZ=           -158.4077
   XY=              1.6796   XZ=             -3.3736   YZ=              0.3560

 Normal termination of Gaussian 16 at Fri Nov  4 21:39:40 2022.
