 Gaussian 16, Revision B.01,
 Gaussian 16:  ES64L-G16RevB.01 20-Dec-2017

 -------------------------------------------------------------------
 #p b3lyp/6-31g(d) 6D 10F nosymm GFInput td=(50-50,nstate=2) SCF=XQC
 -------------------------------------------------------------------

 ------------------------------
 Gaussian input prepared by ASE
 ------------------------------
 Symbolic Z-matrix:
 Charge =  0 Multiplicity = 1

                          Input orientation:
 ---------------------------------------------------------------------
 Center     Atomic      Atomic             Coordinates (Angstroms)
 Number     Number       Type             X           Y           Z
 ---------------------------------------------------------------------
      1          6           0       -6.843617    1.456901   -0.559096
      2          6           0       -5.993303    0.364236    0.040823
      3          6           0       -4.597768    0.440625    0.036076
      4          6           0       -3.809044   -0.586581    0.588461
      5          6           0       -2.343991   -0.551501    0.598108
      6          7           0       -1.647535   -1.087826    1.680730
      7          6           0       -0.303043   -0.920193    1.492651
      8          6           0        0.774274   -1.288070    2.306904
      9          6           0        2.033995   -0.964707    1.843691
     10          9           0        3.091153   -1.314224    2.625840
     11          6           0        2.293476   -0.295155    0.624980
     12          6           0        3.703456    0.040001    0.171275
     13          6           0        4.431590    1.032780    1.121031
     14          6           0        5.961120    0.977976    0.909797
     15          7           0        6.236078    0.604838   -0.478103
     16          6           0        5.923336   -0.807599   -0.738308
     17          6           0        4.593242   -1.202551   -0.053057
     18          6           0        1.193093    0.050800   -0.155260
     19          6           0       -0.122409   -0.252560    0.251546
     20          6           0       -1.432740   -0.032976   -0.314815
     21          6           0       -1.736880    0.562515   -1.672502
     22          6           0       -1.399682    2.066110   -1.740007
     23          6           0       -1.049284   -0.216120   -2.813672
     24          6           0       -4.542846   -1.633392    1.161586
     25          9           0       -3.899538   -2.668977    1.763625
     26          6           0       -5.929752   -1.646505    1.141739
     27          7           0       -6.654151   -0.673532    0.586208
     28          1           0       -7.448496    1.060323   -1.382585
     29          1           0       -7.540480    1.852411    0.187887
     30          1           0       -6.235553    2.281662   -0.942092
     31          1           0       -4.113982    1.321019   -0.370480
     32          1           0       -2.081187   -1.613977    2.422405
     33          1           0        0.655575   -1.798842    3.256624
     34          1           0        3.607724    0.537966   -0.800371
     35          1           0        4.201589    0.798114    2.164768
     36          1           0        4.056466    2.043727    0.924521
     37          1           0        6.415803    0.276693    1.636460
     38          1           0        6.406445    1.960180    1.102441
     39          1           0        7.208089    0.790394   -0.711880
     40          1           0        6.718437   -1.492513   -0.389115
     41          1           0        5.843833   -0.938653   -1.825294
     42          1           0        4.789682   -1.677941    0.913126
     43          1           0        4.066773   -1.943815   -0.664764
     44          1           0        1.371214    0.572058   -1.090792
     45          1           0       -2.814023    0.460856   -1.843641
     46          1           0       -0.330668    2.244500   -1.579698
     47          1           0       -1.665155    2.478331   -2.720918
     48          1           0       -1.943070    2.630701   -0.973525
     49          1           0        0.041914   -0.153638   -2.756959
     50          1           0       -1.356073    0.188547   -3.785547
     51          1           0       -1.323782   -1.275879   -2.783617
     52          1           0       -6.460309   -2.482943    1.592799
 ---------------------------------------------------------------------

 SCF Done:  E(RB3LYP) =  -1217.33726722     A.U. after   15 cycles

 Excitation energies and oscillator strengths:

 Excited state symmetry could not be determined.
 Excited State   1:      Triplet-?Sym    2.6066 eV  475.65 nm  f=0.0000  <S**2>=2.000
      98 -> 99         0.66448
      98 ->101         0.13901
 This state for optimization and/or second-order correction.
 Total Energy, E(TD-HF/TD-DFT) =  -1217.24147530
 Copying the excited state density for this state as the 1-particle RhoCI density.

 Excited state symmetry could not be determined.
 Excited State   2:      Triplet-?Sym    3.3573 eV  369.30 nm  f=0.0000  <S**2>=2.000
      95 ->100         0.11530
      96 -> 99         0.61169
      96 ->101         0.18511
      98 ->101        -0.15894

 Excited state symmetry could not be determined.
 Excited State   3:      Singlet-?Sym    3.6619 eV  338.58 nm  f=0.2876  <S**2>=0.000
      96 -> 99        -0.13385
      98 -> 99         0.68779

 Excited state symmetry could not be determined.
 Excited State   4:      Singlet-?Sym    3.9162 eV  316.60 nm  f=0.0486  <S**2>=0.000
      96 -> 99        -0.17308
      97 -> 99         0.67884

 Alpha  occ. eigenvalues --  -24.72447 -24.70006 -14.37905 -14.33451 -14.30811
 Alpha  occ. eigenvalues --  -10.28223 -10.26471 -10.23474 -10.23261 -10.23151
 Alpha  occ. eigenvalues --  -10.23102 -10.22655 -10.20637 -10.20017 -10.19889
 Alpha  occ. eigenvalues --  -10.19845 -10.19344 -10.19113 -10.19054 -10.19023
 Alpha  occ. eigenvalues --  -10.18697 -10.18672 -10.18605 -10.17792 -10.17488
 Alpha  occ. eigenvalues --  -10.17392 -10.17084  -1.23276  -1.20842  -0.98482
 Alpha  occ. eigenvalues --   -0.94982  -0.89834  -0.85226  -0.83164  -0.81203
 Alpha  occ. eigenvalues --   -0.78876  -0.78748  -0.76310  -0.73805  -0.73271
 Alpha  occ. eigenvalues --   -0.72278  -0.70310  -0.68380  -0.66455  -0.63935
 Alpha  occ. eigenvalues --   -0.62986  -0.61929  -0.61483  -0.60078  -0.58945
 Alpha  occ. eigenvalues --   -0.56136  -0.54570  -0.53930  -0.53270  -0.52485
 Alpha  occ. eigenvalues --   -0.50505  -0.49903  -0.48586  -0.47757  -0.47539
 Alpha  occ. eigenvalues --   -0.46863  -0.45700  -0.45405  -0.44689  -0.44365
 Alpha  occ. eigenvalues --   -0.43975  -0.43594  -0.43392  -0.43051  -0.42696
 Alpha  occ. eigenvalues --   -0.41731  -0.40341  -0.40185  -0.39240  -0.38994
 Alpha  occ. eigenvalues --   -0.38734  -0.38634  -0.38444  -0.38144  -0.37566
 Alpha  occ. eigenvalues --   -0.37082  -0.36871  -0.35946  -0.35738  -0.34364
 Alpha  occ. eigenvalues --   -0.34043  -0.32884  -0.32270  -0.31741  -0.30791
 Alpha  occ. eigenvalues --   -0.30558  -0.29310  -0.26939  -0.26207  -0.25372
 Alpha  occ. eigenvalues --   -0.21640  -0.20855  -0.20093
 Alpha virt. eigenvalues --   -0.05210  -0.01094   0.00059   0.02558   0.06515
 Alpha virt. eigenvalues --    0.07318   0.08024   0.08933   0.09898   0.11320
 Alpha virt. eigenvalues --    0.11702   0.12698   0.12926   0.13128   0.13467

 Mulliken charges:
               1
     1  C   -0.504526
     2  C    0.298708
     3  C   -0.230515
     4  C    0.075569
     5  C    0.210271
     6  N   -0.769551
     7  C    0.354728
     8  C   -0.256286
     9  C    0.319438
    10  F   -0.305110
    11  C    0.108000
    12  C   -0.161722
    13  C   -0.259079
    14  C   -0.141052
    15  N   -0.558420
    16  C   -0.118023
    17  C   -0.299423
    18  C   -0.300534
    19  C    0.074068
    20  C    0.065085
    21  C   -0.157881
    22  C   -0.448456
    23  C   -0.444997
    24  C    0.284018
    25  F   -0.300594
    26  C   -0.015601
    27  N   -0.460921
    28  H    0.173993
    29  H    0.174281
    30  H    0.150476
    31  H    0.154868
    32  H    0.333809
    33  H    0.140521
    34  H    0.146602
    35  H    0.142984
    36  H    0.135690
    37  H    0.114571
    38  H    0.134660
    39  H    0.294115
    40  H    0.112817
    41  H    0.135492
    42  H    0.152728
    43  H    0.139831
    44  H    0.135018
    45  H    0.133234
    46  H    0.152309
    47  H    0.141808
    48  H    0.146381
    49  H    0.149542
    50  H    0.140473
    51  H    0.151437
    52  H    0.155166
 Sum of Mulliken charges =  -0.00000

 Dipole moment (field-independent basis, Debye):
    X=              0.3983    Y=              0.6246    Z=             -0.2333  Tot=              0.7766
 Quadrupole moment (field-independent basis, Debye-Ang):
   XX=           -158.2365   YY=           -156.6578   ZZ=           -153.6061
   XY=             -4.0143   XZ=             -0.4684   YZ=             -3.1987

 Normal termination of Gaussian 16 at Sat Nov  5 12:15:16 2022.
