 Gaussian 16, Revision B.01,
 Gaussian 16:  ES64L-G16RevB.01 20-Dec-2017

 -------------------------------------------------------------------
 #p b3lyp/6-31g(d) 6D 10F nosymm GFInput td=(50-50,nstate=2) SCF=XQC
 -------------------------------------------------------------------

 ------------------------------
 Gaussian input prepared by ASE
 ------------------------------
 Symbolic Z-matrix:
 Charge =  0 Multiplicity = 1

                          Input orientation:
 ---------------------------------------------------------------------
 Center     Atomic      Atomic             Coordinates (Angstroms)
 Number     Number       Type             X           Y           Z
 ---------------------------------------------------------------------
      1          6           0       -2.481594   -1.432137    1.820699
      2          6           0       -2.351703   -0.766535    0.455400
      3         16           0       -1.349642    0.814771    0.542665
      4          6           0        0.277337    0.132071    0.428784
      5          7           0        0.567968   -1.107695    0.192226
      6          7           0        1.917062   -1.366623    0.157794
      7          6           0        2.640094   -0.294803    0.349711
      8          7           0        4.004475   -0.285561    0.273437
      9          6           0        4.825648    0.720856    0.948088
     10          6           0        6.284979    0.565816    0.575660
     11          6           0        7.262103    0.454368    1.569918
     12          6           0        8.611291    0.332298    1.230152
     13          6           0        8.994203    0.313213   -0.110839
     14          6           0        8.023508    0.418541   -1.110706
     15          6           0        6.677900    0.545984   -0.770014
     16         16           0        1.693696    1.176693    0.643310
     17          6           0       -3.679095   -0.426368   -0.191728
     18          7           0       -4.778655   -0.527193    0.480849
     19          6           0       -5.967829   -0.236997   -0.180136
     20          6           0       -7.176613   -0.345746    0.533406
     21          6           0       -8.382573   -0.063604   -0.090942
     22          6           0       -8.417621    0.333713   -1.439312
     23          6           0       -7.236483    0.446834   -2.157470
     24          6           0       -6.010898    0.163292   -1.537157
     25          6           0       -4.755965    0.285304   -2.288975
     26          8           0       -4.634473    0.628711   -3.455742
     27          7           0       -3.633836   -0.044988   -1.515581
     28          1           0       -1.486418   -1.661528    2.208949
     29          1           0       -3.044364   -2.366200    1.722384
     30          1           0       -3.013439   -0.789859    2.525277
     31          1           0       -1.776617   -1.409103   -0.219548
     32          1           0        4.394202   -1.222113    0.243062
     33          1           0        4.462677    1.708301    0.631828
     34          1           0        4.709933    0.673116    2.041708
     35          1           0        6.966642    0.462874    2.616647
     36          1           0        9.359462    0.246658    2.013455
     37          1           0       10.042952    0.215015   -0.377556
     38          1           0        8.315920    0.404103   -2.157179
     39          1           0        5.923013    0.625403   -1.547863
     40          1           0       -7.131698   -0.653434    1.573267
     41          1           0       -9.310269   -0.150749    0.468409
     42          1           0       -9.368952    0.551513   -1.916066
     43          1           0       -7.227855    0.751841   -3.199071
     44          1           0       -2.738477    0.062775   -1.981196
 ---------------------------------------------------------------------

 SCF Done:  E(RB3LYP) =  -1879.62757706     A.U. after   16 cycles

 Excitation energies and oscillator strengths:

 Excited state symmetry could not be determined.
 Excited State   1:      Triplet-?Sym    3.1794 eV  389.96 nm  f=0.0000  <S**2>=2.000
     100 ->105         0.24535
     102 ->104         0.60889
     102 ->105         0.16373
 This state for optimization and/or second-order correction.
 Total Energy, E(TD-HF/TD-DFT) =  -1879.51073707
 Copying the excited state density for this state as the 1-particle RhoCI density.

 Excited state symmetry could not be determined.
 Excited State   2:      Triplet-?Sym    3.3239 eV  373.01 nm  f=0.0000  <S**2>=2.000
     103 ->106         0.48488
     103 ->107        -0.46201
     103 ->108         0.10994

 Excited state symmetry could not be determined.
 Excited State   3:      Singlet-?Sym    4.0333 eV  307.40 nm  f=0.0001  <S**2>=0.000
     103 ->104         0.69099

 Excited state symmetry could not be determined.
 Excited State   4:      Singlet-?Sym    4.3552 eV  284.68 nm  f=0.0168  <S**2>=0.000
     103 ->106         0.48181
     103 ->107         0.35733
     103 ->109         0.35733

 Alpha  occ. eigenvalues --  -88.92842 -88.90910 -19.12047 -14.39288 -14.37899
 Alpha  occ. eigenvalues --  -14.36709 -14.35367 -14.33467 -10.29883 -10.29614
 Alpha  occ. eigenvalues --  -10.28777 -10.28208 -10.24952 -10.24768 -10.23515
 Alpha  occ. eigenvalues --  -10.21396 -10.20503 -10.20423 -10.20351 -10.20338
 Alpha  occ. eigenvalues --  -10.20324 -10.20272 -10.20245 -10.19973 -10.19861
 Alpha  occ. eigenvalues --  -10.19582 -10.18400  -7.99020  -7.96981  -5.95425
 Alpha  occ. eigenvalues --   -5.95113  -5.94637  -5.93518  -5.93093  -5.92457
 Alpha  occ. eigenvalues --   -1.04597  -1.03355  -0.98918  -0.96121  -0.90702
 Alpha  occ. eigenvalues --   -0.86955  -0.85962  -0.84841  -0.81188  -0.80656
 Alpha  occ. eigenvalues --   -0.77430  -0.76731  -0.75728  -0.75214  -0.72449
 Alpha  occ. eigenvalues --   -0.69861  -0.68057  -0.66062  -0.62133  -0.61616
 Alpha  occ. eigenvalues --   -0.60694  -0.60480  -0.59837  -0.57797  -0.56890
 Alpha  occ. eigenvalues --   -0.55411  -0.52712  -0.51536  -0.51211  -0.49752
 Alpha  occ. eigenvalues --   -0.47980  -0.47575  -0.47154  -0.46490  -0.45475
 Alpha  occ. eigenvalues --   -0.45173  -0.44442  -0.43840  -0.43489  -0.43190
 Alpha  occ. eigenvalues --   -0.42934  -0.42450  -0.42216  -0.42073  -0.40304
 Alpha  occ. eigenvalues --   -0.39145  -0.37855  -0.37781  -0.37396  -0.36731
 Alpha  occ. eigenvalues --   -0.36580  -0.36253  -0.35943  -0.35641  -0.34483
 Alpha  occ. eigenvalues --   -0.33520  -0.30716  -0.30229  -0.29448  -0.27940
 Alpha  occ. eigenvalues --   -0.27203  -0.26696  -0.26355  -0.26168  -0.26011
 Alpha  occ. eigenvalues --   -0.25939  -0.23099  -0.21641
 Alpha virt. eigenvalues --   -0.04598  -0.03928  -0.02661  -0.02081  -0.01370
 Alpha virt. eigenvalues --   -0.01008   0.01150   0.02518   0.03565   0.04962
 Alpha virt. eigenvalues --    0.07570   0.08117   0.08270   0.09651   0.09994

 Mulliken charges:
               1
     1  C   -0.421972
     2  C   -0.359114
     3  S    0.180782
     4  C   -0.080053
     5  N   -0.264893
     6  N   -0.319729
     7  C    0.316769
     8  N   -0.603729
     9  C   -0.208103
    10  C    0.121579
    11  C   -0.182738
    12  C   -0.127708
    13  C   -0.125769
    14  C   -0.129587
    15  C   -0.163792
    16  S    0.216914
    17  C    0.533561
    18  N   -0.555730
    19  C    0.240731
    20  C   -0.158040
    21  C   -0.127323
    22  C   -0.133621
    23  C   -0.178963
    24  C    0.062062
    25  C    0.575689
    26  O   -0.508379
    27  N   -0.671788
    28  H    0.169556
    29  H    0.166561
    30  H    0.176233
    31  H    0.229412
    32  H    0.348403
    33  H    0.183191
    34  H    0.161752
    35  H    0.132229
    36  H    0.137084
    37  H    0.136959
    38  H    0.138646
    39  H    0.145873
    40  H    0.146140
    41  H    0.139621
    42  H    0.139436
    43  H    0.167124
    44  H    0.354719
 Sum of Mulliken charges =  -0.00000

 Dipole moment (field-independent basis, Debye):
    X=              3.8052    Y=              0.4953    Z=              2.6253  Tot=              4.6494
 Quadrupole moment (field-independent basis, Debye-Ang):
   XX=           -120.8007   YY=           -175.2716   ZZ=           -174.5676
   XY=              4.8473   XZ=             -4.9143   YZ=              1.4913

 Normal termination of Gaussian 16 at Sat Nov  5 12:10:46 2022.
