 Gaussian 16, Revision B.01,
 Gaussian 16:  ES64L-G16RevB.01 20-Dec-2017

 -----------------------------
 #p b3lyp/6-31g(d) opt SCF=XQC
 -----------------------------

 ------------------------------
 Gaussian input prepared by ASE
 ------------------------------
 Symbolic Z-matrix:
 Charge =  0 Multiplicity = 1

 SCF Done:  E(RB3LYP) =  -1879.61939289     A.U. after   16 cycles
 SCF Done:  E(RB3LYP) =  -1879.62619018     A.U. after   12 cycles
 SCF Done:  E(RB3LYP) =  -1879.62688958     A.U. after   12 cycles
 SCF Done:  E(RB3LYP) =  -1879.62709967     A.U. after   12 cycles
 SCF Done:  E(RB3LYP) =  -1879.62724743     A.U. after   12 cycles
 SCF Done:  E(RB3LYP) =  -1879.62735508     A.U. after   11 cycles
 SCF Done:  E(RB3LYP) =  -1879.62750363     A.U. after   12 cycles
 SCF Done:  E(RB3LYP) =  -1879.62755703     A.U. after   11 cycles
 SCF Done:  E(RB3LYP) =  -1879.62757236     A.U. after   11 cycles
 SCF Done:  E(RB3LYP) =  -1879.62757599     A.U. after   11 cycles
 SCF Done:  E(RB3LYP) =  -1879.62757778     A.U. after    9 cycles
 SCF Done:  E(RB3LYP) =  -1879.62757853     A.U. after    9 cycles
 SCF Done:  E(RB3LYP) =  -1879.62757871     A.U. after    8 cycles
 SCF Done:  E(RB3LYP) =  -1879.62757880     A.U. after    8 cycles
 SCF Done:  E(RB3LYP) =  -1879.62757885     A.U. after    8 cycles
 SCF Done:  E(RB3LYP) =  -1879.62757887     A.U. after    8 cycles
 SCF Done:  E(RB3LYP) =  -1879.62757889     A.U. after    8 cycles
 SCF Done:  E(RB3LYP) =  -1879.62757889     A.U. after    7 cycles
 SCF Done:  E(RB3LYP) =  -1879.62757890     A.U. after    7 cycles
 Optimization completed.
    -- Stationary point found.

                         Standard orientation:
 ---------------------------------------------------------------------
 Center     Atomic      Atomic             Coordinates (Angstroms)
 Number     Number       Type             X           Y           Z
 ---------------------------------------------------------------------
      1          6           0        2.070497   -2.433378    0.835096
      2          6           0        2.054289   -0.933054    0.565456
      3         16           0        1.005032   -0.503719   -0.926858
      4          6           0       -0.583865   -0.440348   -0.153878
      5          7           0       -0.815884   -0.523923    1.117589
      6          7           0       -2.147693   -0.445858    1.446944
      7          6           0       -2.915279   -0.278434    0.402345
      8          7           0       -4.265704   -0.086432    0.485586
      9          6           0       -5.175612   -0.391249   -0.619632
     10          6           0       -6.587434    0.048435   -0.294324
     11          6           0       -7.652297   -0.851828   -0.400781
     12          6           0       -8.958590   -0.443946   -0.121708
     13          6           0       -9.209906    0.869517    0.274395
     14          6           0       -8.150729    1.774053    0.388575
     15          6           0       -6.848236    1.367040    0.104273
     16         16           0       -2.042711   -0.242830   -1.141847
     17          6           0        3.427888   -0.333708    0.340807
     18          7           0        4.459938   -1.099724    0.200626
     19          6           0        5.698735   -0.488814    0.035036
     20          6           0        6.835734   -1.305571   -0.114190
     21          6           0        8.087927   -0.733404   -0.282683
     22          6           0        8.241634    0.664079   -0.307332
     23          6           0        7.132465    1.484087   -0.162537
     24          6           0        5.861173    0.917084    0.009411
     25          6           0        4.681576    1.778069    0.158509
     26          8           0        4.663537    3.000174    0.145551
     27          7           0        3.499773    1.042803    0.329183
     28          1           0        1.049301   -2.782848    1.004689
     29          1           0        2.665795   -2.639647    1.730597
     30          1           0        2.514008   -2.980741    0.001129
     31          1           0        1.564909   -0.410496    1.394076
     32          1           0       -4.624580   -0.277295    1.415488
     33          1           0       -4.811385    0.148068   -1.504670
     34          1           0       -5.164473   -1.462772   -0.871401
     35          1           0       -7.459360   -1.878505   -0.703634
     36          1           0       -9.776053   -1.154457   -0.208796
     37          1           0      -10.224969    1.188180    0.495206
     38          1           0       -8.340492    2.798620    0.696908
     39          1           0       -6.024443    2.070066    0.195540
     40          1           0        6.699434   -2.382127   -0.093010
     41          1           0        8.959503   -1.372483   -0.396792
     42          1           0        9.228051    1.099027   -0.439863
     43          1           0        7.215733    2.566154   -0.177857
     44          1           0        2.650773    1.594809    0.396753
 ---------------------------------------------------------------------

 The electronic state is 1-A.
 Alpha  occ. eigenvalues --  -88.92842 -88.90910 -19.12047 -14.39288 -14.37898
 Alpha  occ. eigenvalues --  -14.36710 -14.35367 -14.33467 -10.29883 -10.29614
 Alpha  occ. eigenvalues --  -10.28777 -10.28208 -10.24952 -10.24768 -10.23515
 Alpha  occ. eigenvalues --  -10.21396 -10.20503 -10.20423 -10.20351 -10.20338
 Alpha  occ. eigenvalues --  -10.20324 -10.20272 -10.20245 -10.19973 -10.19861
 Alpha  occ. eigenvalues --  -10.19582 -10.18400  -7.99020  -7.96981  -5.95425
 Alpha  occ. eigenvalues --   -5.95113  -5.94637  -5.93518  -5.93093  -5.92457
 Alpha  occ. eigenvalues --   -1.04597  -1.03355  -0.98918  -0.96121  -0.90702
 Alpha  occ. eigenvalues --   -0.86955  -0.85962  -0.84841  -0.81188  -0.80656
 Alpha  occ. eigenvalues --   -0.77430  -0.76731  -0.75728  -0.75214  -0.72449
 Alpha  occ. eigenvalues --   -0.69861  -0.68056  -0.66062  -0.62133  -0.61616
 Alpha  occ. eigenvalues --   -0.60694  -0.60480  -0.59837  -0.57797  -0.56890
 Alpha  occ. eigenvalues --   -0.55411  -0.52712  -0.51536  -0.51211  -0.49752
 Alpha  occ. eigenvalues --   -0.47980  -0.47575  -0.47154  -0.46490  -0.45475
 Alpha  occ. eigenvalues --   -0.45173  -0.44442  -0.43840  -0.43489  -0.43190
 Alpha  occ. eigenvalues --   -0.42934  -0.42450  -0.42216  -0.42073  -0.40304
 Alpha  occ. eigenvalues --   -0.39145  -0.37855  -0.37781  -0.37396  -0.36731
 Alpha  occ. eigenvalues --   -0.36580  -0.36253  -0.35943  -0.35641  -0.34483
 Alpha  occ. eigenvalues --   -0.33520  -0.30716  -0.30229  -0.29448  -0.27940
 Alpha  occ. eigenvalues --   -0.27203  -0.26696  -0.26355  -0.26168  -0.26011
 Alpha  occ. eigenvalues --   -0.25939  -0.23099  -0.21641
 Alpha virt. eigenvalues --   -0.04598  -0.03928  -0.02661  -0.02081  -0.01370
 Alpha virt. eigenvalues --   -0.01008   0.01150   0.02518   0.03565   0.04962
 Alpha virt. eigenvalues --    0.07570   0.08117   0.08270   0.09651   0.09994

 Mulliken charges:
               1
     1  C   -0.421975
     2  C   -0.359107
     3  S    0.180781
     4  C   -0.080052
     5  N   -0.264895
     6  N   -0.319723
     7  C    0.316765
     8  N   -0.603726
     9  C   -0.208108
    10  C    0.121587
    11  C   -0.182741
    12  C   -0.127703
    13  C   -0.125771
    14  C   -0.129584
    15  C   -0.163798
    16  S    0.216914
    17  C    0.533547
    18  N   -0.555711
    19  C    0.240724
    20  C   -0.158040
    21  C   -0.127322
    22  C   -0.133622
    23  C   -0.178966
    24  C    0.062060
    25  C    0.575701
    26  O   -0.508377
    27  N   -0.671800
    28  H    0.169557
    29  H    0.166562
    30  H    0.176233
    31  H    0.229412
    32  H    0.348402
    33  H    0.183191
    34  H    0.161752
    35  H    0.132229
    36  H    0.137084
    37  H    0.136959
    38  H    0.138646
    39  H    0.145873
    40  H    0.146140
    41  H    0.139621
    42  H    0.139437
    43  H    0.167125
    44  H    0.354720
 Sum of Mulliken charges =  -0.00000

 Dipole moment (field-independent basis, Debye):
    X=             -4.0526    Y=             -2.0591    Z=             -0.9765  Tot=              4.6494
 Quadrupole moment (field-independent basis, Debye-Ang):
   XX=           -119.8761   YY=           -173.6094   ZZ=           -174.8008
   XY=             -9.6201   XZ=              0.6317   YZ=              1.6603

 Normal termination of Gaussian 16 at Fri Nov  4 20:36:19 2022.
