 Gaussian 16, Revision B.01,
 Gaussian 16:  ES64L-G16RevB.01 20-Dec-2017

 -------------------------------------------------------------------
 #p b3lyp/6-31g(d) 6D 10F nosymm GFInput td=(50-50,nstate=2) SCF=XQC
 -------------------------------------------------------------------

 ------------------------------
 Gaussian input prepared by ASE
 ------------------------------
 Symbolic Z-matrix:
 Charge =  0 Multiplicity = 1

                          Input orientation:
 ---------------------------------------------------------------------
 Center     Atomic      Atomic             Coordinates (Angstroms)
 Number     Number       Type             X           Y           Z
 ---------------------------------------------------------------------
      1          8           0       -0.957945   -1.853564   -1.695130
      2          6           0       -1.047601   -2.138396   -0.370785
      3          6           0       -0.715542   -1.304125    0.664854
      4          6           0       -0.226307    0.084519    0.522361
      5          7           0        0.713600    0.480208   -0.273514
      6          6           0        1.675737   -0.454115   -0.843006
      7          6           0        3.106643   -0.006302   -0.576798
      8          6           0        4.093656   -0.952629   -0.281278
      9          6           0        5.420135   -0.564765   -0.079445
     10          6           0        5.775430    0.781353   -0.166729
     11          6           0        4.795547    1.734136   -0.456593
     12          6           0        3.472465    1.343092   -0.660218
     13          7           0       -0.885185    0.990095    1.327090
     14          6           0       -0.583030    2.420828    1.340790
     15          6           0       -1.452572    3.250976    0.412128
     16          6           0       -1.257871    3.216524   -0.977203
     17          6           0       -2.072178    3.967283   -1.824051
     18          6           0       -3.091928    4.765078   -1.297398
     19          6           0       -3.291161    4.808599    0.082372
     20          6           0       -2.474879    4.054964    0.929109
     21         16           0       -1.063923   -2.043858    2.239303
     22          6           0       -1.635119   -3.510116    1.455805
     23          6           0       -2.107721   -4.670971    2.077012
     24          6           0       -2.520534   -5.729039    1.274333
     25          6           0       -2.465488   -5.640471   -0.129531
     26          6           0       -1.993954   -4.491492   -0.748062
     27          6           0       -1.569294   -3.414004    0.047582
     28          1           0       -0.654040   -0.933425   -1.789114
     29          1           0        1.533625   -0.493681   -1.935841
     30          1           0        1.551464   -1.483373   -0.477734
     31          1           0        3.822236   -2.003561   -0.204888
     32          1           0        6.172303   -1.314474    0.152919
     33          1           0        6.806027    1.087203   -0.006339
     34          1           0        5.063037    2.785883   -0.523409
     35          1           0        2.708222    2.083664   -0.874675
     36          1           0       -1.818380    0.725642    1.615103
     37          1           0       -0.705022    2.775543    2.371132
     38          1           0        0.471478    2.513158    1.072581
     39          1           0       -0.462524    2.595876   -1.379835
     40          1           0       -1.908230    3.935295   -2.898320
     41          1           0       -3.723789    5.351423   -1.959355
     42          1           0       -4.078886    5.429380    0.501468
     43          1           0       -2.631029    4.096565    2.005522
     44          1           0       -2.153736   -4.743554    3.159709
     45          1           0       -2.892454   -6.637381    1.740207
     46          1           0       -2.795047   -6.481714   -0.732468
     47          1           0       -1.946234   -4.412275   -1.829662
 ---------------------------------------------------------------------

 SCF Done:  E(RB3LYP) =  -1471.40002014     A.U. after   15 cycles

 Excitation energies and oscillator strengths:

 Excited state symmetry could not be determined.
 Excited State   1:      Triplet-?Sym    2.8482 eV  435.31 nm  f=0.0000  <S**2>=2.000
      94 -> 99         0.12561
      98 -> 99         0.65956
 This state for optimization and/or second-order correction.
 Total Energy, E(TD-HF/TD-DFT) =  -1471.29535104
 Copying the excited state density for this state as the 1-particle RhoCI density.

 Excited state symmetry could not be determined.
 Excited State   2:      Triplet-?Sym    3.5488 eV  349.37 nm  f=0.0000  <S**2>=2.000
      97 -> 99         0.58888
      97 ->103         0.14733
      97 ->106        -0.19783

 Excited state symmetry could not be determined.
 Excited State   3:      Singlet-?Sym    4.1449 eV  299.13 nm  f=0.1587  <S**2>=0.000
      98 -> 99         0.67942

 Excited state symmetry could not be determined.
 Excited State   4:      Singlet-?Sym    4.3474 eV  285.19 nm  f=0.0487  <S**2>=0.000
      91 -> 99        -0.12575
      97 -> 99         0.67756

 Alpha  occ. eigenvalues --  -88.90951 -19.19318 -14.35694 -14.30929 -10.27252
 Alpha  occ. eigenvalues --  -10.26477 -10.23025 -10.22161 -10.22092 -10.21136
 Alpha  occ. eigenvalues --  -10.20646 -10.20435 -10.20044 -10.20019 -10.19632
 Alpha  occ. eigenvalues --  -10.19410 -10.18956 -10.18896 -10.18862 -10.18804
 Alpha  occ. eigenvalues --  -10.18608 -10.18373 -10.18082 -10.18011 -10.17939
 Alpha  occ. eigenvalues --  -10.17906 -10.17545  -7.96974  -5.93434  -5.93078
 Alpha  occ. eigenvalues --   -5.92570  -1.07460  -0.96334  -0.89290  -0.88522
 Alpha  occ. eigenvalues --   -0.85041  -0.84047  -0.83074  -0.77237  -0.77175
 Alpha  occ. eigenvalues --   -0.75235  -0.74152  -0.73768  -0.73248  -0.71197
 Alpha  occ. eigenvalues --   -0.69413  -0.67121  -0.63597  -0.60972  -0.60357
 Alpha  occ. eigenvalues --   -0.59622  -0.59190  -0.58521  -0.58226  -0.55861
 Alpha  occ. eigenvalues --   -0.54264  -0.51632  -0.50522  -0.49983  -0.49170
 Alpha  occ. eigenvalues --   -0.47523  -0.46160  -0.45915  -0.45720  -0.44838
 Alpha  occ. eigenvalues --   -0.44477  -0.44229  -0.43987  -0.42973  -0.42018
 Alpha  occ. eigenvalues --   -0.41809  -0.41652  -0.41262  -0.40917  -0.40701
 Alpha  occ. eigenvalues --   -0.39593  -0.38533  -0.37388  -0.36949  -0.36626
 Alpha  occ. eigenvalues --   -0.36037  -0.35296  -0.34725  -0.34001  -0.33840
 Alpha  occ. eigenvalues --   -0.33650  -0.33224  -0.32855  -0.31816  -0.27329
 Alpha  occ. eigenvalues --   -0.25341  -0.24822  -0.24623  -0.24103  -0.23914
 Alpha  occ. eigenvalues --   -0.23275  -0.22349  -0.21045
 Alpha virt. eigenvalues --   -0.04185  -0.00773  -0.00383   0.00119   0.00471
 Alpha virt. eigenvalues --    0.00819   0.01252   0.02888   0.06206   0.07249
 Alpha virt. eigenvalues --    0.09533   0.09861   0.10015   0.10417   0.11446

 Mulliken charges:
               1
     1  O   -0.638594
     2  C    0.301942
     3  C   -0.280390
     4  C    0.477140
     5  N   -0.497554
     6  C   -0.251626
     7  C    0.163757
     8  C   -0.184357
     9  C   -0.128991
    10  C   -0.129272
    11  C   -0.133455
    12  C   -0.166676
    13  N   -0.594044
    14  C   -0.222651
    15  C    0.153250
    16  C   -0.181356
    17  C   -0.129844
    18  C   -0.128824
    19  C   -0.126679
    20  C   -0.188894
    21  S    0.231215
    22  C   -0.142335
    23  C   -0.180209
    24  C   -0.115468
    25  C   -0.146868
    26  C   -0.160637
    27  C    0.137484
    28  H    0.427135
    29  H    0.144727
    30  H    0.149070
    31  H    0.122169
    32  H    0.125393
    33  H    0.124362
    34  H    0.125148
    35  H    0.138985
    36  H    0.330867
    37  H    0.150051
    38  H    0.194760
    39  H    0.153194
    40  H    0.129243
    41  H    0.129062
    42  H    0.128950
    43  H    0.121887
    44  H    0.144435
    45  H    0.135907
    46  H    0.135804
    47  H    0.152784
 Sum of Mulliken charges =  -0.00000

 Dipole moment (field-independent basis, Debye):
    X=             -1.8910    Y=             -0.5039    Z=              0.4705  Tot=              2.0127
 Quadrupole moment (field-independent basis, Debye-Ang):
   XX=           -157.9770   YY=           -147.6769   ZZ=           -156.9706
   XY=              0.3274   XZ=             -2.1508   YZ=             -1.8341

 Normal termination of Gaussian 16 at Sat Nov  5 12:16:25 2022.
