 Gaussian 16, Revision B.01,
 Gaussian 16:  ES64L-G16RevB.01 20-Dec-2017

 -----------------------------
 #p b3lyp/6-31g(d) opt SCF=XQC
 -----------------------------

 ------------------------------
 Gaussian input prepared by ASE
 ------------------------------
 Symbolic Z-matrix:
 Charge =  0 Multiplicity = 1

 SCF Done:  E(RB3LYP) =  -1471.37874704     A.U. after   15 cycles
 SCF Done:  E(RB3LYP) =  -1471.38226606     A.U. after   15 cycles
 SCF Done:  E(RB3LYP) =  -1471.38572922     A.U. after   15 cycles
 SCF Done:  E(RB3LYP) =  -1471.39124160     A.U. after   15 cycles
 SCF Done:  E(RB3LYP) =  -1471.38891606     A.U. after   15 cycles
 SCF Done:  E(RB3LYP) =  -1471.39396699     A.U. after   13 cycles
 SCF Done:  E(RB3LYP) =  -1471.39557337     A.U. after   12 cycles
 SCF Done:  E(RB3LYP) =  -1471.39708843     A.U. after   15 cycles
 SCF Done:  E(RB3LYP) =  -1471.39778433     A.U. after   12 cycles
 SCF Done:  E(RB3LYP) =  -1471.39893979     A.U. after   15 cycles
 SCF Done:  E(RB3LYP) =  -1471.39993567     A.U. after   11 cycles
 SCF Done:  E(RB3LYP) =  -1471.39994878     A.U. after   10 cycles
 SCF Done:  E(RB3LYP) =  -1471.39996517     A.U. after   11 cycles
 SCF Done:  E(RB3LYP) =  -1471.39998244     A.U. after   11 cycles
 SCF Done:  E(RB3LYP) =  -1471.40000366     A.U. after   11 cycles
 SCF Done:  E(RB3LYP) =  -1471.40001351     A.U. after   10 cycles
 SCF Done:  E(RB3LYP) =  -1471.40001586     A.U. after    9 cycles
 SCF Done:  E(RB3LYP) =  -1471.40001633     A.U. after    8 cycles
 SCF Done:  E(RB3LYP) =  -1471.40001653     A.U. after    8 cycles
 SCF Done:  E(RB3LYP) =  -1471.40001659     A.U. after    7 cycles
 Optimization completed.
    -- Stationary point found.

                         Standard orientation:
 ---------------------------------------------------------------------
 Center     Atomic      Atomic             Coordinates (Angstroms)
 Number     Number       Type             X           Y           Z
 ---------------------------------------------------------------------
      1          8           0       -1.481486   -0.284719    2.106484
      2          6           0       -1.967900   -0.382339    0.842789
      3          6           0       -1.237089   -0.335318   -0.315885
      4          6           0        0.233945   -0.202170   -0.395356
      5          7           0        0.954390    0.656098    0.250976
      6          6           0        0.370684    1.855374    0.837501
      7          6           0        1.105426    3.108755    0.381337
      8          6           0        0.391102    4.281214    0.112744
      9          6           0        1.052546    5.452761   -0.262342
     10          6           0        2.442636    5.463751   -0.378167
     11          6           0        3.164051    4.296208   -0.116648
     12          6           0        2.500629    3.128851    0.260278
     13          7           0        0.828813   -1.115926   -1.239725
     14          6           0        2.272778   -1.183784   -1.460725
     15          6           0        2.995303   -2.174199   -0.563674
     16          6           0        3.209819   -1.890966    0.793933
     17          6           0        3.857559   -2.813202    1.614788
     18          6           0        4.302574   -4.031219    1.093128
     19          6           0        4.097058   -4.320509   -0.255733
     20          6           0        3.447047   -3.395636   -1.076308
     21         16           0       -2.258432   -0.584334   -1.744981
     22          6           0       -3.689759   -0.719534   -0.733513
     23          6           0       -5.007348   -0.923562   -1.156796
     24          6           0       -6.006052   -1.006958   -0.192509
     25          6           0       -5.704851   -0.888589    1.177518
     26          6           0       -4.399307   -0.682782    1.599743
     27          6           0       -3.378099   -0.592374    0.638843
     28          1           0       -0.511681   -0.216101    2.055344
     29          1           0        0.456605    1.796060    1.935295
     30          1           0       -0.699991    1.970766    0.617096
     31          1           0       -0.693921    4.277882    0.194453
     32          1           0        0.479747    6.352967   -0.470536
     33          1           0        2.960344    6.372623   -0.673680
     34          1           0        4.247529    4.294944   -0.207537
     35          1           0        3.059171    2.218159    0.453087
     36          1           0        0.309385   -1.969009   -1.401540
     37          1           0        2.435050   -1.454763   -2.510747
     38          1           0        2.653221   -0.171566   -1.308648
     39          1           0        2.863082   -0.941886    1.192574
     40          1           0        4.021510   -2.579913    2.663907
     41          1           0        4.809530   -4.747477    1.734381
     42          1           0        4.443372   -5.263284   -0.671381
     43          1           0        3.293886   -3.623938   -2.129494
     44          1           0       -5.244602   -1.017219   -2.212522
     45          1           0       -7.034622   -1.167394   -0.503561
     46          1           0       -6.504315   -0.958388    1.909514
     47          1           0       -4.155433   -0.589210    2.653394
 ---------------------------------------------------------------------

 The electronic state is 1-A.
 Alpha  occ. eigenvalues --  -88.90951 -19.19318 -14.35694 -14.30929 -10.27252
 Alpha  occ. eigenvalues --  -10.26477 -10.23025 -10.22161 -10.22092 -10.21136
 Alpha  occ. eigenvalues --  -10.20646 -10.20435 -10.20044 -10.20019 -10.19632
 Alpha  occ. eigenvalues --  -10.19410 -10.18956 -10.18896 -10.18862 -10.18804
 Alpha  occ. eigenvalues --  -10.18608 -10.18373 -10.18082 -10.18011 -10.17939
 Alpha  occ. eigenvalues --  -10.17906 -10.17545  -7.96974  -5.93434  -5.93078
 Alpha  occ. eigenvalues --   -5.92570  -1.07460  -0.96334  -0.89290  -0.88522
 Alpha  occ. eigenvalues --   -0.85041  -0.84047  -0.83074  -0.77237  -0.77175
 Alpha  occ. eigenvalues --   -0.75235  -0.74152  -0.73768  -0.73248  -0.71197
 Alpha  occ. eigenvalues --   -0.69413  -0.67121  -0.63597  -0.60972  -0.60357
 Alpha  occ. eigenvalues --   -0.59622  -0.59190  -0.58521  -0.58226  -0.55861
 Alpha  occ. eigenvalues --   -0.54264  -0.51632  -0.50522  -0.49983  -0.49170
 Alpha  occ. eigenvalues --   -0.47523  -0.46161  -0.45915  -0.45720  -0.44838
 Alpha  occ. eigenvalues --   -0.44477  -0.44229  -0.43987  -0.42973  -0.42018
 Alpha  occ. eigenvalues --   -0.41809  -0.41652  -0.41262  -0.40917  -0.40701
 Alpha  occ. eigenvalues --   -0.39593  -0.38533  -0.37388  -0.36949  -0.36626
 Alpha  occ. eigenvalues --   -0.36037  -0.35296  -0.34725  -0.34001  -0.33840
 Alpha  occ. eigenvalues --   -0.33650  -0.33224  -0.32855  -0.31816  -0.27329
 Alpha  occ. eigenvalues --   -0.25341  -0.24822  -0.24623  -0.24103  -0.23914
 Alpha  occ. eigenvalues --   -0.23275  -0.22349  -0.21045
 Alpha virt. eigenvalues --   -0.04185  -0.00773  -0.00383   0.00119   0.00471
 Alpha virt. eigenvalues --    0.00819   0.01252   0.02888   0.06206   0.07249
 Alpha virt. eigenvalues --    0.09533   0.09861   0.10015   0.10417   0.11446

 Mulliken charges:
               1
     1  O   -0.638594
     2  C    0.301941
     3  C   -0.280388
     4  C    0.477159
     5  N   -0.497564
     6  C   -0.251625
     7  C    0.163745
     8  C   -0.184356
     9  C   -0.128977
    10  C   -0.129281
    11  C   -0.133457
    12  C   -0.166663
    13  N   -0.594055
    14  C   -0.222642
    15  C    0.153238
    16  C   -0.181353
    17  C   -0.129836
    18  C   -0.128831
    19  C   -0.126679
    20  C   -0.188886
    21  S    0.231223
    22  C   -0.142337
    23  C   -0.180210
    24  C   -0.115470
    25  C   -0.146863
    26  C   -0.160642
    27  C    0.137483
    28  H    0.427134
    29  H    0.144727
    30  H    0.149067
    31  H    0.122168
    32  H    0.125392
    33  H    0.124362
    34  H    0.125148
    35  H    0.138983
    36  H    0.330867
    37  H    0.150051
    38  H    0.194757
    39  H    0.153190
    40  H    0.129243
    41  H    0.129062
    42  H    0.128950
    43  H    0.121887
    44  H    0.144435
    45  H    0.135907
    46  H    0.135804
    47  H    0.152784
 Sum of Mulliken charges =  -0.00000

 Dipole moment (field-independent basis, Debye):
    X=             -1.0055    Y=             -1.7296    Z=             -0.2202  Tot=              2.0127
 Quadrupole moment (field-independent basis, Debye-Ang):
   XX=           -148.2236   YY=           -157.5250   ZZ=           -157.7353
   XY=             -2.3713   XZ=              0.8838   YZ=              1.7184

 Normal termination of Gaussian 16 at Fri Nov  4 20:49:07 2022.
