 Gaussian 16, Revision B.01,
 Gaussian 16:  ES64L-G16RevB.01 20-Dec-2017

 -----------------------------
 #p b3lyp/6-31g(d) opt SCF=XQC
 -----------------------------

 ------------------------------
 Gaussian input prepared by ASE
 ------------------------------
 Symbolic Z-matrix:
 Charge =  0 Multiplicity = 1

 SCF Done:  E(RB3LYP) =  -1651.77699139     A.U. after   15 cycles
 SCF Done:  E(RB3LYP) =  -1651.78352114     A.U. after   12 cycles
 SCF Done:  E(RB3LYP) =  -1651.78413890     A.U. after   12 cycles
 SCF Done:  E(RB3LYP) =  -1651.78453478     A.U. after   12 cycles
 SCF Done:  E(RB3LYP) =  -1651.78492096     A.U. after   13 cycles
 SCF Done:  E(RB3LYP) =  -1651.78523913     A.U. after   12 cycles
 SCF Done:  E(RB3LYP) =  -1651.78571187     A.U. after   12 cycles
 SCF Done:  E(RB3LYP) =  -1651.78567106     A.U. after   15 cycles
 SCF Done:  E(RB3LYP) =  -1651.78596256     A.U. after   12 cycles
 SCF Done:  E(RB3LYP) =  -1651.78604945     A.U. after   12 cycles
 SCF Done:  E(RB3LYP) =  -1651.78607168     A.U. after    9 cycles
 SCF Done:  E(RB3LYP) =  -1651.78607293     A.U. after    9 cycles
 SCF Done:  E(RB3LYP) =  -1651.78607495     A.U. after   10 cycles
 SCF Done:  E(RB3LYP) =  -1651.78607786     A.U. after   10 cycles
 SCF Done:  E(RB3LYP) =  -1651.78607964     A.U. after   10 cycles
 SCF Done:  E(RB3LYP) =  -1651.78608072     A.U. after    8 cycles
 SCF Done:  E(RB3LYP) =  -1651.78608117     A.U. after    8 cycles
 SCF Done:  E(RB3LYP) =  -1651.78608126     A.U. after    7 cycles
 SCF Done:  E(RB3LYP) =  -1651.78608131     A.U. after    7 cycles
 SCF Done:  E(RB3LYP) =  -1651.78608135     A.U. after    7 cycles
 Optimization completed.
    -- Stationary point found.

                         Standard orientation:
 ---------------------------------------------------------------------
 Center     Atomic      Atomic             Coordinates (Angstroms)
 Number     Number       Type             X           Y           Z
 ---------------------------------------------------------------------
      1          6           0       -8.820225   -2.621678    0.895485
      2          7           0       -8.037437   -1.948773   -0.122948
      3          6           0       -6.678090   -1.722505    0.013881
      4          6           0       -5.902406   -2.388042    0.987433
      5          6           0       -4.533505   -2.164699    1.063836
      6          6           0       -3.880503   -1.280260    0.195385
      7          6           0       -4.672131   -0.604935   -0.757907
      8          6           0       -6.037837   -0.816335   -0.854083
      9          8           0       -4.091043    0.246131   -1.673733
     10          6           0       -2.922638    0.944920   -1.225894
     11          6           0       -3.303566    2.119262   -0.325741
     12          6           0       -4.205823    3.069137   -0.824161
     13          6           0       -4.574029    4.167459   -0.050801
     14          6           0       -4.041296    4.329996    1.231265
     15          6           0       -3.142128    3.388882    1.730669
     16          6           0       -2.772649    2.286602    0.955286
     17          7           0       -2.001503    0.004889   -0.625025
     18          6           0       -2.449419   -1.046872    0.170243
     19          6           0       -1.358932   -1.683129    0.727012
     20          6           0       -0.186148   -0.997389    0.272162
     21          6           0        1.188960   -1.173139    0.481713
     22          6           0        2.095678   -0.302028   -0.125679
     23          7           0        3.473433   -0.532236    0.122891
     24          6           0        4.569721    0.170841   -0.304770
     25          8           0        4.534270    1.163563   -1.018531
     26          6           0        5.907846   -0.398608    0.208364
     27          6           0        6.806154    0.699625    0.788671
     28          6           0        8.186861    0.065019    0.705965
     29          9           0        8.467008   -0.594442    1.884540
     30          9           0        9.182464    0.985833    0.537007
     31          6           0        8.118637   -0.951601   -0.445675
     32          7           0        6.725911   -0.905843   -0.896531
     33          6           0        6.255890   -2.119828   -1.533775
     34          6           0        1.645177    0.756978   -0.947974
     35          6           0        0.284794    0.945238   -1.168993
     36          6           0       -0.619028    0.066594   -0.570600
     37          1           0       -8.509772   -3.668414    0.992677
     38          1           0       -8.743085   -2.148461    1.887458
     39          1           0       -9.869076   -2.616332    0.588632
     40          1           0       -8.531027   -1.240047   -0.647052
     41          1           0       -6.369084   -3.077942    1.681128
     42          1           0       -3.952586   -2.686022    1.819873
     43          1           0       -6.600061   -0.277614   -1.611584
     44          1           0       -2.469964    1.319654   -2.148692
     45          1           0       -4.625899    2.937284   -1.818004
     46          1           0       -5.274760    4.897585   -0.447088
     47          1           0       -4.325598    5.187768    1.834913
     48          1           0       -2.723744    3.508753    2.726343
     49          1           0       -2.069863    1.560064    1.349666
     50          1           0       -1.390670   -2.567277    1.348618
     51          1           0        1.546011   -1.982361    1.116310
     52          1           0        3.665892   -1.330225    0.713512
     53          1           0        5.723698   -1.177993    0.977965
     54          1           0        6.558060    0.992485    1.811327
     55          1           0        6.757652    1.568446    0.127541
     56          1           0        8.412602   -1.939910   -0.053341
     57          1           0        8.805609   -0.680718   -1.254985
     58          1           0        6.256688   -2.996716   -0.855288
     59          1           0        5.238591   -1.974004   -1.910118
     60          1           0        6.896632   -2.355684   -2.389927
     61          1           0        2.373191    1.416641   -1.397482
     62          1           0       -0.049511    1.767674   -1.794831
 ---------------------------------------------------------------------

 The electronic state is 1-A.
 Alpha  occ. eigenvalues --  -24.69117 -24.68888 -19.18368 -19.11633 -14.37753
 Alpha  occ. eigenvalues --  -14.37747 -14.35495 -14.33656 -10.34095 -10.29611
 Alpha  occ. eigenvalues --  -10.28957 -10.25015 -10.23535 -10.23302 -10.22781
 Alpha  occ. eigenvalues --  -10.22539 -10.22478 -10.21760 -10.21617 -10.21041
 Alpha  occ. eigenvalues --  -10.20145 -10.19511 -10.19496 -10.19452 -10.19414
 Alpha  occ. eigenvalues --  -10.19356 -10.19300 -10.19291 -10.19238 -10.18833
 Alpha  occ. eigenvalues --  -10.18746 -10.18655 -10.18423 -10.18358 -10.17670
 Alpha  occ. eigenvalues --  -10.17310  -1.23236  -1.17416  -1.07962  -1.03598
 Alpha  occ. eigenvalues --   -0.98284  -0.94478  -0.94101  -0.93853  -0.86288
 Alpha  occ. eigenvalues --   -0.84912  -0.83915  -0.80011  -0.79359  -0.77222
 Alpha  occ. eigenvalues --   -0.76226  -0.75449  -0.74800  -0.74423  -0.73453
 Alpha  occ. eigenvalues --   -0.71548  -0.69342  -0.68387  -0.67794  -0.64845
 Alpha  occ. eigenvalues --   -0.63020  -0.61449  -0.61151  -0.60398  -0.60155
 Alpha  occ. eigenvalues --   -0.59605  -0.58817  -0.56837  -0.55111  -0.54605
 Alpha  occ. eigenvalues --   -0.54151  -0.53535  -0.52953  -0.52118  -0.51197
 Alpha  occ. eigenvalues --   -0.50337  -0.49721  -0.48770  -0.48056  -0.47693
 Alpha  occ. eigenvalues --   -0.47037  -0.46731  -0.45418  -0.45244  -0.45081
 Alpha  occ. eigenvalues --   -0.44693  -0.44605  -0.43934  -0.43545  -0.43275
 Alpha  occ. eigenvalues --   -0.42901  -0.42517  -0.42363  -0.41615  -0.41358
 Alpha  occ. eigenvalues --   -0.41090  -0.40736  -0.40514  -0.39916  -0.39364
 Alpha  occ. eigenvalues --   -0.39323  -0.38857  -0.38404  -0.37957  -0.37505
 Alpha  occ. eigenvalues --   -0.37185  -0.37042  -0.36581  -0.36297  -0.36043
 Alpha  occ. eigenvalues --   -0.35948  -0.34808  -0.34344  -0.34136  -0.33541
 Alpha  occ. eigenvalues --   -0.32256  -0.31398  -0.30373  -0.27929  -0.27246
 Alpha  occ. eigenvalues --   -0.25404  -0.25242  -0.25198  -0.23259  -0.22515
 Alpha  occ. eigenvalues --   -0.22051  -0.19800  -0.17949
 Alpha virt. eigenvalues --   -0.02982  -0.01263  -0.00489  -0.00171   0.00523
 Alpha virt. eigenvalues --    0.02541   0.05554   0.06295   0.07412   0.08846
 Alpha virt. eigenvalues --    0.09385   0.09701   0.09793   0.10012   0.10276

 Mulliken charges:
               1
     1  C   -0.303341
     2  N   -0.646671
     3  C    0.376032
     4  C   -0.196060
     5  C   -0.204319
     6  C    0.084329
     7  C    0.324698
     8  C   -0.261355
     9  O   -0.543884
    10  C    0.158984
    11  C    0.129588
    12  C   -0.159680
    13  C   -0.135528
    14  C   -0.122505
    15  C   -0.133866
    16  C   -0.165116
    17  N   -0.628970
    18  C    0.307714
    19  C   -0.287708
    20  C    0.112610
    21  C   -0.307485
    22  C    0.361898
    23  N   -0.729720
    24  C    0.635021
    25  O   -0.507380
    26  C   -0.064841
    27  C   -0.344172
    28  C    0.608806
    29  F   -0.313796
    30  F   -0.302428
    31  C   -0.173020
    32  N   -0.391573
    33  C   -0.311226
    34  C   -0.194681
    35  C   -0.186604
    36  C    0.335481
    37  H    0.167824
    38  H    0.152861
    39  H    0.158144
    40  H    0.321141
    41  H    0.125423
    42  H    0.134909
    43  H    0.127066
    44  H    0.167432
    45  H    0.137365
    46  H    0.132306
    47  H    0.132481
    48  H    0.135238
    49  H    0.156280
    50  H    0.127494
    51  H    0.117280
    52  H    0.331325
    53  H    0.108259
    54  H    0.166649
    55  H    0.200642
    56  H    0.142892
    57  H    0.167971
    58  H    0.118611
    59  H    0.168853
    60  H    0.161845
    61  H    0.184636
    62  H    0.135840
 Sum of Mulliken charges =  -0.00000

 Dipole moment (field-independent basis, Debye):
    X=             -6.6601    Y=             -2.1308    Z=              1.7062  Tot=              7.1978
 Quadrupole moment (field-independent basis, Debye-Ang):
   XX=           -183.4731   YY=           -195.5018   ZZ=           -204.0448
   XY=            -18.0084   XZ=             -4.6078   YZ=             -3.6048

 Normal termination of Gaussian 16 at Fri Nov  4 21:06:07 2022.
