 Gaussian 16, Revision B.01,
 Gaussian 16:  ES64L-G16RevB.01 20-Dec-2017

 -------------------------------------------------------------------
 #p b3lyp/6-31g(d) 6D 10F nosymm GFInput td=(50-50,nstate=2) SCF=XQC
 -------------------------------------------------------------------

 ------------------------------
 Gaussian input prepared by ASE
 ------------------------------
 Symbolic Z-matrix:
 Charge =  0 Multiplicity = 1

                          Input orientation:
 ---------------------------------------------------------------------
 Center     Atomic      Atomic             Coordinates (Angstroms)
 Number     Number       Type             X           Y           Z
 ---------------------------------------------------------------------
      1          6           0        8.326023    3.154402    0.067492
      2          7           0        7.499408    2.432844   -0.880572
      3          6           0        6.181180    2.101772   -0.615223
      4          6           0        5.457528    2.696907    0.440510
      5          6           0        4.123629    2.368573    0.646715
      6          6           0        3.456562    1.444686   -0.168334
      7          6           0        4.198774    0.840830   -1.205630
      8          6           0        5.528450    1.157193   -1.431398
      9          8           0        3.595866   -0.043835   -2.074298
     10          6           0        2.533456   -0.834234   -1.526038
     11          6           0        3.088911   -1.984133   -0.687193
     12          6           0        4.006540   -2.857415   -1.287266
     13          6           0        4.531112   -3.931332   -0.572073
     14          6           0        4.141443   -4.146006    0.753064
     15          6           0        3.227638   -3.281231    1.353668
     16          6           0        2.701304   -2.203447    0.636653
     17          7           0        1.607961    0.026845   -0.822340
     18          6           0        2.051686    1.102503   -0.057258
     19          6           0        0.976698    1.648136    0.614055
     20          6           0       -0.180235    0.878703    0.264727
     21          6           0       -1.537226    0.946572    0.610692
     22          6           0       -2.431252    0.014123    0.080454
     23          7           0       -3.791119    0.135725    0.466413
     24          6           0       -4.868155   -0.645377    0.136368
     25          8           0       -4.828660   -1.625861   -0.593908
     26          6           0       -6.188136   -0.184939    0.787370
     27          6           0       -6.939340   -1.354097    1.434356
     28          6           0       -8.365358   -0.826487    1.497712
     29          9           0       -8.576600   -0.201301    2.708880
     30          9           0       -9.300512   -1.819334    1.411610
     31          6           0       -8.488102    0.202908    0.362051
     32          7           0       -7.147274    0.268210   -0.223582
     33          6           0       -6.835390    1.520461   -0.883396
     34          6           0       -1.985651   -0.999627   -0.799526
     35          6           0       -0.643461   -1.080992   -1.155670
     36          6           0        0.246235   -0.141172   -0.633978
     37          1           0        7.948663    4.173318    0.212043
     38          1           0        8.383175    2.667571    1.054215
     39          1           0        9.336825    3.232308   -0.340536
     40          1           0        7.990818    1.768894   -1.462202
     41          1           0        5.937117    3.414155    1.096645
     42          1           0        3.582613    2.836854    1.464548
     43          1           0        6.052083    0.670145   -2.249148
     44          1           0        2.021364   -1.234079   -2.406256
     45          1           0        4.315217   -2.684619   -2.315094
     46          1           0        5.242301   -4.601911   -1.047137
     47          1           0        4.547857   -4.984964    1.311605
     48          1           0        2.919916   -3.441968    2.383354
     49          1           0        1.988158   -1.536585    1.109960
     50          1           0        1.002950    2.526368    1.244245
     51          1           0       -1.889815    1.720173    1.290590
     52          1           0       -3.983892    0.911151    1.086264
     53          1           0       -5.988134    0.599169    1.548167
     54          1           0       -6.570042   -1.636455    2.422807
     55          1           0       -6.891035   -2.210532    0.757243
     56          1           0       -8.815535    1.162123    0.797700
     57          1           0       -9.229291   -0.112403   -0.380586
     58          1           0       -6.835254    2.388437   -0.193543
     59          1           0       -5.852170    1.456528   -1.359827
     60          1           0       -7.573541    1.714351   -1.668706
     61          1           0       -2.702701   -1.709009   -1.186611
     62          1           0       -0.311578   -1.869592   -1.824848
 ---------------------------------------------------------------------

 SCF Done:  E(RB3LYP) =  -1651.78607125     A.U. after   15 cycles

 Excitation energies and oscillator strengths:

 Excited state symmetry could not be determined.
 Excited State   1:      Triplet-?Sym    2.6113 eV  474.80 nm  f=0.0000  <S**2>=2.000
     127 ->129        -0.15501
     128 ->129         0.64856
 This state for optimization and/or second-order correction.
 Total Energy, E(TD-HF/TD-DFT) =  -1651.69010842
 Copying the excited state density for this state as the 1-particle RhoCI density.

 Excited state symmetry could not be determined.
 Excited State   2:      Triplet-?Sym    3.2172 eV  385.38 nm  f=0.0000  <S**2>=2.000
     125 ->129         0.12182
     127 ->129         0.56525
     127 ->130        -0.12224
     127 ->132         0.15657
     127 ->134         0.15064
     128 ->129         0.17804
     128 ->134        -0.10858

 Excited state symmetry could not be determined.
 Excited State   3:      Singlet-?Sym    3.7459 eV  330.99 nm  f=0.7905  <S**2>=0.000
     127 ->129         0.12366
     128 ->129         0.66981
     128 ->130         0.10171

 Excited state symmetry could not be determined.
 Excited State   4:      Singlet-?Sym    3.9828 eV  311.30 nm  f=0.0579  <S**2>=0.000
     127 ->129        -0.12959
     128 ->130         0.68176

 Alpha  occ. eigenvalues --  -24.69117 -24.68888 -19.18368 -19.11633 -14.37753
 Alpha  occ. eigenvalues --  -14.37747 -14.35495 -14.33656 -10.34095 -10.29611
 Alpha  occ. eigenvalues --  -10.28957 -10.25015 -10.23535 -10.23302 -10.22781
 Alpha  occ. eigenvalues --  -10.22539 -10.22478 -10.21760 -10.21616 -10.21041
 Alpha  occ. eigenvalues --  -10.20145 -10.19511 -10.19496 -10.19452 -10.19414
 Alpha  occ. eigenvalues --  -10.19356 -10.19300 -10.19291 -10.19238 -10.18832
 Alpha  occ. eigenvalues --  -10.18746 -10.18655 -10.18423 -10.18358 -10.17670
 Alpha  occ. eigenvalues --  -10.17310  -1.23236  -1.17416  -1.07962  -1.03598
 Alpha  occ. eigenvalues --   -0.98284  -0.94478  -0.94101  -0.93853  -0.86288
 Alpha  occ. eigenvalues --   -0.84912  -0.83915  -0.80011  -0.79359  -0.77222
 Alpha  occ. eigenvalues --   -0.76226  -0.75449  -0.74800  -0.74423  -0.73453
 Alpha  occ. eigenvalues --   -0.71548  -0.69342  -0.68387  -0.67794  -0.64845
 Alpha  occ. eigenvalues --   -0.63020  -0.61449  -0.61151  -0.60398  -0.60155
 Alpha  occ. eigenvalues --   -0.59605  -0.58817  -0.56837  -0.55111  -0.54605
 Alpha  occ. eigenvalues --   -0.54151  -0.53535  -0.52953  -0.52118  -0.51197
 Alpha  occ. eigenvalues --   -0.50337  -0.49721  -0.48770  -0.48056  -0.47693
 Alpha  occ. eigenvalues --   -0.47037  -0.46731  -0.45418  -0.45244  -0.45081
 Alpha  occ. eigenvalues --   -0.44693  -0.44605  -0.43934  -0.43545  -0.43275
 Alpha  occ. eigenvalues --   -0.42901  -0.42517  -0.42363  -0.41615  -0.41358
 Alpha  occ. eigenvalues --   -0.41090  -0.40736  -0.40514  -0.39916  -0.39364
 Alpha  occ. eigenvalues --   -0.39323  -0.38857  -0.38404  -0.37957  -0.37505
 Alpha  occ. eigenvalues --   -0.37185  -0.37042  -0.36581  -0.36297  -0.36043
 Alpha  occ. eigenvalues --   -0.35948  -0.34808  -0.34344  -0.34136  -0.33541
 Alpha  occ. eigenvalues --   -0.32256  -0.31398  -0.30373  -0.27929  -0.27246
 Alpha  occ. eigenvalues --   -0.25404  -0.25242  -0.25199  -0.23259  -0.22515
 Alpha  occ. eigenvalues --   -0.22051  -0.19800  -0.17949
 Alpha virt. eigenvalues --   -0.02982  -0.01263  -0.00489  -0.00171   0.00523
 Alpha virt. eigenvalues --    0.02541   0.05554   0.06295   0.07412   0.08846
 Alpha virt. eigenvalues --    0.09385   0.09701   0.09793   0.10012   0.10276

 Mulliken charges:
               1
     1  C   -0.303340
     2  N   -0.646677
     3  C    0.376032
     4  C   -0.196063
     5  C   -0.204321
     6  C    0.084347
     7  C    0.324680
     8  C   -0.261345
     9  O   -0.543884
    10  C    0.158988
    11  C    0.129582
    12  C   -0.159687
    13  C   -0.135520
    14  C   -0.122502
    15  C   -0.133883
    16  C   -0.165100
    17  N   -0.628996
    18  C    0.307724
    19  C   -0.287712
    20  C    0.112622
    21  C   -0.307494
    22  C    0.361902
    23  N   -0.729715
    24  C    0.635005
    25  O   -0.507367
    26  C   -0.064864
    27  C   -0.344175
    28  C    0.608821
    29  F   -0.313794
    30  F   -0.302434
    31  C   -0.173033
    32  N   -0.391554
    33  C   -0.311208
    34  C   -0.194682
    35  C   -0.186605
    36  C    0.335491
    37  H    0.167823
    38  H    0.152862
    39  H    0.158144
    40  H    0.321141
    41  H    0.125422
    42  H    0.134908
    43  H    0.127072
    44  H    0.167431
    45  H    0.137365
    46  H    0.132306
    47  H    0.132481
    48  H    0.135239
    49  H    0.156278
    50  H    0.127494
    51  H    0.117280
    52  H    0.331325
    53  H    0.108262
    54  H    0.166649
    55  H    0.200643
    56  H    0.142891
    57  H    0.167972
    58  H    0.118606
    59  H    0.168849
    60  H    0.161840
    61  H    0.184636
    62  H    0.135840
 Sum of Mulliken charges =  -0.00000

 Dipole moment (field-independent basis, Debye):
    X=              6.6163    Y=              2.6193    Z=              1.0819  Tot=              7.1977
 Quadrupole moment (field-independent basis, Debye-Ang):
   XX=           -184.3886   YY=           -198.9254   ZZ=           -204.5739
   XY=            -18.1106   XZ=              1.4292   YZ=              5.5028

 Normal termination of Gaussian 16 at Sat Nov  5 12:15:56 2022.
