 Gaussian 16, Revision B.01,
 Gaussian 16:  ES64L-G16RevB.01 20-Dec-2017

 -------------------------------------------------------------------
 #p b3lyp/6-31g(d) 6D 10F nosymm GFInput td=(50-50,nstate=2) SCF=XQC
 -------------------------------------------------------------------

 ------------------------------
 Gaussian input prepared by ASE
 ------------------------------
 Symbolic Z-matrix:
 Charge =  0 Multiplicity = 1

                          Input orientation:
 ---------------------------------------------------------------------
 Center     Atomic      Atomic             Coordinates (Angstroms)
 Number     Number       Type             X           Y           Z
 ---------------------------------------------------------------------
      1          6           0        5.144168    4.204064    1.030226
      2          6           0        3.782379    4.366216    0.343781
      3          6           0        3.752126    3.885393   -1.119250
      4          6           0        3.921224    2.369797   -1.331116
      5          6           0        2.773615    1.459745   -0.895137
      6          6           0        1.521876    1.994359   -0.603867
      7          6           0        0.458602    1.162886   -0.278298
      8          6           0        0.557467   -0.225234   -0.316511
      9          6           0        1.822006   -0.801463   -0.617102
     10          6           0        2.017293   -2.310907   -0.707669
     11          6           0        2.256979   -2.841111   -2.141545
     12          6           0        2.336538   -4.372198   -2.201723
     13          6           0        2.598204   -4.905714   -3.614043
     14          6           0        2.936721    0.050279   -0.839512
     15          6           0        4.353767   -0.505856   -0.959363
     16          6           0        5.200967   -0.361825    0.331909
     17          6           0        4.762199   -1.252734    1.501065
     18          6           0        5.612404   -1.038957    2.758127
     19          6           0       -0.733013   -0.848279    0.292728
     20          6           0       -1.300291   -2.178485   -0.302280
     21          6           0       -1.242440   -2.467008   -1.821529
     22          6           0       -2.426665   -3.308735   -2.330314
     23          6           0       -2.506232   -4.713293   -1.719079
     24          6           0       -0.311811   -1.145178    1.791886
     25          6           0       -1.119201   -2.140010    2.656553
     26          6           0       -0.710226   -2.062167    4.135239
     27          6           0       -1.416808   -3.101735    5.011172
     28          6           0       -1.818202    0.389609    0.186686
     29          6           0       -2.851133    0.336950    1.349301
     30          6           0       -3.653728    1.598088    1.731044
     31          6           0       -4.689362    1.290922    2.824263
     32          6           0       -5.469390    2.530161    3.275314
     33          6           0       -2.538765    0.320858   -1.192973
     34          6           0       -3.767411    1.206357   -1.488399
     35          6           0       -4.185105    1.098900   -2.962948
     36          6           0       -5.452671    1.895639   -3.288139
     37          6           0       -0.858106    1.627181    0.292087
     38          7           0       -1.283799    2.937893   -0.237268
     39          6           0       -1.420101    4.059152    0.599979
     40          8           0       -1.341649    4.059056    1.812800
     41          6           0       -1.649396    5.243864   -0.288649
     42          6           0       -1.565198    4.839764   -1.557474
     43          6           0       -1.279710    3.364643   -1.579006
     44          8           0       -1.072939    2.689079   -2.564998
     45          1           0        5.121375    4.613539    2.046563
     46          1           0        5.441816    3.152273    1.110539
     47          1           0        5.932288    4.730252    0.476709
     48          1           0        3.502886    5.428432    0.363416
     49          1           0        3.017887    3.838728    0.927671
     50          1           0        4.565474    4.385243   -1.663819
     51          1           0        2.826714    4.226981   -1.600368
     52          1           0        4.088058    2.198944   -2.405953
     53          1           0        4.853818    2.060914   -0.850758
     54          1           0        1.375251    3.068739   -0.601344
     55          1           0        1.147504   -2.823012   -0.293897
     56          1           0        2.859779   -2.620973   -0.078450
     57          1           0        3.181901   -2.420461   -2.552974
     58          1           0        1.459255   -2.483627   -2.802652
     59          1           0        1.401136   -4.802856   -1.815723
     60          1           0        3.129943   -4.720931   -1.524862
     61          1           0        2.649652   -6.000486   -3.625536
     62          1           0        3.545840   -4.523417   -4.013053
     63          1           0        1.803044   -4.601995   -4.305897
     64          1           0        4.880123    0.003206   -1.775182
     65          1           0        4.349326   -1.560704   -1.234035
     66          1           0        6.246317   -0.594360    0.081757
     67          1           0        5.192480    0.682433    0.669847
     68          1           0        3.708020   -1.055863    1.735639
     69          1           0        4.822207   -2.307949    1.198463
     70          1           0        6.671093   -1.251505    2.563674
     71          1           0        5.287024   -1.691063    3.576750
     72          1           0        5.543063   -0.002533    3.110848
     73          1           0       -0.811629   -3.015270    0.204998
     74          1           0       -2.345232   -2.241534    0.030933
     75          1           0       -0.326376   -3.019107   -2.045407
     76          1           0       -1.180957   -1.544066   -2.402673
     77          1           0       -3.368914   -2.775702   -2.136825
     78          1           0       -2.348534   -3.399044   -3.422243
     79          1           0       -3.344054   -5.281321   -2.139623
     80          1           0       -1.587903   -5.281251   -1.916486
     81          1           0       -2.645802   -4.677740   -0.632414
     82          1           0        0.713420   -1.532813    1.757796
     83          1           0       -0.228362   -0.191334    2.328640
     84          1           0       -0.945419   -3.164486    2.303605
     85          1           0       -2.199149   -1.976626    2.577295
     86          1           0        0.378467   -2.191560    4.218339
     87          1           0       -0.924426   -1.054122    4.518313
     88          1           0       -2.506230   -2.978609    4.972276
     89          1           0       -1.188068   -4.122011    4.679109
     90          1           0       -1.109715   -3.016420    6.059848
     91          1           0       -3.560538   -0.475470    1.132432
     92          1           0       -2.337770    0.047116    2.267946
     93          1           0       -4.172205    2.034621    0.873455
     94          1           0       -2.971039    2.367018    2.107843
     95          1           0       -5.392545    0.528475    2.458450
     96          1           0       -4.182123    0.844032    3.691649
     97          1           0       -4.795690    3.296419    3.677544
     98          1           0       -6.018025    2.979438    2.438018
     99          1           0       -6.198593    2.282936    4.055594
    100          1           0       -2.901307   -0.700624   -1.322235
    101          1           0       -1.797646    0.493266   -1.978660
    102          1           0       -3.590999    2.260281   -1.249536
    103          1           0       -4.612821    0.890716   -0.863288
    104          1           0       -3.357110    1.447435   -3.593703
    105          1           0       -4.343370    0.041156   -3.219173
    106          1           0       -6.307276    1.546163   -2.695247
    107          1           0       -5.316768    2.962906   -3.071853
    108          1           0       -5.722690    1.804230   -4.346594
    109          1           0       -0.712491    1.845228    1.357126
    110          1           0       -1.829121    6.231857    0.115546
    111          1           0       -1.659436    5.407903   -2.474135
 ---------------------------------------------------------------------

 SCF Done:  E(RB3LYP) =  -1807.93418122     A.U. after   15 cycles

 Excitation energies and oscillator strengths:

 Excited state symmetry could not be determined.
 Excited State   1:      Triplet-?Sym    2.5851 eV  479.61 nm  f=0.0000  <S**2>=2.000
     166 ->169        -0.12368
     167 ->169         0.12601
     168 ->169         0.66277
 This state for optimization and/or second-order correction.
 Total Energy, E(TD-HF/TD-DFT) =  -1807.83917999
 Copying the excited state density for this state as the 1-particle RhoCI density.

 Excited state symmetry could not be determined.
 Excited State   2:      Singlet-?Sym    2.6480 eV  468.21 nm  f=0.0001  <S**2>=0.000
     168 ->169         0.69976

 Excited state symmetry could not be determined.
 Excited State   3:      Triplet-?Sym    2.8732 eV  431.52 nm  f=0.0000  <S**2>=2.000
     165 ->169         0.20222
     167 ->169         0.63891
     168 ->169        -0.18219

 Excited state symmetry could not be determined.
 Excited State   4:      Singlet-?Sym    2.8990 eV  427.68 nm  f=0.0000  <S**2>=0.000
     167 ->169         0.70047

 Alpha  occ. eigenvalues --  -19.15467 -19.15300 -14.38488 -10.31511 -10.31510
 Alpha  occ. eigenvalues --  -10.23137 -10.23048 -10.22869 -10.20561 -10.20026
 Alpha  occ. eigenvalues --  -10.18912 -10.18569 -10.18435 -10.18137 -10.18097
 Alpha  occ. eigenvalues --  -10.17903 -10.17898 -10.17882 -10.17876 -10.17786
 Alpha  occ. eigenvalues --  -10.17783 -10.17733 -10.17732 -10.17703 -10.17671
 Alpha  occ. eigenvalues --  -10.17608 -10.17549 -10.17522 -10.17410 -10.17299
 Alpha  occ. eigenvalues --  -10.17256 -10.17175 -10.17124 -10.17119 -10.17104
 Alpha  occ. eigenvalues --  -10.17063 -10.17011 -10.16970 -10.16946 -10.16902
 Alpha  occ. eigenvalues --  -10.16707 -10.16622 -10.16529 -10.16439  -1.07463
 Alpha  occ. eigenvalues --   -1.05728  -0.96328  -0.87240  -0.84023  -0.82410
 Alpha  occ. eigenvalues --   -0.80223  -0.79677  -0.79321  -0.78969  -0.78625
 Alpha  occ. eigenvalues --   -0.78005  -0.77445  -0.75953  -0.75085  -0.74124
 Alpha  occ. eigenvalues --   -0.72455  -0.71451  -0.71272  -0.70447  -0.70020
 Alpha  occ. eigenvalues --   -0.68297  -0.67796  -0.67265  -0.65080  -0.64517
 Alpha  occ. eigenvalues --   -0.64048  -0.62867  -0.62185  -0.61702  -0.60584
 Alpha  occ. eigenvalues --   -0.59716  -0.58657  -0.57925  -0.57771  -0.57559
 Alpha  occ. eigenvalues --   -0.57109  -0.56640  -0.56571  -0.55736  -0.54289
 Alpha  occ. eigenvalues --   -0.52455  -0.51694  -0.50265  -0.49315  -0.48249
 Alpha  occ. eigenvalues --   -0.48090  -0.47371  -0.46995  -0.46496  -0.45952
 Alpha  occ. eigenvalues --   -0.45783  -0.45478  -0.45256  -0.44926  -0.44462
 Alpha  occ. eigenvalues --   -0.44457  -0.44104  -0.43777  -0.43292  -0.42883
 Alpha  occ. eigenvalues --   -0.42522  -0.42492  -0.42093  -0.42011  -0.41800
 Alpha  occ. eigenvalues --   -0.41566  -0.41220  -0.41190  -0.40835  -0.40604
 Alpha  occ. eigenvalues --   -0.40224  -0.40085  -0.39899  -0.39457  -0.39147
 Alpha  occ. eigenvalues --   -0.38663  -0.38364  -0.38168  -0.37928  -0.37705
 Alpha  occ. eigenvalues --   -0.37585  -0.37182  -0.36822  -0.36508  -0.36160
 Alpha  occ. eigenvalues --   -0.35984  -0.35508  -0.35380  -0.35189  -0.34591
 Alpha  occ. eigenvalues --   -0.34255  -0.34137  -0.33944  -0.33494  -0.33371
 Alpha  occ. eigenvalues --   -0.33298  -0.33243  -0.33044  -0.32911  -0.32639
 Alpha  occ. eigenvalues --   -0.32493  -0.32445  -0.32223  -0.32147  -0.32041
 Alpha  occ. eigenvalues --   -0.31839  -0.31815  -0.31740  -0.31663  -0.31310
 Alpha  occ. eigenvalues --   -0.31233  -0.31039  -0.30496  -0.30401  -0.30085
 Alpha  occ. eigenvalues --   -0.29377  -0.29085  -0.28014  -0.27791  -0.26936
 Alpha  occ. eigenvalues --   -0.26256  -0.22287  -0.21488
 Alpha virt. eigenvalues --   -0.09526   0.00094   0.00716   0.04929   0.06563
 Alpha virt. eigenvalues --    0.06801   0.07570   0.07796   0.08675   0.09160
 Alpha virt. eigenvalues --    0.09513   0.10070   0.10196   0.10340   0.10690

 Mulliken charges:
               1
     1  C   -0.451132
     2  C   -0.249670
     3  C   -0.262059
     4  C   -0.359125
     5  C    0.129966
     6  C   -0.246314
     7  C    0.138627
     8  C    0.040920
     9  C    0.043608
    10  C   -0.371199
    11  C   -0.255427
    12  C   -0.254784
    13  C   -0.442324
    14  C    0.058603
    15  C   -0.360735
    16  C   -0.254044
    17  C   -0.253552
    18  C   -0.444034
    19  C    0.014890
    20  C   -0.323428
    21  C   -0.272453
    22  C   -0.261690
    23  C   -0.446832
    24  C   -0.309221
    25  C   -0.257002
    26  C   -0.253815
    27  C   -0.442602
    28  C    0.068917
    29  C   -0.303279
    30  C   -0.283318
    31  C   -0.247981
    32  C   -0.443576
    33  C   -0.309164
    34  C   -0.255590
    35  C   -0.258762
    36  C   -0.441799
    37  C   -0.074083
    38  N   -0.525639
    39  C    0.604092
    40  O   -0.484004
    41  C   -0.157824
    42  C   -0.160454
    43  C    0.602403
    44  O   -0.474527
    45  H    0.144175
    46  H    0.150739
    47  H    0.139545
    48  H    0.129150
    49  H    0.144063
    50  H    0.128147
    51  H    0.135375
    52  H    0.153134
    53  H    0.151813
    54  H    0.111524
    55  H    0.141973
    56  H    0.148065
    57  H    0.137787
    58  H    0.146366
    59  H    0.134321
    60  H    0.129441
    61  H    0.141805
    62  H    0.142174
    63  H    0.143871
    64  H    0.142378
    65  H    0.142442
    66  H    0.127507
    67  H    0.143494
    68  H    0.146824
    69  H    0.129406
    70  H    0.140303
    71  H    0.141946
    72  H    0.143567
    73  H    0.145311
    74  H    0.142844
    75  H    0.144440
    76  H    0.153110
    77  H    0.134413
    78  H    0.131243
    79  H    0.142160
    80  H    0.140902
    81  H    0.146437
    82  H    0.146603
    83  H    0.142301
    84  H    0.130614
    85  H    0.139818
    86  H    0.131533
    87  H    0.133947
    88  H    0.142119
    89  H    0.140666
    90  H    0.142409
    91  H    0.125815
    92  H    0.144288
    93  H    0.133917
    94  H    0.162857
    95  H    0.125659
    96  H    0.127986
    97  H    0.147784
    98  H    0.138110
    99  H    0.138956
   100  H    0.142334
   101  H    0.174658
   102  H    0.126132
   103  H    0.130723
   104  H    0.151562
   105  H    0.126864
   106  H    0.138183
   107  H    0.135456
   108  H    0.140753
   109  H    0.184983
   110  H    0.175098
   111  H    0.175091
 Sum of Mulliken charges =  -0.00000

 Dipole moment (field-independent basis, Debye):
    X=              0.5893    Y=              0.6259    Z=             -0.5011  Tot=              0.9951
 Quadrupole moment (field-independent basis, Debye-Ang):
   XX=           -271.9025   YY=           -259.0615   ZZ=           -286.4270
   XY=             -2.7184   XZ=              0.0405   YZ=             -7.6832

 Normal termination of Gaussian 16 at Sat Nov  5 12:28:37 2022.
