 Gaussian 16, Revision B.01,
 Gaussian 16:  ES64L-G16RevB.01 20-Dec-2017

 -----------------------------
 #p b3lyp/6-31g(d) opt SCF=XQC
 -----------------------------

 ------------------------------
 Gaussian input prepared by ASE
 ------------------------------
 Symbolic Z-matrix:
 Charge =  0 Multiplicity = 1

 SCF Done:  E(RB3LYP) =  -1807.91631495     A.U. after   14 cycles
 SCF Done:  E(RB3LYP) =  -1807.92984572     A.U. after   13 cycles
 SCF Done:  E(RB3LYP) =  -1807.92628253     A.U. after   13 cycles
 SCF Done:  E(RB3LYP) =  -1807.93014958     A.U. after   12 cycles
 SCF Done:  E(RB3LYP) =  -1807.93147843     A.U. after   12 cycles
 SCF Done:  E(RB3LYP) =  -1807.93189353     A.U. after   13 cycles
 SCF Done:  E(RB3LYP) =  -1807.93323931     A.U. after   10 cycles
 SCF Done:  E(RB3LYP) =  -1807.93320995     A.U. after   12 cycles
 SCF Done:  E(RB3LYP) =  -1807.93344149     A.U. after   11 cycles
 SCF Done:  E(RB3LYP) =  -1807.93400766     A.U. after   12 cycles
 SCF Done:  E(RB3LYP) =  -1807.93419024     A.U. after    9 cycles
 SCF Done:  E(RB3LYP) =  -1807.93419013     A.U. after    9 cycles
 SCF Done:  E(RB3LYP) =  -1807.93419385     A.U. after    9 cycles
 SCF Done:  E(RB3LYP) =  -1807.93419295     A.U. after    7 cycles
 SCF Done:  E(RB3LYP) =  -1807.93419191     A.U. after    9 cycles
 SCF Done:  E(RB3LYP) =  -1807.93419551     A.U. after    8 cycles
 SCF Done:  E(RB3LYP) =  -1807.93419669     A.U. after    8 cycles
 SCF Done:  E(RB3LYP) =  -1807.93419681     A.U. after    6 cycles
 SCF Done:  E(RB3LYP) =  -1807.93419689     A.U. after    6 cycles
 SCF Done:  E(RB3LYP) =  -1807.93419687     A.U. after    5 cycles
 Optimization completed.
    -- Stationary point found.

                         Standard orientation:
 ---------------------------------------------------------------------
 Center     Atomic      Atomic             Coordinates (Angstroms)
 Number     Number       Type             X           Y           Z
 ---------------------------------------------------------------------
      1          6           0       -3.713913   -5.332942    0.919624
      2          6           0       -2.401432   -5.026789    0.187754
      3          6           0       -2.588322   -4.457419   -1.231209
      4          6           0       -3.213809   -3.052970   -1.313690
      5          6           0       -2.371574   -1.871565   -0.833896
      6          6           0       -1.004475   -2.021690   -0.619409
      7          6           0       -0.224470   -0.932700   -0.253915
      8          6           0       -0.736343    0.359573   -0.175627
      9          6           0       -2.128560    0.546041   -0.395662
     10          6           0       -2.771213    1.928167   -0.357129
     11          6           0       -3.228671    2.460776   -1.736124
     12          6           0       -3.766049    3.896334   -1.668485
     13          6           0       -4.244386    4.423923   -3.025172
     14          6           0       -2.946453   -0.585049   -0.658730
     15          6           0       -4.469108   -0.476553   -0.696459
     16          6           0       -5.169924   -0.960761    0.599796
     17          6           0       -4.961430   -0.063648    1.826531
     18          6           0       -5.645894   -0.612649    3.083059
     19          6           0        0.336483    1.299156    0.449612
     20          6           0        0.449391    2.777121   -0.048543
     21          6           0        0.233400    3.141017   -1.537046
     22          6           0        1.084695    4.335175   -2.005061
     23          6           0        0.769736    5.651241   -1.282917
     24          6           0       -0.080322    1.348260    1.978303
     25          6           0        0.433353    2.477122    2.900814
     26          6           0        0.139446    2.175155    4.378064
     27          6           0        0.544221    3.315256    5.318034
     28          6           0        1.736079    0.458178    0.214816
     29          6           0        2.761477    0.738659    1.351163
     30          6           0        3.922677   -0.244289    1.607637
     31          6           0        4.871014    0.283825    2.695647
     32          6           0        6.007548   -0.690021    3.023544
     33          6           0        2.334451    0.838759   -1.172450
     34          6           0        3.755903    0.389489   -1.570681
     35          6           0        4.049450    0.721950   -3.041602
     36          6           0        5.479939    0.370921   -3.463200
     37          6           0        1.197146   -1.016016    0.242768
     38          7           0        1.969431   -2.095833   -0.402962
     39          6           0        2.476191   -3.179465    0.335765
     40          8           0        2.460841   -3.288630    1.546110
     41          6           0        3.005997   -4.173578   -0.652580
     42          6           0        2.742553   -3.725449   -1.881433
     43          6           0        2.027618   -2.408099   -1.774639
     44          8           0        1.579928   -1.758948   -2.696321
     45          1           0       -3.519738   -5.786947    1.898044
     46          1           0       -4.308638   -4.428848    1.093478
     47          1           0       -4.334360   -6.032446    0.345058
     48          1           0       -1.815984   -5.953331    0.113086
     49          1           0       -1.802399   -4.335337    0.793288
     50          1           0       -3.240258   -5.140150   -1.794059
     51          1           0       -1.627823   -4.468294   -1.762121
     52          1           0       -3.476617   -2.865228   -2.366298
     53          1           0       -4.171391   -3.075302   -0.786035
     54          1           0       -0.542822   -2.998774   -0.708741
     55          1           0       -2.075579    2.648841    0.074975
     56          1           0       -3.636000    1.923715    0.316640
     57          1           0       -4.004117    1.810194   -2.156988
     58          1           0       -2.393894    2.408865   -2.444412
     59          1           0       -2.984862    4.561393   -1.272401
     60          1           0       -4.593319    3.940123   -0.945328
     61          1           0       -4.621899    5.449811   -2.945527
     62          1           0       -5.052354    3.802052   -3.429941
     63          1           0       -3.429663    4.424512   -3.759619
     64          1           0       -4.858122   -1.062110   -1.537616
     65          1           0       -4.794306    0.546848   -0.883718
     66          1           0       -6.247869   -1.038254    0.396247
     67          1           0       -4.832479   -1.974647    0.850627
     68          1           0       -3.886518    0.051515    2.017259
     69          1           0       -5.349516    0.942579    1.613116
     70          1           0       -6.727833   -0.717103    2.933703
     71          1           0       -5.491084    0.047895    3.943856
     72          1           0       -5.252088   -1.601725    3.347710
     73          1           0       -0.242013    3.388958    0.537926
     74          1           0        1.442478    3.129601    0.262012
     75          1           0       -0.815794    3.404537   -1.691499
     76          1           0        0.422801    2.286100   -2.190171
     77          1           0        2.151640    4.099842   -1.879987
     78          1           0        0.929694    4.474390   -3.083562
     79          1           0        1.377278    6.474241   -1.676648
     80          1           0       -0.285070    5.927284   -1.409640
     81          1           0        0.966619    5.583029   -0.206735
     82          1           0       -1.174971    1.409046    2.002226
     83          1           0        0.152183    0.378491    2.436971
     84          1           0       -0.056398    3.423268    2.637614
     85          1           0        1.507411    2.654040    2.780961
     86          1           0       -0.932574    1.963010    4.499180
     87          1           0        0.664262    1.254727    4.671597
     88          1           0        1.617224    3.530462    5.241454
     89          1           0        0.004386    4.239315    5.076697
     90          1           0        0.328557    3.067327    6.363656
     91          1           0        3.183434    1.740763    1.183667
     92          1           0        2.230529    0.794110    2.303251
     93          1           0        4.505432   -0.441944    0.704217
     94          1           0        3.520984   -1.208251    1.937359
     95          1           0        5.294713    1.247048    2.375818
     96          1           0        4.296345    0.494033    3.609392
     97          1           0        5.614866   -1.650517    3.378593
     98          1           0        6.623850   -0.892100    2.138530
     99          1           0        6.666530   -0.289496    3.802657
    100          1           0        2.367580    1.928498   -1.226687
    101          1           0        1.641440    0.506129   -1.950509
    102          1           0        3.915212   -0.682521   -1.414645
    103          1           0        4.497512    0.901137   -0.943511
    104          1           0        3.334010    0.184700   -3.677536
    105          1           0        3.870855    1.793327   -3.214160
    106          1           0        6.218597    0.919784   -2.865589
    107          1           0        5.680737   -0.699928   -3.331784
    108          1           0        5.657975    0.614120   -4.517121
    109          1           0        1.175903   -1.342429    1.289697
    110          1           0        3.492994   -5.086862   -0.335481
    111          1           0        2.957610   -4.172350   -2.843702
 ---------------------------------------------------------------------

 The electronic state is 1-A.
 Alpha  occ. eigenvalues --  -19.15467 -19.15300 -14.38488 -10.31511 -10.31510
 Alpha  occ. eigenvalues --  -10.23137 -10.23048 -10.22869 -10.20561 -10.20025
 Alpha  occ. eigenvalues --  -10.18912 -10.18570 -10.18435 -10.18137 -10.18097
 Alpha  occ. eigenvalues --  -10.17903 -10.17898 -10.17882 -10.17876 -10.17786
 Alpha  occ. eigenvalues --  -10.17783 -10.17733 -10.17732 -10.17703 -10.17670
 Alpha  occ. eigenvalues --  -10.17608 -10.17549 -10.17522 -10.17410 -10.17299
 Alpha  occ. eigenvalues --  -10.17256 -10.17175 -10.17124 -10.17119 -10.17104
 Alpha  occ. eigenvalues --  -10.17063 -10.17011 -10.16970 -10.16946 -10.16902
 Alpha  occ. eigenvalues --  -10.16707 -10.16622 -10.16529 -10.16439  -1.07463
 Alpha  occ. eigenvalues --   -1.05728  -0.96328  -0.87240  -0.84023  -0.82410
 Alpha  occ. eigenvalues --   -0.80223  -0.79677  -0.79321  -0.78969  -0.78625
 Alpha  occ. eigenvalues --   -0.78005  -0.77445  -0.75953  -0.75085  -0.74124
 Alpha  occ. eigenvalues --   -0.72455  -0.71451  -0.71272  -0.70447  -0.70020
 Alpha  occ. eigenvalues --   -0.68297  -0.67796  -0.67265  -0.65080  -0.64517
 Alpha  occ. eigenvalues --   -0.64048  -0.62867  -0.62185  -0.61702  -0.60584
 Alpha  occ. eigenvalues --   -0.59716  -0.58657  -0.57925  -0.57771  -0.57558
 Alpha  occ. eigenvalues --   -0.57109  -0.56640  -0.56571  -0.55736  -0.54289
 Alpha  occ. eigenvalues --   -0.52455  -0.51694  -0.50265  -0.49315  -0.48249
 Alpha  occ. eigenvalues --   -0.48090  -0.47371  -0.46995  -0.46496  -0.45952
 Alpha  occ. eigenvalues --   -0.45783  -0.45478  -0.45256  -0.44926  -0.44462
 Alpha  occ. eigenvalues --   -0.44457  -0.44104  -0.43777  -0.43292  -0.42883
 Alpha  occ. eigenvalues --   -0.42522  -0.42492  -0.42093  -0.42011  -0.41800
 Alpha  occ. eigenvalues --   -0.41566  -0.41220  -0.41190  -0.40835  -0.40604
 Alpha  occ. eigenvalues --   -0.40224  -0.40085  -0.39899  -0.39457  -0.39147
 Alpha  occ. eigenvalues --   -0.38663  -0.38364  -0.38168  -0.37928  -0.37705
 Alpha  occ. eigenvalues --   -0.37585  -0.37182  -0.36822  -0.36508  -0.36160
 Alpha  occ. eigenvalues --   -0.35984  -0.35508  -0.35380  -0.35189  -0.34591
 Alpha  occ. eigenvalues --   -0.34255  -0.34137  -0.33944  -0.33494  -0.33371
 Alpha  occ. eigenvalues --   -0.33298  -0.33243  -0.33044  -0.32911  -0.32639
 Alpha  occ. eigenvalues --   -0.32493  -0.32445  -0.32223  -0.32147  -0.32041
 Alpha  occ. eigenvalues --   -0.31839  -0.31815  -0.31740  -0.31663  -0.31310
 Alpha  occ. eigenvalues --   -0.31233  -0.31039  -0.30496  -0.30401  -0.30085
 Alpha  occ. eigenvalues --   -0.29377  -0.29085  -0.28014  -0.27791  -0.26936
 Alpha  occ. eigenvalues --   -0.26256  -0.22287  -0.21488
 Alpha virt. eigenvalues --   -0.09526   0.00094   0.00716   0.04929   0.06563
 Alpha virt. eigenvalues --    0.06801   0.07570   0.07797   0.08675   0.09160
 Alpha virt. eigenvalues --    0.09513   0.10070   0.10196   0.10340   0.10690

 Mulliken charges:
               1
     1  C   -0.451122
     2  C   -0.249674
     3  C   -0.262075
     4  C   -0.359114
     5  C    0.129965
     6  C   -0.246290
     7  C    0.138590
     8  C    0.041003
     9  C    0.043579
    10  C   -0.371209
    11  C   -0.255416
    12  C   -0.254787
    13  C   -0.442322
    14  C    0.058560
    15  C   -0.360723
    16  C   -0.254043
    17  C   -0.253550
    18  C   -0.444032
    19  C    0.014886
    20  C   -0.323418
    21  C   -0.272466
    22  C   -0.261695
    23  C   -0.446829
    24  C   -0.309224
    25  C   -0.257010
    26  C   -0.253812
    27  C   -0.442600
    28  C    0.068836
    29  C   -0.303236
    30  C   -0.283362
    31  C   -0.247995
    32  C   -0.443566
    33  C   -0.309139
    34  C   -0.255606
    35  C   -0.258776
    36  C   -0.441775
    37  C   -0.074061
    38  N   -0.525634
    39  C    0.604089
    40  O   -0.484005
    41  C   -0.157831
    42  C   -0.160448
    43  C    0.602409
    44  O   -0.474527
    45  H    0.144173
    46  H    0.150737
    47  H    0.139543
    48  H    0.129152
    49  H    0.144064
    50  H    0.128149
    51  H    0.135380
    52  H    0.153135
    53  H    0.151813
    54  H    0.111525
    55  H    0.141975
    56  H    0.148068
    57  H    0.137789
    58  H    0.146364
    59  H    0.134324
    60  H    0.129439
    61  H    0.141805
    62  H    0.142174
    63  H    0.143870
    64  H    0.142380
    65  H    0.142444
    66  H    0.127507
    67  H    0.143497
    68  H    0.146817
    69  H    0.129408
    70  H    0.140303
    71  H    0.141946
    72  H    0.143567
    73  H    0.145312
    74  H    0.142847
    75  H    0.144445
    76  H    0.153109
    77  H    0.134416
    78  H    0.131244
    79  H    0.142160
    80  H    0.140904
    81  H    0.146435
    82  H    0.146603
    83  H    0.142302
    84  H    0.130617
    85  H    0.139814
    86  H    0.131534
    87  H    0.133945
    88  H    0.142118
    89  H    0.140666
    90  H    0.142409
    91  H    0.125814
    92  H    0.144289
    93  H    0.133921
    94  H    0.162867
    95  H    0.125663
    96  H    0.127998
    97  H    0.147785
    98  H    0.138107
    99  H    0.138953
   100  H    0.142332
   101  H    0.174662
   102  H    0.126136
   103  H    0.130726
   104  H    0.151569
   105  H    0.126866
   106  H    0.138181
   107  H    0.135442
   108  H    0.140750
   109  H    0.184983
   110  H    0.175096
   111  H    0.175090
 Sum of Mulliken charges =  -0.00000

 Dipole moment (field-independent basis, Debye):
    X=             -0.3986    Y=             -0.7378    Z=             -0.5356  Tot=              0.9950
 Quadrupole moment (field-independent basis, Debye-Ang):
   XX=           -269.3653   YY=           -263.3942   ZZ=           -285.0790
   XY=             -5.3252   XZ=             -3.5354   YZ=              9.0043

 Normal termination of Gaussian 16 at Fri Nov  4 23:05:11 2022.
