 Gaussian 16, Revision B.01,
 Gaussian 16:  ES64L-G16RevB.01 20-Dec-2017

 -------------------------------------------------------------------
 #p b3lyp/6-31g(d) 6D 10F nosymm GFInput td=(50-50,nstate=2) SCF=XQC
 -------------------------------------------------------------------

 ------------------------------
 Gaussian input prepared by ASE
 ------------------------------
 Symbolic Z-matrix:
 Charge =  0 Multiplicity = 1

                          Input orientation:
 ---------------------------------------------------------------------
 Center     Atomic      Atomic             Coordinates (Angstroms)
 Number     Number       Type             X           Y           Z
 ---------------------------------------------------------------------
      1          6           0        0.592769   -3.834570   -0.027495
      2          6           0        0.336680   -2.380167    0.324864
      3          6           0       -0.986405   -1.902708    0.372207
      4          6           0       -2.093775   -2.912414    0.119531
      5          6           0       -1.242700   -0.549290    0.702599
      6          6           0       -2.679150   -0.030601    0.736231
      7          6           0       -3.269261    0.596979   -0.574968
      8          6           0       -4.727067    0.999030   -0.273718
      9          6           0       -3.261409   -0.408294   -1.741726
     10          6           0       -2.488892    1.851898   -1.007518
     11          6           0       -0.150192    0.301039    1.012140
     12          6           0       -0.383529    1.701599    1.561591
     13          6           0        1.186510   -0.166146    0.904562
     14          6           0        2.352529    0.793846    1.132143
     15          6           0        3.001898    1.489537   -0.118803
     16          6           0        3.566896    0.471591   -1.126633
     17          6           0        1.994513    2.390394   -0.856938
     18          6           0        4.160182    2.365462    0.400411
     19          6           0        1.420916   -1.528072    0.611320
     20          6           0        2.807540   -2.147581    0.665179
     21          1           0       -0.127346   -4.206623   -0.760820
     22          1           0        0.517188   -4.490686    0.852599
     23          1           0        1.586555   -3.985415   -0.453127
     24          1           0       -2.141969   -3.211912   -0.935578
     25          1           0       -1.924179   -3.826506    0.699471
     26          1           0       -3.083106   -2.545543    0.386469
     27          1           0       -3.353938   -0.838177    1.033521
     28          1           0       -2.792107    0.716881    1.526364
     29          1           0       -5.199760    1.449294   -1.155259
     30          1           0       -5.328540    0.129215    0.018921
     31          1           0       -4.778410    1.731101    0.542033
     32          1           0       -3.673512    0.056991   -2.645757
     33          1           0       -3.870831   -1.291222   -1.519158
     34          1           0       -2.245369   -0.745445   -1.973256
     35          1           0       -1.439546    1.618923   -1.216901
     36          1           0       -2.517346    2.631532   -0.238049
     37          1           0       -2.925482    2.273765   -1.921306
     38          1           0        0.177805    1.848590    2.491408
     39          1           0       -0.070689    2.489542    0.871557
     40          1           0       -1.428116    1.890306    1.799291
     41          1           0        2.043439    1.596832    1.806582
     42          1           0        3.159549    0.278577    1.663599
     43          1           0        4.013559    0.996003   -1.980496
     44          1           0        2.783196   -0.187975   -1.513851
     45          1           0        4.348395   -0.151725   -0.678987
     46          1           0        2.462534    2.838693   -1.742104
     47          1           0        1.120368    1.822793   -1.194305
     48          1           0        1.647371    3.212145   -0.220264
     49          1           0        4.651508    2.894838   -0.425247
     50          1           0        3.802203    3.118886    1.113183
     51          1           0        4.921638    1.759855    0.907682
     52          1           0        3.185708   -2.416332   -0.329164
     53          1           0        2.792410   -3.068503    1.258749
     54          1           0        3.548765   -1.490230    1.117221
 ---------------------------------------------------------------------

 SCF Done:  E(RB3LYP) =  -782.629490841     A.U. after   13 cycles

 Excitation energies and oscillator strengths:

 Excited state symmetry could not be determined.
 Excited State   1:      Triplet-?Sym    3.4391 eV  360.51 nm  f=0.0000  <S**2>=2.000
      76 -> 78        -0.15499
      76 -> 79         0.42797
      77 -> 78         0.51166
      77 -> 79         0.16265
 This state for optimization and/or second-order correction.
 Total Energy, E(TD-HF/TD-DFT) =  -782.503105821
 Copying the excited state density for this state as the 1-particle RhoCI density.

 Excited state symmetry could not be determined.
 Excited State   2:      Triplet-?Sym    4.3106 eV  287.63 nm  f=0.0000  <S**2>=2.000
      76 -> 78         0.47408
      76 -> 79        -0.22651
      77 -> 78         0.20091
      77 -> 79         0.42382

 Excited state symmetry could not be determined.
 Excited State   3:      Singlet-?Sym    4.9327 eV  251.35 nm  f=0.0004  <S**2>=0.000
      76 -> 78         0.48146
      76 -> 79         0.15431
      77 -> 78         0.17074
      77 -> 79        -0.46243

 Excited state symmetry could not be determined.
 Excited State   4:      Singlet-?Sym    5.5337 eV  224.05 nm  f=0.0051  <S**2>=0.000
      76 -> 78        -0.17694
      76 -> 79         0.42131
      77 -> 78         0.51609
      77 -> 79         0.14695

 Alpha  occ. eigenvalues --  -10.19389 -10.19284 -10.18370 -10.18209 -10.18201
 Alpha  occ. eigenvalues --  -10.18115 -10.17999 -10.17858 -10.17432 -10.17418
 Alpha  occ. eigenvalues --  -10.17338 -10.17306 -10.17288 -10.16936 -10.16802
 Alpha  occ. eigenvalues --  -10.16762 -10.16533 -10.16433 -10.16396 -10.16389
 Alpha  occ. eigenvalues --   -0.85382  -0.81803  -0.81033  -0.77910  -0.77065
 Alpha  occ. eigenvalues --   -0.71380  -0.70950  -0.69039  -0.68301  -0.67729
 Alpha  occ. eigenvalues --   -0.67484  -0.67469  -0.67378  -0.63028  -0.62883
 Alpha  occ. eigenvalues --   -0.55333  -0.54583  -0.52113  -0.51236  -0.49645
 Alpha  occ. eigenvalues --   -0.45869  -0.45378  -0.44515  -0.44422  -0.43594
 Alpha  occ. eigenvalues --   -0.42957  -0.42623  -0.42483  -0.41136  -0.40819
 Alpha  occ. eigenvalues --   -0.40623  -0.40210  -0.39748  -0.38928  -0.38651
 Alpha  occ. eigenvalues --   -0.38031  -0.37759  -0.37696  -0.36973  -0.36521
 Alpha  occ. eigenvalues --   -0.36226  -0.36034  -0.35800  -0.35389  -0.35236
 Alpha  occ. eigenvalues --   -0.34436  -0.33384  -0.32696  -0.32307  -0.31895
 Alpha  occ. eigenvalues --   -0.31327  -0.30777  -0.30198  -0.29753  -0.29379
 Alpha  occ. eigenvalues --   -0.21393  -0.21194
 Alpha virt. eigenvalues --    0.00838   0.01188   0.07154   0.08725   0.09992
 Alpha virt. eigenvalues --    0.11297   0.11434   0.11748   0.12099   0.12889
 Alpha virt. eigenvalues --    0.13262   0.13533   0.14381   0.14707   0.15110

 Mulliken charges:
               1
     1  C   -0.538465
     2  C    0.070286
     3  C    0.075150
     4  C   -0.540820
     5  C    0.068765
     6  C   -0.372478
     7  C    0.110469
     8  C   -0.438440
     9  C   -0.446928
    10  C   -0.453308
    11  C    0.063849
    12  C   -0.548942
    13  C    0.060780
    14  C   -0.357938
    15  C    0.109716
    16  C   -0.446521
    17  C   -0.456644
    18  C   -0.438792
    19  C    0.075589
    20  C   -0.541600
    21  H    0.155749
    22  H    0.156883
    23  H    0.155344
    24  H    0.159775
    25  H    0.155591
    26  H    0.155026
    27  H    0.136695
    28  H    0.138028
    29  H    0.138083
    30  H    0.135317
    31  H    0.135717
    32  H    0.134290
    33  H    0.134587
    34  H    0.151092
    35  H    0.157380
    36  H    0.134907
    37  H    0.134391
    38  H    0.158012
    39  H    0.164734
    40  H    0.152674
    41  H    0.132772
    42  H    0.135816
    43  H    0.134131
    44  H    0.151297
    45  H    0.135019
    46  H    0.134848
    47  H    0.158674
    48  H    0.137965
    49  H    0.138085
    50  H    0.136812
    51  H    0.135624
    52  H    0.159781
    53  H    0.156292
    54  H    0.154879
 Sum of Mulliken charges =  -0.00000

 Dipole moment (field-independent basis, Debye):
    X=              0.0933    Y=             -0.2417    Z=              0.0246  Tot=              0.2602
 Quadrupole moment (field-independent basis, Debye-Ang):
   XX=           -125.6573   YY=           -124.7127   ZZ=           -129.4336
   XY=             -0.1249   XZ=              0.1893   YZ=              1.0014

 Normal termination of Gaussian 16 at Sat Nov  5 12:20:45 2022.
