 Gaussian 16, Revision B.01,
 Gaussian 16:  ES64L-G16RevB.01 20-Dec-2017

 -----------------------------
 #p b3lyp/6-31g(d) opt SCF=XQC
 -----------------------------

 ------------------------------
 Gaussian input prepared by ASE
 ------------------------------
 Symbolic Z-matrix:
 Charge =  0 Multiplicity = 1

 SCF Done:  E(RB3LYP) =  -782.623199325     A.U. after   14 cycles
 SCF Done:  E(RB3LYP) =  -782.628501239     A.U. after   11 cycles
 SCF Done:  E(RB3LYP) =  -782.628868756     A.U. after   11 cycles
 SCF Done:  E(RB3LYP) =  -782.628489491     A.U. after   11 cycles
 SCF Done:  E(RB3LYP) =  -782.628380537     A.U. after   11 cycles
 SCF Done:  E(RB3LYP) =  -782.628135689     A.U. after   11 cycles
 SCF Done:  E(RB3LYP) =  -782.629129088     A.U. after    9 cycles
 SCF Done:  E(RB3LYP) =  -782.629296827     A.U. after   10 cycles
 SCF Done:  E(RB3LYP) =  -782.629438485     A.U. after   10 cycles
 SCF Done:  E(RB3LYP) =  -782.629475086     A.U. after   10 cycles
 SCF Done:  E(RB3LYP) =  -782.629480375     A.U. after    9 cycles
 SCF Done:  E(RB3LYP) =  -782.629481494     A.U. after    7 cycles
 SCF Done:  E(RB3LYP) =  -782.629481979     A.U. after    7 cycles
 SCF Done:  E(RB3LYP) =  -782.629482191     A.U. after    7 cycles
 SCF Done:  E(RB3LYP) =  -782.629482294     A.U. after    6 cycles
 SCF Done:  E(RB3LYP) =  -782.629482348     A.U. after    6 cycles
 SCF Done:  E(RB3LYP) =  -782.629482374     A.U. after    6 cycles
 SCF Done:  E(RB3LYP) =  -782.629482382     A.U. after    6 cycles
 Optimization completed.
    -- Stationary point found.

                         Standard orientation:
 ---------------------------------------------------------------------
 Center     Atomic      Atomic             Coordinates (Angstroms)
 Number     Number       Type             X           Y           Z
 ---------------------------------------------------------------------
      1          6           0        0.061364    3.760762    0.451869
      2          6           0        0.034068    2.321392   -0.030306
      3          6           0       -1.203863    1.682188   -0.229581
      4          6           0       -2.454813    2.514007    0.000253
      5          6           0       -1.246837    0.340641   -0.682338
      6          6           0       -2.592161   -0.355182   -0.881065
      7          6           0       -3.190288   -1.165043    0.322139
      8          6           0       -4.552016   -1.725284   -0.135485
      9          6           0       -3.409570   -0.271944    1.557554
     10          6           0       -2.281592   -2.340760    0.725700
     11          6           0       -0.027939   -0.330759   -0.957942
     12          6           0       -0.024938   -1.696950   -1.629823
     13          6           0        1.220204    0.294852   -0.698414
     14          6           0        2.520361   -0.482418   -0.894420
     15          6           0        3.160337   -1.193517    0.352697
     16          6           0        3.501825   -0.201864    1.480157
     17          6           0        2.231513   -2.277899    0.929422
     18          6           0        4.463837   -1.863534   -0.127320
     19          6           0        1.243259    1.645177   -0.283838
     20          6           0        2.532349    2.441688   -0.168788
     21          1           0       -0.757097    3.971411    1.145054
     22          1           0       -0.035066    4.475153   -0.379463
     23          1           0        0.989513    4.001905    0.973326
     24          1           0       -2.624528    2.712346    1.066619
     25          1           0       -2.367414    3.489073   -0.491949
     26          1           0       -3.361298    2.046335   -0.379478
     27          1           0       -3.345940    0.380667   -1.174736
     28          1           0       -2.540868   -1.039850   -1.732180
     29          1           0       -5.025293   -2.307606    0.664639
     30          1           0       -5.242239   -0.918847   -0.413402
     31          1           0       -4.440001   -2.384520   -1.005470
     32          1           0       -3.822687   -0.863187    2.384208
     33          1           0       -4.114829    0.540355    1.349528
     34          1           0       -2.469923    0.172898    1.902221
     35          1           0       -1.293129   -1.992582    1.043437
     36          1           0       -2.144043   -3.048008   -0.099891
     37          1           0       -2.725571   -2.893136    1.563168
     38          1           0        0.621116   -1.688900   -2.515155
     39          1           0        0.338446   -2.494334   -0.976368
     40          1           0       -1.012564   -1.998335   -1.971931
     41          1           0        2.376612   -1.257365   -1.652038
     42          1           0        3.288008    0.177221   -1.312540
     43          1           0        3.948797   -0.735742    2.327971
     44          1           0        2.607975    0.314460    1.845659
     45          1           0        4.223067    0.553942    1.151192
     46          1           0        2.686781   -2.736532    1.815944
     47          1           0        1.264724   -1.859841    1.230526
     48          1           0        2.049834   -3.079586    0.204557
     49          1           0        4.957769   -2.394082    0.696027
     50          1           0        4.267989   -2.592554   -0.923570
     51          1           0        5.172290   -1.122666   -0.518607
     52          1           0        2.792604    2.670234    0.872360
     53          1           0        2.437421    3.400711   -0.690243
     54          1           0        3.388938    1.927647   -0.602243
 ---------------------------------------------------------------------

 The electronic state is 1-A.
 Alpha  occ. eigenvalues --  -10.19389 -10.19284 -10.18370 -10.18209 -10.18201
 Alpha  occ. eigenvalues --  -10.18115 -10.17999 -10.17858 -10.17431 -10.17418
 Alpha  occ. eigenvalues --  -10.17338 -10.17306 -10.17288 -10.16936 -10.16802
 Alpha  occ. eigenvalues --  -10.16762 -10.16533 -10.16433 -10.16396 -10.16389
 Alpha  occ. eigenvalues --   -0.85382  -0.81803  -0.81033  -0.77910  -0.77065
 Alpha  occ. eigenvalues --   -0.71380  -0.70950  -0.69039  -0.68301  -0.67729
 Alpha  occ. eigenvalues --   -0.67484  -0.67469  -0.67378  -0.63028  -0.62883
 Alpha  occ. eigenvalues --   -0.55333  -0.54583  -0.52113  -0.51236  -0.49645
 Alpha  occ. eigenvalues --   -0.45869  -0.45378  -0.44515  -0.44422  -0.43594
 Alpha  occ. eigenvalues --   -0.42957  -0.42622  -0.42483  -0.41136  -0.40819
 Alpha  occ. eigenvalues --   -0.40623  -0.40210  -0.39748  -0.38928  -0.38651
 Alpha  occ. eigenvalues --   -0.38031  -0.37759  -0.37696  -0.36973  -0.36521
 Alpha  occ. eigenvalues --   -0.36226  -0.36034  -0.35800  -0.35389  -0.35236
 Alpha  occ. eigenvalues --   -0.34436  -0.33384  -0.32696  -0.32307  -0.31895
 Alpha  occ. eigenvalues --   -0.31327  -0.30777  -0.30198  -0.29753  -0.29379
 Alpha  occ. eigenvalues --   -0.21393  -0.21194
 Alpha virt. eigenvalues --    0.00838   0.01188   0.07154   0.08725   0.09992
 Alpha virt. eigenvalues --    0.11297   0.11434   0.11748   0.12099   0.12889
 Alpha virt. eigenvalues --    0.13262   0.13532   0.14381   0.14707   0.15110

 Mulliken charges:
               1
     1  C   -0.538466
     2  C    0.070280
     3  C    0.075145
     4  C   -0.540826
     5  C    0.068806
     6  C   -0.372409
     7  C    0.110398
     8  C   -0.438430
     9  C   -0.446895
    10  C   -0.453329
    11  C    0.063796
    12  C   -0.548935
    13  C    0.060809
    14  C   -0.357960
    15  C    0.109734
    16  C   -0.446535
    17  C   -0.456627
    18  C   -0.438800
    19  C    0.075596
    20  C   -0.541610
    21  H    0.155749
    22  H    0.156882
    23  H    0.155346
    24  H    0.159777
    25  H    0.155592
    26  H    0.155028
    27  H    0.136689
    28  H    0.138017
    29  H    0.138081
    30  H    0.135318
    31  H    0.135717
    32  H    0.134287
    33  H    0.134584
    34  H    0.151086
    35  H    0.157389
    36  H    0.134915
    37  H    0.134398
    38  H    0.158011
    39  H    0.164732
    40  H    0.152672
    41  H    0.132773
    42  H    0.135814
    43  H    0.134131
    44  H    0.151297
    45  H    0.135023
    46  H    0.134845
    47  H    0.158668
    48  H    0.137961
    49  H    0.138086
    50  H    0.136815
    51  H    0.135623
    52  H    0.159781
    53  H    0.156292
    54  H    0.154879
 Sum of Mulliken charges =  -0.00000

 Dipole moment (field-independent basis, Debye):
    X=              0.0611    Y=              0.2529    Z=              0.0021  Tot=              0.2601
 Quadrupole moment (field-independent basis, Debye-Ang):
   XX=           -125.6457   YY=           -124.9500   ZZ=           -129.2586
   XY=             -0.0849   XZ=             -0.0341   YZ=              1.3806

 Normal termination of Gaussian 16 at Fri Nov  4 20:38:02 2022.
