 Gaussian 16, Revision B.01,
 Gaussian 16:  ES64L-G16RevB.01 20-Dec-2017

 -----------------------------
 #p b3lyp/6-31g(d) opt SCF=XQC
 -----------------------------

 ------------------------------
 Gaussian input prepared by ASE
 ------------------------------
 Symbolic Z-matrix:
 Charge =  0 Multiplicity = 1

 SCF Done:  E(RB3LYP) =  -1255.29458158     A.U. after   15 cycles
 SCF Done:  E(RB3LYP) =  -1255.30010414     A.U. after   15 cycles
 SCF Done:  E(RB3LYP) =  -1255.30113327     A.U. after   14 cycles
 SCF Done:  E(RB3LYP) =  -1255.30150637     A.U. after   12 cycles
 SCF Done:  E(RB3LYP) =  -1255.30188281     A.U. after   11 cycles
 SCF Done:  E(RB3LYP) =  -1255.30210038     A.U. after   12 cycles
 SCF Done:  E(RB3LYP) =  -1255.30221201     A.U. after   12 cycles
 SCF Done:  E(RB3LYP) =  -1255.30225877     A.U. after   11 cycles
 SCF Done:  E(RB3LYP) =  -1255.30230636     A.U. after   11 cycles
 SCF Done:  E(RB3LYP) =  -1255.30232338     A.U. after   11 cycles
 SCF Done:  E(RB3LYP) =  -1255.30233457     A.U. after   11 cycles
 SCF Done:  E(RB3LYP) =  -1255.30234606     A.U. after   11 cycles
 SCF Done:  E(RB3LYP) =  -1255.30234653     A.U. after    9 cycles
 SCF Done:  E(RB3LYP) =  -1255.30234673     A.U. after    9 cycles
 SCF Done:  E(RB3LYP) =  -1255.30234678     A.U. after    7 cycles
 Optimization completed.
    -- Stationary point found.

                         Standard orientation:
 ---------------------------------------------------------------------
 Center     Atomic      Atomic             Coordinates (Angstroms)
 Number     Number       Type             X           Y           Z
 ---------------------------------------------------------------------
      1          7           0        0.907750    3.516251    0.562288
      2          6           0        2.111576    2.859900    0.553413
      3          7           0        3.168312    3.531034    0.974644
      4          6           0        4.378996    2.892450    0.962751
      5          6           0        4.564475    1.595592    0.604224
      6          7           0        3.446185    0.882178    0.186499
      7          6           0        3.285271   -0.423258   -0.190007
      8          6           0        4.422733   -1.402149   -0.231542
      9          6           0        4.964245   -1.879345    1.144336
     10          6           0        5.558723   -3.283630    0.841416
     11          6           0        5.162717   -3.564104   -0.629085
     12          7           0        4.029438   -2.667041   -0.836923
     13          7           0        2.030857   -0.661800   -0.545218
     14          6           0        1.331341    0.505024   -0.404897
     15          6           0       -0.100738    0.548221   -0.744408
     16          6           0       -0.905785   -0.568846   -0.475553
     17          6           0       -2.261655   -0.588860   -0.798608
     18          6           0       -2.847204    0.524980   -1.413814
     19          8           0       -4.157756    0.621870   -1.790652
     20          6           0       -5.026849   -0.483024   -1.596388
     21          6           0       -5.465068   -0.697328   -0.155188
     22          6           0       -5.598626   -1.990312    0.363454
     23          6           0       -6.060429   -2.148762    1.669410
     24          6           0       -6.362261   -1.010436    2.413745
     25          6           0       -6.191442    0.236045    1.807629
     26          7           0       -5.761847    0.401216    0.552892
     27          6           0       -2.054161    1.642488   -1.707306
     28          6           0       -0.702073    1.648345   -1.386397
     29          6           0        2.189910    1.504233    0.077083
     30          1           0        0.058052    2.969992    0.588950
     31          1           0        0.909483    4.373160    1.100341
     32          1           0        5.229509    3.484277    1.289056
     33          1           0        5.511734    1.076077    0.625830
     34          1           0        5.266879   -0.921113   -0.774143
     35          1           0        4.132811   -1.952690    1.850859
     36          1           0        5.700999   -1.186814    1.562562
     37          1           0        5.129155   -4.033423    1.511650
     38          1           0        6.644860   -3.311702    0.972006
     39          1           0        4.867006   -4.604102   -0.803445
     40          1           0        6.019343   -3.343326   -1.294594
     41          1           0        3.744372   -2.568777   -1.807506
     42          1           0       -0.452796   -1.435398   -0.004651
     43          1           0       -2.850152   -1.464352   -0.550875
     44          1           0       -4.585573   -1.403651   -2.002364
     45          1           0       -5.905545   -0.238749   -2.202731
     46          1           0       -5.341918   -2.854472   -0.243991
     47          1           0       -6.173382   -3.141002    2.098019
     48          1           0       -6.719430   -1.080759    3.436745
     49          1           0       -6.416417    1.149282    2.356768
     50          1           0       -2.515307    2.487677   -2.208691
     51          1           0       -0.098656    2.508706   -1.659462
 ---------------------------------------------------------------------

 The electronic state is 1-A.
 Alpha  occ. eigenvalues --  -19.17324 -14.40573 -14.34751 -14.33245 -14.31358
 Alpha  occ. eigenvalues --  -14.31188 -14.31003 -10.26988 -10.24739 -10.24185
 Alpha  occ. eigenvalues --  -10.23764 -10.23483 -10.22811 -10.22465 -10.22112
 Alpha  occ. eigenvalues --  -10.22071 -10.21581 -10.21528 -10.20825 -10.20648
 Alpha  occ. eigenvalues --  -10.20511 -10.20466 -10.18749 -10.18593 -10.18390
 Alpha  occ. eigenvalues --  -10.18346 -10.18201 -10.18140 -10.17873  -1.06028
 Alpha  occ. eigenvalues --   -1.02867  -0.95726  -0.94614  -0.91949  -0.90385
 Alpha  occ. eigenvalues --   -0.86823  -0.84491  -0.80890  -0.79009  -0.77866
 Alpha  occ. eigenvalues --   -0.75797  -0.75597  -0.74053  -0.73949  -0.71074
 Alpha  occ. eigenvalues --   -0.69256  -0.65313  -0.63866  -0.63356  -0.62373
 Alpha  occ. eigenvalues --   -0.61074  -0.60105  -0.58121  -0.57700  -0.56713
 Alpha  occ. eigenvalues --   -0.55052  -0.53412  -0.52295  -0.52027  -0.50754
 Alpha  occ. eigenvalues --   -0.50402  -0.48754  -0.48586  -0.47704  -0.46931
 Alpha  occ. eigenvalues --   -0.46423  -0.46128  -0.45810  -0.44498  -0.44103
 Alpha  occ. eigenvalues --   -0.44079  -0.42738  -0.42075  -0.41365  -0.41007
 Alpha  occ. eigenvalues --   -0.40450  -0.40126  -0.39375  -0.38722  -0.38461
 Alpha  occ. eigenvalues --   -0.37483  -0.37321  -0.36708  -0.36279  -0.35011
 Alpha  occ. eigenvalues --   -0.34761  -0.34156  -0.33547  -0.32438  -0.31953
 Alpha  occ. eigenvalues --   -0.31317  -0.29081  -0.27850  -0.27168  -0.26375
 Alpha  occ. eigenvalues --   -0.25697  -0.25426  -0.24511  -0.23783  -0.21844
 Alpha  occ. eigenvalues --   -0.21813  -0.17906
 Alpha virt. eigenvalues --   -0.03101  -0.02415  -0.01840   0.00184   0.00509
 Alpha virt. eigenvalues --    0.02267   0.07351   0.08305   0.08578   0.09786
 Alpha virt. eigenvalues --    0.10399   0.10597   0.11369   0.11664   0.12419

 Mulliken charges:
               1
     1  N   -0.777152
     2  C    0.443159
     3  N   -0.519299
     4  C   -0.004882
     5  C    0.022870
     6  N   -0.548759
     7  C    0.479516
     8  C   -0.032542
     9  C   -0.265711
    10  C   -0.281100
    11  C   -0.116633
    12  N   -0.552544
    13  N   -0.521252
    14  C    0.088364
    15  C    0.085381
    16  C   -0.170566
    17  C   -0.190682
    18  C    0.387225
    19  O   -0.508530
    20  C   -0.091479
    21  C    0.267341
    22  C   -0.167915
    23  C   -0.100236
    24  C   -0.139520
    25  C    0.038974
    26  N   -0.442835
    27  C   -0.188054
    28  C   -0.210742
    29  C    0.304814
    30  H    0.346871
    31  H    0.340092
    32  H    0.142243
    33  H    0.159372
    34  H    0.113226
    35  H    0.158667
    36  H    0.134690
    37  H    0.151758
    38  H    0.137379
    39  H    0.142514
    40  H    0.111293
    41  H    0.306605
    42  H    0.152491
    43  H    0.131102
    44  H    0.144550
    45  H    0.174295
    46  H    0.138300
    47  H    0.147047
    48  H    0.141529
    49  H    0.144751
    50  H    0.140267
    51  H    0.153744
 Sum of Mulliken charges =  -0.00000

 Dipole moment (field-independent basis, Debye):
    X=             -0.5163    Y=             -2.7811    Z=              1.7437  Tot=              3.3229
 Quadrupole moment (field-independent basis, Debye-Ang):
   XX=           -136.8436   YY=           -162.8449   ZZ=           -161.0615
   XY=              6.1879   XZ=             -8.3394   YZ=              1.4418

 Normal termination of Gaussian 16 at Fri Nov  4 20:38:55 2022.
