 Gaussian 16, Revision B.01,
 Gaussian 16:  ES64L-G16RevB.01 20-Dec-2017

 -------------------------------------------------------------------
 #p b3lyp/6-31g(d) 6D 10F nosymm GFInput td=(50-50,nstate=2) SCF=XQC
 -------------------------------------------------------------------

 ------------------------------
 Gaussian input prepared by ASE
 ------------------------------
 Symbolic Z-matrix:
 Charge =  0 Multiplicity = 1

                          Input orientation:
 ---------------------------------------------------------------------
 Center     Atomic      Atomic             Coordinates (Angstroms)
 Number     Number       Type             X           Y           Z
 ---------------------------------------------------------------------
      1          7           0       -0.151423   -1.836141   -3.540100
      2          6           0       -1.410313   -1.888721   -2.999263
      3          7           0       -2.292690   -2.668006   -3.598154
      4          6           0       -3.556643   -2.723729   -3.075655
      5          6           0       -3.955054   -2.080166   -1.947878
      6          7           0       -3.016980   -1.281157   -1.303186
      7          6           0       -3.080491   -0.551197   -0.147790
      8          6           0       -4.318956   -0.475322    0.697325
      9          6           0       -4.676793   -1.755455    1.501814
     10          6           0       -5.479125   -1.215522    2.719155
     11          6           0       -5.371216    0.324854    2.603141
     12          7           0       -4.188404    0.505371    1.766115
     13          7           0       -1.941278    0.090381    0.069468
     14          6           0       -1.092080   -0.213127   -0.958752
     15          6           0        0.257714    0.374050   -0.994247
     16          6           0        0.955083    0.569395    0.207310
     17          6           0        2.225403    1.142848    0.231561
     18          6           0        2.830474    1.545298   -0.965898
     19          8           0        4.061624    2.130096   -1.071839
     20          6           0        4.810676    2.405164    0.101666
     21          6           0        5.454238    1.184161    0.741975
     22          6           0        5.514983    1.059439    2.134595
     23          6           0        6.165796   -0.043828    2.685169
     24          6           0        6.723300   -0.987867    1.825575
     25          6           0        6.605854   -0.775473    0.450305
     26          7           0        5.995926    0.283861   -0.090063
     27          6           0        2.140790    1.375452   -2.173940
     28          6           0        0.872098    0.808479   -2.184974
     29          6           0       -1.730681   -1.097592   -1.840670
     30          1           0        0.618303   -1.553145   -2.949734
     31          1           0        0.040515   -2.570128   -4.209591
     32          1           0       -4.262693   -3.352481   -3.610697
     33          1           0       -4.941235   -2.147762   -1.511370
     34          1           0       -5.177324   -0.252438    0.025073
     35          1           0       -3.754117   -2.242830    1.828880
     36          1           0       -5.243983   -2.475492    0.904184
     37          1           0       -5.037643   -1.568822    3.655212
     38          1           0       -6.523484   -1.542135    2.705990
     39          1           0       -5.236923    0.820152    3.570657
     40          1           0       -6.293838    0.729852    2.144669
     41          1           0       -4.059687    1.452231    1.419940
     42          1           0        0.485561    0.264087    1.136932
     43          1           0        2.736604    1.252727    1.180658
     44          1           0        4.199603    2.945168    0.837927
     45          1           0        5.598772    3.084465   -0.240216
     46          1           0        5.057695    1.810822    2.773322
     47          1           0        6.227757   -0.166437    3.763191
     48          1           0        7.235140   -1.867112    2.205038
     49          1           0        7.028297   -1.490786   -0.253995
     50          1           0        2.610616    1.716764   -3.091087
     51          1           0        0.340234    0.723627   -3.127746
 ---------------------------------------------------------------------

 SCF Done:  E(RB3LYP) =  -1255.30234550     A.U. after   15 cycles

 Excitation energies and oscillator strengths:

 Excited state symmetry could not be determined.
 Excited State   1:      Triplet-?Sym    2.6020 eV  476.50 nm  f=0.0000  <S**2>=2.000
     102 ->104         0.66509
 This state for optimization and/or second-order correction.
 Total Energy, E(TD-HF/TD-DFT) =  -1255.20672391
 Copying the excited state density for this state as the 1-particle RhoCI density.

 Excited state symmetry could not be determined.
 Excited State   2:      Triplet-?Sym    3.2431 eV  382.30 nm  f=0.0000  <S**2>=2.000
     100 ->104         0.15265
     101 ->104        -0.20118
     102 ->106         0.56667
     102 ->107         0.22347

 Excited state symmetry could not be determined.
 Excited State   3:      Singlet-?Sym    3.6216 eV  342.35 nm  f=0.0007  <S**2>=0.000
     102 ->103         0.69957

 Excited state symmetry could not be determined.
 Excited State   4:      Singlet-?Sym    3.7613 eV  329.63 nm  f=0.2942  <S**2>=0.000
     102 ->104         0.66735
     102 ->106        -0.18632

 Alpha  occ. eigenvalues --  -19.17324 -14.40573 -14.34751 -14.33245 -14.31358
 Alpha  occ. eigenvalues --  -14.31188 -14.31003 -10.26988 -10.24739 -10.24185
 Alpha  occ. eigenvalues --  -10.23764 -10.23483 -10.22811 -10.22465 -10.22112
 Alpha  occ. eigenvalues --  -10.22071 -10.21581 -10.21528 -10.20825 -10.20648
 Alpha  occ. eigenvalues --  -10.20511 -10.20466 -10.18749 -10.18593 -10.18390
 Alpha  occ. eigenvalues --  -10.18346 -10.18201 -10.18140 -10.17873  -1.06028
 Alpha  occ. eigenvalues --   -1.02867  -0.95726  -0.94614  -0.91949  -0.90385
 Alpha  occ. eigenvalues --   -0.86823  -0.84491  -0.80890  -0.79009  -0.77866
 Alpha  occ. eigenvalues --   -0.75797  -0.75597  -0.74052  -0.73949  -0.71074
 Alpha  occ. eigenvalues --   -0.69256  -0.65313  -0.63866  -0.63356  -0.62373
 Alpha  occ. eigenvalues --   -0.61074  -0.60105  -0.58121  -0.57700  -0.56713
 Alpha  occ. eigenvalues --   -0.55052  -0.53412  -0.52295  -0.52027  -0.50754
 Alpha  occ. eigenvalues --   -0.50402  -0.48754  -0.48586  -0.47704  -0.46931
 Alpha  occ. eigenvalues --   -0.46423  -0.46128  -0.45810  -0.44498  -0.44103
 Alpha  occ. eigenvalues --   -0.44079  -0.42738  -0.42075  -0.41365  -0.41007
 Alpha  occ. eigenvalues --   -0.40450  -0.40126  -0.39375  -0.38721  -0.38461
 Alpha  occ. eigenvalues --   -0.37483  -0.37321  -0.36708  -0.36278  -0.35011
 Alpha  occ. eigenvalues --   -0.34761  -0.34156  -0.33547  -0.32438  -0.31953
 Alpha  occ. eigenvalues --   -0.31317  -0.29081  -0.27850  -0.27168  -0.26375
 Alpha  occ. eigenvalues --   -0.25697  -0.25426  -0.24511  -0.23783  -0.21844
 Alpha  occ. eigenvalues --   -0.21813  -0.17906
 Alpha virt. eigenvalues --   -0.03101  -0.02415  -0.01840   0.00184   0.00509
 Alpha virt. eigenvalues --    0.02267   0.07351   0.08305   0.08578   0.09786
 Alpha virt. eigenvalues --    0.10399   0.10597   0.11369   0.11664   0.12419

 Mulliken charges:
               1
     1  N   -0.777153
     2  C    0.443151
     3  N   -0.519287
     4  C   -0.004884
     5  C    0.022864
     6  N   -0.548741
     7  C    0.479506
     8  C   -0.032555
     9  C   -0.265702
    10  C   -0.281093
    11  C   -0.116641
    12  N   -0.552547
    13  N   -0.521245
    14  C    0.088360
    15  C    0.085387
    16  C   -0.170555
    17  C   -0.190683
    18  C    0.387210
    19  O   -0.508530
    20  C   -0.091467
    21  C    0.267356
    22  C   -0.167945
    23  C   -0.100205
    24  C   -0.139553
    25  C    0.039004
    26  N   -0.442855
    27  C   -0.188038
    28  C   -0.210759
    29  C    0.304816
    30  H    0.346870
    31  H    0.340092
    32  H    0.142243
    33  H    0.159372
    34  H    0.113229
    35  H    0.158667
    36  H    0.134689
    37  H    0.151757
    38  H    0.137379
    39  H    0.142515
    40  H    0.111295
    41  H    0.306607
    42  H    0.152490
    43  H    0.131103
    44  H    0.144549
    45  H    0.174293
    46  H    0.138302
    47  H    0.147045
    48  H    0.141529
    49  H    0.144751
    50  H    0.140266
    51  H    0.153744
 Sum of Mulliken charges =  -0.00000

 Dipole moment (field-independent basis, Debye):
    X=              0.4596    Y=             -0.8176    Z=              3.1878  Tot=              3.3229
 Quadrupole moment (field-independent basis, Debye-Ang):
   XX=           -136.3830   YY=           -161.6491   ZZ=           -163.8900
   XY=             -1.8475   XZ=             10.3970   YZ=              1.8065

 Normal termination of Gaussian 16 at Sat Nov  5 12:15:20 2022.
