 Gaussian 16, Revision B.01,
 Gaussian 16:  ES64L-G16RevB.01 20-Dec-2017

 -------------------------------------------------------------------
 #p b3lyp/6-31g(d) 6D 10F nosymm GFInput td=(50-50,nstate=2) SCF=XQC
 -------------------------------------------------------------------

 ------------------------------
 Gaussian input prepared by ASE
 ------------------------------
 Symbolic Z-matrix:
 Charge =  0 Multiplicity = 1

                          Input orientation:
 ---------------------------------------------------------------------
 Center     Atomic      Atomic             Coordinates (Angstroms)
 Number     Number       Type             X           Y           Z
 ---------------------------------------------------------------------
      1          6           0       -7.701483   -1.176444    1.304321
      2          6           0       -7.341560   -1.744408   -0.075383
      3          6           0       -5.999079   -2.506833   -0.142839
      4          6           0       -4.759853   -1.673449   -0.515425
      5          6           0       -4.361331   -0.578665    0.496851
      6          6           0       -3.068221    0.117599    0.132449
      7          6           0       -1.863766   -0.230787    0.733955
      8          6           0       -0.629840    0.366327    0.398213
      9          6           0        0.581874   -0.075025    1.094463
     10          6           0        1.871341   -0.086922    0.667253
     11          6           0        2.361045    0.218029   -0.657961
     12          6           0        3.665996    0.333962   -1.033054
     13          6           0        4.828036    0.265028   -0.182244
     14          6           0        6.094539    0.378425   -0.651242
     15          6           0        7.340202    0.325644    0.111461
     16          6           0        8.562860    0.464477   -0.574300
     17          6           0        9.781319    0.421797    0.099455
     18          6           0        9.810326    0.238681    1.482680
     19          6           0        8.606905    0.099080    2.181685
     20          6           0        7.390525    0.141533    1.508727
     21          6           0       -0.656137    1.393147   -0.558785
     22          6           0       -1.847309    1.774439   -1.176123
     23          6           0       -3.047015    1.136234   -0.846466
     24          8           0       -4.256939    1.446597   -1.405348
     25          6           0       -4.311038    2.483513   -2.371612
     26          1           0       -7.758951   -1.977565    2.051817
     27          1           0       -8.676960   -0.676131    1.280554
     28          1           0       -6.965660   -0.448162    1.659970
     29          1           0       -7.337207   -0.935468   -0.819806
     30          1           0       -8.147460   -2.425292   -0.380077
     31          1           0       -6.086619   -3.302948   -0.894349
     32          1           0       -5.823663   -3.019864    0.814741
     33          1           0       -4.921952   -1.203221   -1.493910
     34          1           0       -3.907337   -2.355205   -0.638536
     35          1           0       -5.162707    0.164139    0.564450
     36          1           0       -4.253353   -1.029641    1.491935
     37          1           0       -1.874651   -1.010428    1.493748
     38          1           0        0.403100   -0.464276    2.096739
     39          1           0        2.610375   -0.420360    1.393393
     40          1           0        1.612240    0.320974   -1.439123
     41          1           0        3.868440    0.504733   -2.090266
     42          1           0        4.663547    0.122983    0.883475
     43          1           0        6.220706    0.528295   -1.724321
     44          1           0        8.548117    0.607531   -1.652492
     45          1           0       10.708840    0.531739   -0.456420
     46          1           0       10.758374    0.204752    2.012429
     47          1           0        8.618636   -0.043808    3.259200
     48          1           0        6.469374    0.030854    2.073316
     49          1           0        0.253554    1.933700   -0.797101
     50          1           0       -1.830207    2.580369   -1.901027
     51          1           0       -3.695953    2.248822   -3.250278
     52          1           0       -3.986423    3.444422   -1.951148
     53          1           0       -5.357594    2.557079   -2.673167
 ---------------------------------------------------------------------

 SCF Done:  E(RB3LYP) =  -1006.60696137     A.U. after   14 cycles

 Excitation energies and oscillator strengths:

 Excited state symmetry could not be determined.
 Excited State   1:      Triplet-?Sym    1.6171 eV  766.73 nm  f=0.0000  <S**2>=2.000
      89 -> 91         0.13662
      90 -> 91         0.67952
      90 <- 91         0.14107
 This state for optimization and/or second-order correction.
 Total Energy, E(TD-HF/TD-DFT) =  -1006.54753561
 Copying the excited state density for this state as the 1-particle RhoCI density.

 Excited state symmetry could not be determined.
 Excited State   2:      Triplet-?Sym    2.8030 eV  442.33 nm  f=0.0000  <S**2>=2.000
      86 -> 91        -0.14943
      88 -> 91         0.10473
      89 -> 91         0.45974
      90 -> 92        -0.44817

 Excited state symmetry could not be determined.
 Excited State   3:      Singlet-?Sym    3.1912 eV  388.52 nm  f=1.4867  <S**2>=0.000
      89 -> 91        -0.10903
      90 -> 91         0.69880

 Excited state symmetry could not be determined.
 Excited State   4:      Singlet-?Sym    3.8850 eV  319.14 nm  f=0.2066  <S**2>=0.000
      89 -> 91         0.57782
      90 -> 91         0.10282
      90 -> 92         0.37969

 Alpha  occ. eigenvalues --  -19.18112 -10.24542 -10.24397 -10.19686 -10.19002
 Alpha  occ. eigenvalues --  -10.18984 -10.18904 -10.18858 -10.18839 -10.18820
 Alpha  occ. eigenvalues --  -10.18815 -10.18761 -10.18743 -10.18736 -10.18730
 Alpha  occ. eigenvalues --  -10.18716 -10.18666 -10.18564 -10.18510 -10.18459
 Alpha  occ. eigenvalues --  -10.17894 -10.17533 -10.17398 -10.17371 -10.16831
 Alpha  occ. eigenvalues --   -1.06574  -0.85540  -0.85394  -0.81531  -0.80018
 Alpha  occ. eigenvalues --   -0.78781  -0.76868  -0.75927  -0.74224  -0.73736
 Alpha  occ. eigenvalues --   -0.72692  -0.71011  -0.68896  -0.67046  -0.63298
 Alpha  occ. eigenvalues --   -0.61591  -0.60675  -0.59857  -0.59418  -0.56976
 Alpha  occ. eigenvalues --   -0.56049  -0.55294  -0.52907  -0.51791  -0.51490
 Alpha  occ. eigenvalues --   -0.49508  -0.47213  -0.47165  -0.47063  -0.45459
 Alpha  occ. eigenvalues --   -0.45277  -0.44788  -0.43787  -0.43564  -0.42814
 Alpha  occ. eigenvalues --   -0.42538  -0.41754  -0.41382  -0.41024  -0.40357
 Alpha  occ. eigenvalues --   -0.38876  -0.38631  -0.38209  -0.37758  -0.37145
 Alpha  occ. eigenvalues --   -0.37032  -0.35874  -0.35624  -0.35459  -0.34399
 Alpha  occ. eigenvalues --   -0.33899  -0.33776  -0.33493  -0.32799  -0.32423
 Alpha  occ. eigenvalues --   -0.32191  -0.31591  -0.30974  -0.30229  -0.29091
 Alpha  occ. eigenvalues --   -0.25535  -0.24825  -0.24120  -0.21781  -0.18109
 Alpha virt. eigenvalues --   -0.05926  -0.01116   0.00218   0.00364   0.03280
 Alpha virt. eigenvalues --    0.06890   0.08940   0.09063   0.09640   0.09814
 Alpha virt. eigenvalues --    0.10638   0.11683   0.11911   0.12442   0.12825

 Mulliken charges:
               1
     1  C   -0.447168
     2  C   -0.248931
     3  C   -0.254474
     4  C   -0.254313
     5  C   -0.337174
     6  C    0.129159
     7  C   -0.262874
     8  C    0.182500
     9  C   -0.209510
    10  C   -0.115972
    11  C   -0.152764
    12  C   -0.138352
    13  C   -0.100618
    14  C   -0.197254
    15  C    0.174721
    16  C   -0.193672
    17  C   -0.130415
    18  C   -0.129629
    19  C   -0.130432
    20  C   -0.179821
    21  C   -0.205162
    22  C   -0.195458
    23  C    0.326305
    24  O   -0.511274
    25  C   -0.215373
    26  H    0.140276
    27  H    0.139123
    28  H    0.150224
    29  H    0.134056
    30  H    0.130413
    31  H    0.129455
    32  H    0.126085
    33  H    0.144185
    34  H    0.130892
    35  H    0.158884
    36  H    0.133141
    37  H    0.122402
    38  H    0.128548
    39  H    0.123888
    40  H    0.134930
    41  H    0.122046
    42  H    0.130450
    43  H    0.123038
    44  H    0.127466
    45  H    0.129814
    46  H    0.129310
    47  H    0.129871
    48  H    0.128309
    49  H    0.141852
    50  H    0.131734
    51  H    0.153659
    52  H    0.154018
    53  H    0.169887
 Sum of Mulliken charges =  -0.00000

 Dipole moment (field-independent basis, Debye):
    X=             -0.8893    Y=              1.0082    Z=             -1.0112  Tot=              1.6823
 Quadrupole moment (field-independent basis, Debye-Ang):
   XX=           -137.6078   YY=           -149.5791   ZZ=           -138.4540
   XY=             -3.6540   XZ=              5.9397   YZ=             -9.0143

 Normal termination of Gaussian 16 at Sat Nov  5 12:09:31 2022.
