 Gaussian 16, Revision B.01,
 Gaussian 16:  ES64L-G16RevB.01 20-Dec-2017

 -----------------------------
 #p b3lyp/6-31g(d) opt SCF=XQC
 -----------------------------

 ------------------------------
 Gaussian input prepared by ASE
 ------------------------------
 Symbolic Z-matrix:
 Charge =  0 Multiplicity = 1

 SCF Done:  E(RB3LYP) =  -1006.60138589     A.U. after   14 cycles
 SCF Done:  E(RB3LYP) =  -1006.60623029     A.U. after   12 cycles
 SCF Done:  E(RB3LYP) =  -1006.60656580     A.U. after   12 cycles
 SCF Done:  E(RB3LYP) =  -1006.60685068     A.U. after   11 cycles
 SCF Done:  E(RB3LYP) =  -1006.60690719     A.U. after   11 cycles
 SCF Done:  E(RB3LYP) =  -1006.60693813     A.U. after   10 cycles
 SCF Done:  E(RB3LYP) =  -1006.60695188     A.U. after    9 cycles
 SCF Done:  E(RB3LYP) =  -1006.60695685     A.U. after    9 cycles
 SCF Done:  E(RB3LYP) =  -1006.60695809     A.U. after    9 cycles
 SCF Done:  E(RB3LYP) =  -1006.60695853     A.U. after    8 cycles
 SCF Done:  E(RB3LYP) =  -1006.60695861     A.U. after    7 cycles
 SCF Done:  E(RB3LYP) =  -1006.60695862     A.U. after    6 cycles
 SCF Done:  E(RB3LYP) =  -1006.60695864     A.U. after    6 cycles
 Optimization completed.
    -- Stationary point found.

                         Standard orientation:
 ---------------------------------------------------------------------
 Center     Atomic      Atomic             Coordinates (Angstroms)
 Number     Number       Type             X           Y           Z
 ---------------------------------------------------------------------
      1          6           0        8.211809   -1.829354   -0.722458
      2          6           0        7.962355   -1.287849    0.691845
      3          6           0        6.671099   -1.795701    1.372169
      4          6           0        5.409427   -0.938634    1.165648
      5          6           0        4.893543   -0.847179   -0.286100
      6          6           0        3.585470   -0.095041   -0.399836
      7          6           0        2.370938   -0.765272   -0.497803
      8          6           0        1.125874   -0.104486   -0.568651
      9          6           0       -0.095926   -0.907401   -0.670344
     10          6           0       -1.356737   -0.623930   -0.251570
     11          6           0       -1.788059    0.510824    0.532835
     12          6           0       -3.074463    0.850690    0.827267
     13          6           0       -4.276486    0.210420    0.353812
     14          6           0       -5.519169    0.613407    0.714629
     15          6           0       -6.800538    0.045480    0.300227
     16          6           0       -7.988835    0.616692    0.796313
     17          6           0       -9.238685    0.117575    0.436917
     18          6           0       -9.334574   -0.970370   -0.431912
     19          6           0       -8.166150   -1.551332   -0.935488
     20          6           0       -6.918404   -1.052933   -0.576345
     21          6           0        1.147431    1.299105   -0.587715
     22          6           0        2.347743    2.004035   -0.499931
     23          6           0        3.561363    1.317659   -0.393685
     24          8           0        4.781117    1.930966   -0.300706
     25          6           0        4.830334    3.348323   -0.322252
     26          1           0        8.272680   -2.924834   -0.714402
     27          1           0        9.157176   -1.448879   -1.127370
     28          1           0        7.417176   -1.550136   -1.421680
     29          1           0        7.953816   -0.188713    0.671965
     30          1           0        8.821309   -1.567828    1.316126
     31          1           0        6.845485   -1.852047    2.455056
     32          1           0        6.471756   -2.828531    1.048970
     33          1           0        5.599088    0.077654    1.534445
     34          1           0        4.605123   -1.348563    1.791575
     35          1           0        5.646516   -0.354882   -0.909966
     36          1           0        4.755814   -1.860885   -0.684424
     37          1           0        2.383469   -1.853824   -0.509694
     38          1           0        0.048288   -1.880769   -1.139160
     39          1           0       -2.115141   -1.368352   -0.486711
     40          1           0       -1.003781    1.126609    0.965544
     41          1           0       -3.226821    1.703971    1.487981
     42          1           0       -4.164066   -0.628056   -0.329790
     43          1           0       -5.593421    1.462714    1.395102
     44          1           0       -7.921952    1.464933    1.473952
     45          1           0      -10.138407    0.578870    0.835773
     46          1           0      -10.307315   -1.363053   -0.715031
     47          1           0       -8.230002   -2.398978   -1.612993
     48          1           0       -6.025477   -1.520796   -0.980468
     49          1           0        0.223329    1.852456   -0.715660
     50          1           0        2.325573    3.087481   -0.530797
     51          1           0        4.279630    3.784121    0.521708
     52          1           0        4.428801    3.751945   -1.261066
     53          1           0        5.886264    3.612273   -0.238769
 ---------------------------------------------------------------------

 The electronic state is 1-A.
 Alpha  occ. eigenvalues --  -19.18111 -10.24542 -10.24397 -10.19686 -10.19002
 Alpha  occ. eigenvalues --  -10.18984 -10.18904 -10.18858 -10.18839 -10.18820
 Alpha  occ. eigenvalues --  -10.18815 -10.18761 -10.18743 -10.18736 -10.18730
 Alpha  occ. eigenvalues --  -10.18716 -10.18666 -10.18564 -10.18510 -10.18459
 Alpha  occ. eigenvalues --  -10.17894 -10.17533 -10.17398 -10.17371 -10.16831
 Alpha  occ. eigenvalues --   -1.06574  -0.85541  -0.85394  -0.81531  -0.80018
 Alpha  occ. eigenvalues --   -0.78781  -0.76868  -0.75927  -0.74224  -0.73736
 Alpha  occ. eigenvalues --   -0.72692  -0.71011  -0.68896  -0.67046  -0.63298
 Alpha  occ. eigenvalues --   -0.61591  -0.60675  -0.59857  -0.59418  -0.56976
 Alpha  occ. eigenvalues --   -0.56049  -0.55294  -0.52907  -0.51791  -0.51490
 Alpha  occ. eigenvalues --   -0.49508  -0.47213  -0.47165  -0.47063  -0.45459
 Alpha  occ. eigenvalues --   -0.45277  -0.44788  -0.43787  -0.43564  -0.42814
 Alpha  occ. eigenvalues --   -0.42538  -0.41754  -0.41382  -0.41024  -0.40357
 Alpha  occ. eigenvalues --   -0.38876  -0.38631  -0.38209  -0.37758  -0.37145
 Alpha  occ. eigenvalues --   -0.37032  -0.35874  -0.35624  -0.35459  -0.34399
 Alpha  occ. eigenvalues --   -0.33899  -0.33776  -0.33493  -0.32799  -0.32423
 Alpha  occ. eigenvalues --   -0.32191  -0.31591  -0.30974  -0.30229  -0.29091
 Alpha  occ. eigenvalues --   -0.25535  -0.24825  -0.24120  -0.21781  -0.18109
 Alpha virt. eigenvalues --   -0.05926  -0.01116   0.00218   0.00364   0.03280
 Alpha virt. eigenvalues --    0.06890   0.08940   0.09063   0.09640   0.09814
 Alpha virt. eigenvalues --    0.10638   0.11683   0.11911   0.12442   0.12825

 Mulliken charges:
               1
     1  C   -0.447168
     2  C   -0.248930
     3  C   -0.254440
     4  C   -0.254332
     5  C   -0.337184
     6  C    0.129167
     7  C   -0.262871
     8  C    0.182491
     9  C   -0.209508
    10  C   -0.115976
    11  C   -0.152762
    12  C   -0.138353
    13  C   -0.100617
    14  C   -0.197255
    15  C    0.174725
    16  C   -0.193677
    17  C   -0.130413
    18  C   -0.129628
    19  C   -0.130433
    20  C   -0.179823
    21  C   -0.205159
    22  C   -0.195465
    23  C    0.326313
    24  O   -0.511276
    25  C   -0.215376
    26  H    0.140274
    27  H    0.139122
    28  H    0.150224
    29  H    0.134055
    30  H    0.130411
    31  H    0.129449
    32  H    0.126079
    33  H    0.144188
    34  H    0.130893
    35  H    0.158883
    36  H    0.133146
    37  H    0.122402
    38  H    0.128548
    39  H    0.123888
    40  H    0.134929
    41  H    0.122046
    42  H    0.130449
    43  H    0.123038
    44  H    0.127466
    45  H    0.129813
    46  H    0.129310
    47  H    0.129871
    48  H    0.128308
    49  H    0.141853
    50  H    0.131735
    51  H    0.153660
    52  H    0.154018
    53  H    0.169888
 Sum of Mulliken charges =  -0.00000

 Dipole moment (field-independent basis, Debye):
    X=              0.8859    Y=              1.4296    Z=             -0.0359  Tot=              1.6823
 Quadrupole moment (field-independent basis, Debye-Ang):
   XX=           -136.4983   YY=           -135.5082   ZZ=           -152.9516
   XY=              7.8823   XZ=              0.5337   YZ=              5.4509

 1\1\GINC-NODE29\FOpt\RB3LYP\6-31G(d)\C24H28O1\WYKGROUP\04-Nov-2022\0\\
 #p b3lyp/6-31g(d) opt SCF=XQC\\Gaussian input prepared by ASE\\0,1\C,-
 7.7014825344,-1.1764436849,1.3043208732\C,-7.3415599398,-1.7444078903,
 -0.0753825315\C,-5.9990791323,-2.5068327836,-0.142839073\C,-4.75985335
 72,-1.6734485731,-0.5154249928\C,-4.3613305845,-0.5786651281,0.4968509
 577\C,-3.068221166,0.117598638,0.132448632\C,-1.8637663871,-0.23078749
 08,0.7339547306\C,-0.6298396612,0.3663265968,0.3982127116\C,0.58187449
 72,-0.0750247125,1.0944634374\C,1.8713407925,-0.0869219074,0.667252899

 Normal termination of Gaussian 16 at Fri Nov  4 20:29:13 2022.
