 Gaussian 16, Revision B.01,
 Gaussian 16:  ES64L-G16RevB.01 20-Dec-2017

 -----------------------------
 #p b3lyp/6-31g(d) opt SCF=XQC
 -----------------------------

 ------------------------------
 Gaussian input prepared by ASE
 ------------------------------
 Symbolic Z-matrix:
 Charge =  0 Multiplicity = 1

 SCF Done:  E(RB3LYP) =  -2262.38159764     A.U. after   15 cycles
 SCF Done:  E(RB3LYP) =  -2262.39383373     A.U. after   13 cycles
 SCF Done:  E(RB3LYP) =  -2262.39279526     A.U. after   12 cycles
 SCF Done:  E(RB3LYP) =  -2262.39108542     A.U. after   13 cycles
 SCF Done:  E(RB3LYP) =  -2262.39303473     A.U. after   12 cycles
 SCF Done:  E(RB3LYP) =  -2262.39546066     A.U. after   11 cycles
 SCF Done:  E(RB3LYP) =  -2262.39658411     A.U. after   12 cycles
 SCF Done:  E(RB3LYP) =  -2262.39697520     A.U. after   12 cycles
 SCF Done:  E(RB3LYP) =  -2262.39709907     A.U. after   10 cycles
 SCF Done:  E(RB3LYP) =  -2262.39719738     A.U. after   10 cycles
 SCF Done:  E(RB3LYP) =  -2262.39744288     A.U. after   10 cycles
 SCF Done:  E(RB3LYP) =  -2262.39744746     A.U. after   10 cycles
 SCF Done:  E(RB3LYP) =  -2262.39744445     A.U. after   10 cycles
 SCF Done:  E(RB3LYP) =  -2262.39744907     A.U. after   10 cycles
 SCF Done:  E(RB3LYP) =  -2262.39744862     A.U. after    9 cycles
 SCF Done:  E(RB3LYP) =  -2262.39744942     A.U. after    9 cycles
 SCF Done:  E(RB3LYP) =  -2262.39744958     A.U. after    8 cycles
 SCF Done:  E(RB3LYP) =  -2262.39744959     A.U. after    8 cycles
 SCF Done:  E(RB3LYP) =  -2262.39744959     A.U. after    6 cycles
 SCF Done:  E(RB3LYP) =  -2262.39744959     A.U. after    5 cycles
 Optimization completed.
    -- Stationary point found.

                         Standard orientation:
 ---------------------------------------------------------------------
 Center     Atomic      Atomic             Coordinates (Angstroms)
 Number     Number       Type             X           Y           Z
 ---------------------------------------------------------------------
      1          6           0       -9.471478   -4.119051    1.274223
      2          6           0       -8.529125   -3.028112    0.822762
      3          6           0       -7.551275   -3.267954   -0.147901
      4          6           0       -6.670425   -2.265743   -0.556967
      5          6           0       -6.741756   -0.997670    0.025519
      6          7           0       -5.853958    0.041338   -0.363507
      7          7           0       -6.335630    1.315185   -0.464093
      8          6           0       -5.295619    2.065297   -0.817094
      9          6           0       -5.430358    3.559644   -1.053740
     10          6           0       -6.833167    4.050046   -0.652617
     11          6           0       -5.195838    3.853189   -2.554048
     12          6           0       -4.367578    4.309139   -0.217592
     13          6           0       -4.125901    1.272528   -0.945460
     14          6           0       -4.509371   -0.018676   -0.642649
     15          6           0       -3.665611   -1.259815   -0.520127
     16          7           0       -2.290286   -0.903070   -0.223498
     17          6           0       -1.234984   -1.549303   -0.815856
     18          8           0       -1.379231   -2.498174   -1.574614
     19          7           0        0.036514   -1.031920   -0.478273
     20          6           0        1.222557   -1.752780   -0.832550
     21          6           0        1.295571   -3.144641   -0.687043
     22          6           0        2.471662   -3.804879   -1.027300
     23          6           0        3.583367   -3.098055   -1.492416
     24          6           0        3.527847   -1.707904   -1.633209
     25          6           0        4.721633   -0.913763   -2.124348
     26          6           0        5.466483   -0.131302   -1.017683
     27          6           0        6.075278   -1.063307    0.055477
     28          6           0        7.043367   -0.308465    0.990294
     29          6           0        6.407380    0.954952    1.622538
     30          6           0        6.688311    2.094218    0.595076
     31          6           0        7.464691    1.401276   -0.550917
     32          6           0        6.538058    0.802129   -1.628700
     33          7           0        8.106436    0.294202    0.170507
     34          6           0        9.217370   -0.324076   -0.305252
     35          8           0        9.936527    0.090777   -1.201037
     36          8           0        9.482294   -1.485632    0.369820
     37          6           0        2.333867   -1.049936   -1.307489
     38          6           0        0.174286    0.246299    0.136640
     39          6           0       -0.238491    1.406082   -0.528592
     40          6           0       -0.136348    2.634963    0.110302
     41          9           0       -0.577390    3.740762   -0.531806
     42          6           0        0.391503    2.756675    1.387129
     43          6           0        0.825546    1.609096    2.056700
     44          6           0        0.714858    0.355990    1.434917
     45          8           0        1.095877   -0.792512    2.067291
     46          6           0        1.922002   -0.572451    3.207206
     47          8           0        1.387126    0.380765    4.073129
     48          6           0        1.373552    1.671741    3.467414
     49          6           0       -7.721061   -0.733825    0.990962
     50          6           0       -8.602002   -1.739284    1.373541
     51          1           0      -10.498889   -3.748867    1.366664
     52          1           0       -9.477706   -4.958462    0.571619
     53          1           0       -9.182193   -4.515210    2.256710
     54          1           0       -7.484016   -4.249627   -0.610508
     55          1           0       -5.955725   -2.465638   -1.348282
     56          1           0       -6.918762    5.127225   -0.838832
     57          1           0       -7.028648    3.867600    0.409171
     58          1           0       -7.611960    3.535840   -1.223384
     59          1           0       -5.939511    3.340112   -3.173909
     60          1           0       -4.202082    3.521843   -2.876279
     61          1           0       -5.272111    4.929932   -2.749710
     62          1           0       -3.346778    4.013194   -0.485511
     63          1           0       -4.504798    4.117291    0.852942
     64          1           0       -4.452408    5.390548   -0.380781
     65          1           0       -3.130973    1.597050   -1.209539
     66          1           0       -3.637591   -1.842964   -1.446461
     67          1           0       -4.079756   -1.921438    0.253407
     68          1           0       -2.127009   -0.204382    0.485937
     69          1           0        0.435859   -3.697163   -0.330606
     70          1           0        2.523945   -4.885418   -0.922979
     71          1           0        4.494961   -3.629968   -1.753531
     72          1           0        4.391655   -0.195194   -2.887382
     73          1           0        5.432554   -1.587239   -2.620793
     74          1           0        4.719023    0.502958   -0.518899
     75          1           0        6.637423   -1.875137   -0.426343
     76          1           0        5.275527   -1.536589    0.638174
     77          1           0        7.474855   -0.983485    1.730863
     78          1           0        6.886629    1.174661    2.581188
     79          1           0        5.338438    0.812129    1.814163
     80          1           0        5.772795    2.570658    0.230506
     81          1           0        7.307128    2.874656    1.047543
     82          1           0        8.228413    2.034991   -1.004246
     83          1           0        7.166061    0.246595   -2.338057
     84          1           0        6.050034    1.605259   -2.197292
     85          1           0       10.312329   -1.808261   -0.021737
     86          1           0        2.266340    0.026931   -1.437289
     87          1           0       -0.638055    1.344235   -1.534512
     88          1           0        0.442013    3.734945    1.856138
     89          1           0        2.924288   -0.272074    2.858352
     90          1           0        1.963188   -1.522646    3.738245
     91          1           0        0.742404    2.296691    4.105811
     92          1           0        2.389190    2.101627    3.474858
     93          1           0       -7.784219    0.260631    1.417421
     94          1           0       -9.360441   -1.520238    2.121845
 ---------------------------------------------------------------------

 The electronic state is 1-A.
 Alpha  occ. eigenvalues --  -24.72011 -19.19762 -19.18457 -19.18434 -19.11190
 Alpha  occ. eigenvalues --  -19.10907 -14.40966 -14.37716 -14.36179 -14.35528
 Alpha  occ. eigenvalues --  -14.33701 -10.32702 -10.31623 -10.30747 -10.28845
 Alpha  occ. eigenvalues --  -10.27283 -10.26766 -10.25359 -10.23668 -10.23451
 Alpha  occ. eigenvalues --  -10.23039 -10.22903 -10.22793 -10.22701 -10.22513
 Alpha  occ. eigenvalues --  -10.21911 -10.21665 -10.20110 -10.20109 -10.19779
 Alpha  occ. eigenvalues --  -10.19753 -10.19706 -10.19603 -10.19470 -10.19384
 Alpha  occ. eigenvalues --  -10.19339 -10.19269 -10.19198 -10.18954 -10.18741
 Alpha  occ. eigenvalues --  -10.18657 -10.18616 -10.18605 -10.18583 -10.18292
 Alpha  occ. eigenvalues --  -10.18257 -10.17352 -10.16908 -10.16842 -10.16097
 Alpha  occ. eigenvalues --   -1.22993  -1.11453  -1.09603  -1.05055  -1.04600
 Alpha  occ. eigenvalues --   -1.04071  -0.99834  -0.95728  -0.95500  -0.92511
 Alpha  occ. eigenvalues --   -0.88162  -0.87550  -0.85133  -0.83824  -0.81912
 Alpha  occ. eigenvalues --   -0.80067  -0.79808  -0.79590  -0.78809  -0.77439
 Alpha  occ. eigenvalues --   -0.77142  -0.75206  -0.75121  -0.74957  -0.74190
 Alpha  occ. eigenvalues --   -0.71985  -0.70501  -0.69695  -0.69115  -0.68421
 Alpha  occ. eigenvalues --   -0.67743  -0.67311  -0.65703  -0.65418  -0.64906
 Alpha  occ. eigenvalues --   -0.62749  -0.61771  -0.61324  -0.60672  -0.60255
 Alpha  occ. eigenvalues --   -0.59513  -0.58998  -0.58512  -0.58124  -0.56886
 Alpha  occ. eigenvalues --   -0.56505  -0.55588  -0.54805  -0.54672  -0.53543
 Alpha  occ. eigenvalues --   -0.52446  -0.52211  -0.51552  -0.51113  -0.50694
 Alpha  occ. eigenvalues --   -0.49231  -0.49138  -0.48664  -0.47775  -0.47674
 Alpha  occ. eigenvalues --   -0.47530  -0.47087  -0.46941  -0.46738  -0.46244
 Alpha  occ. eigenvalues --   -0.45836  -0.45746  -0.45241  -0.45079  -0.44347
 Alpha  occ. eigenvalues --   -0.44036  -0.43637  -0.43453  -0.43390  -0.42934
 Alpha  occ. eigenvalues --   -0.42807  -0.42559  -0.42416  -0.42366  -0.42242
 Alpha  occ. eigenvalues --   -0.42085  -0.41932  -0.41698  -0.41625  -0.41471
 Alpha  occ. eigenvalues --   -0.41195  -0.40804  -0.39744  -0.39642  -0.39337
 Alpha  occ. eigenvalues --   -0.38762  -0.38649  -0.38498  -0.38132  -0.37778
 Alpha  occ. eigenvalues --   -0.37562  -0.37019  -0.36782  -0.36100  -0.35886
 Alpha  occ. eigenvalues --   -0.35624  -0.35551  -0.35392  -0.35336  -0.35179
 Alpha  occ. eigenvalues --   -0.34751  -0.34530  -0.33604  -0.33074  -0.32791
 Alpha  occ. eigenvalues --   -0.32438  -0.32338  -0.32033  -0.32013  -0.31507
 Alpha  occ. eigenvalues --   -0.30508  -0.30138  -0.29304  -0.28030  -0.27529
 Alpha  occ. eigenvalues --   -0.26971  -0.26692  -0.26652  -0.25904  -0.25345
 Alpha  occ. eigenvalues --   -0.24292  -0.23942  -0.23554  -0.23392  -0.21788
 Alpha  occ. eigenvalues --   -0.21347
 Alpha virt. eigenvalues --   -0.04117  -0.01655  -0.01296  -0.00654   0.00007
 Alpha virt. eigenvalues --    0.00279   0.03441   0.04587   0.05466   0.05979
 Alpha virt. eigenvalues --    0.06865   0.07493   0.07632   0.08511   0.08829

 Mulliken charges:
               1
     1  C   -0.531766
     2  C    0.187712
     3  C   -0.199227
     4  C   -0.157928
     5  C    0.296244
     6  N   -0.437513
     7  N   -0.376085
     8  C    0.345727
     9  C    0.023928
    10  C   -0.437455
    11  C   -0.438207
    12  C   -0.450488
    13  C   -0.334590
    14  C    0.366725
    15  C   -0.183651
    16  N   -0.642225
    17  C    0.772122
    18  O   -0.529049
    19  N   -0.637181
    20  C    0.336467
    21  C   -0.127905
    22  C   -0.148791
    23  C   -0.184163
    24  C    0.170541
    25  C   -0.357883
    26  C   -0.094530
    27  C   -0.267279
    28  C    0.008139
    29  C   -0.289336
    30  C   -0.285058
    31  C    0.010489
    32  C   -0.270288
    33  N   -0.417601
    34  C    0.716203
    35  O   -0.522122
    36  O   -0.603053
    37  C   -0.234057
    38  C    0.138980
    39  C   -0.238749
    40  C    0.389323
    41  F   -0.298095
    42  C   -0.257195
    43  C    0.067993
    44  C    0.343273
    45  O   -0.514363
    46  C    0.152608
    47  O   -0.452309
    48  C   -0.090518
    49  C   -0.133736
    50  C   -0.192809
    51  H    0.161982
    52  H    0.157862
    53  H    0.166489
    54  H    0.130538
    55  H    0.149234
    56  H    0.129087
    57  H    0.144346
    58  H    0.157191
    59  H    0.150524
    60  H    0.139615
    61  H    0.138242
    62  H    0.144577
    63  H    0.142520
    64  H    0.138573
    65  H    0.131699
    66  H    0.207264
    67  H    0.172724
    68  H    0.339303
    69  H    0.150993
    70  H    0.130868
    71  H    0.121846
    72  H    0.144593
    73  H    0.142256
    74  H    0.126439
    75  H    0.143491
    76  H    0.144876
    77  H    0.160615
    78  H    0.150763
    79  H    0.138632
    80  H    0.142005
    81  H    0.152192
    82  H    0.165592
    83  H    0.155439
    84  H    0.134386
    85  H    0.414724
    86  H    0.127173
    87  H    0.170510
    88  H    0.151074
    89  H    0.141344
    90  H    0.175110
    91  H    0.178796
    92  H    0.155216
    93  H    0.159153
    94  H    0.128876
 Sum of Mulliken charges =  -0.00000

 Dipole moment (field-independent basis, Debye):
    X=             -0.2230    Y=              0.4720    Z=              4.5448  Tot=              4.5747
 Quadrupole moment (field-independent basis, Debye-Ang):
   XX=           -312.7171   YY=           -279.8619   ZZ=           -292.8667
   XY=              7.4349   XZ=              5.5904   YZ=              0.0294

 Normal termination of Gaussian 16 at Fri Nov  4 23:14:10 2022.
