 Gaussian 16, Revision B.01,
 Gaussian 16:  ES64L-G16RevB.01 20-Dec-2017

 -------------------------------------------------------------------
 #p b3lyp/6-31g(d) 6D 10F nosymm GFInput td=(50-50,nstate=2) SCF=XQC
 -------------------------------------------------------------------

 ------------------------------
 Gaussian input prepared by ASE
 ------------------------------
 Symbolic Z-matrix:
 Charge =  0 Multiplicity = 1

                          Input orientation:
 ---------------------------------------------------------------------
 Center     Atomic      Atomic             Coordinates (Angstroms)
 Number     Number       Type             X           Y           Z
 ---------------------------------------------------------------------
      1          6           0       -8.499493   -0.060519    5.804304
      2          6           0       -7.733656   -0.270027    4.519161
      3          6           0       -6.684369   -1.191257    4.440216
      4          6           0       -5.966180   -1.377015    3.258117
      5          6           0       -6.277376   -0.615105    2.128942
      6          7           0       -5.559489   -0.774999    0.913155
      7          7           0       -6.243203   -0.715644   -0.267448
      8          6           0       -5.328572   -0.872814   -1.220153
      9          6           0       -5.701308   -0.888454   -2.692584
     10          6           0       -7.184075   -0.521691   -2.882729
     11          6           0       -5.448434   -2.305203   -3.259127
     12          6           0       -4.820692    0.127981   -3.455317
     13          6           0       -4.037424   -1.033939   -0.654311
     14          6           0       -4.212231   -0.960297    0.713158
     15          6           0       -3.178546   -0.966402    1.808067
     16          7           0       -1.898491   -0.518508    1.290742
     17          6           0       -0.722582   -1.123054    1.656709
     18          8           0       -0.668950   -2.025966    2.480572
     19          7           0        0.426280   -0.617980    1.006039
     20          6           0        1.732149   -0.989614    1.462599
     21          6           0        2.031207   -1.052738    2.830209
     22          6           0        3.316415   -1.402056    3.231579
     23          6           0        4.314247   -1.671040    2.291473
     24          6           0        4.032478   -1.602241    0.923520
     25          6           0        5.097680   -1.877538   -0.118860
     26          6           0        5.646853   -0.612862   -0.819401
     27          6           0        6.352001    0.347753    0.165954
     28          6           0        7.133792    1.455281   -0.570964
     29          6           0        6.265049    2.223966   -1.598021
     30          6           0        6.398902    1.405430   -2.918857
     31          6           0        7.334360    0.227583   -2.553031
     32          6           0        6.574000   -0.994097   -1.997521
     33          7           0        8.118118    0.817298   -1.459476
     34          6           0        9.338557    0.336022   -1.110632
     35          8           0       10.019465   -0.430772   -1.774043
     36          8           0        9.762660    0.844023    0.088196
     37          6           0        2.730730   -1.268914    0.524838
     38          6           0        0.317722    0.192825   -0.160902
     39          6           0       -0.252129   -0.316631   -1.332970
     40          6           0       -0.388611    0.507676   -2.442320
     41          9           0       -0.978310    0.010712   -3.553577
     42          6           0        0.049939    1.823494   -2.437325
     43          6           0        0.638469    2.340649   -1.279811
     44          6           0        0.769798    1.528890   -0.142736
     45          8           0        1.308043    2.005341    1.018047
     46          6           0        2.030245    3.223145    0.857755
     47          8           0        1.302116    4.182357    0.154706
     48          6           0        1.100432    3.780916   -1.198757
     49          6           0       -7.331884    0.304527    2.183892
     50          6           0       -8.048356    0.463680    3.364871
     51          1           0       -9.577744    0.011335    5.621640
     52          1           0       -8.331045   -0.881261    6.508795
     53          1           0       -8.194746    0.868795    6.303719
     54          1           0       -6.431049   -1.791710    5.310559
     55          1           0       -5.191239   -2.134766    3.211087
     56          1           0       -7.440661   -0.547524   -3.948474
     57          1           0       -7.396346    0.482641   -2.501740
     58          1           0       -7.837263   -1.219844   -2.351100
     59          1           0       -6.064898   -3.048986   -2.742133
     60          1           0       -4.398926   -2.600100   -3.146245
     61          1           0       -5.695319   -2.339727   -4.327460
     62          1           0       -3.753093   -0.106006   -3.372386
     63          1           0       -4.974434    1.143789   -3.072989
     64          1           0       -5.078332    0.125542   -4.521567
     65          1           0       -3.099832   -1.171580   -1.170945
     66          1           0       -3.008839   -1.966117    2.221241
     67          1           0       -3.511821   -0.335221    2.643623
     68          1           0       -1.888964    0.299102    0.699518
     69          1           0        1.260705   -0.848830    3.562453
     70          1           0        3.544661   -1.459901    4.292588
     71          1           0        5.313685   -1.942285    2.622636
     72          1           0        4.688210   -2.544467   -0.890214
     73          1           0        5.934530   -2.417046    0.343795
     74          1           0        4.780512   -0.079707   -1.237691
     75          1           0        7.064937   -0.209355    0.789314
     76          1           0        5.616452    0.791139    0.848236
     77          1           0        7.636955    2.114170    0.138239
     78          1           0        6.654391    3.237532   -1.732399
     79          1           0        5.227469    2.312413   -1.258373
     80          1           0        5.434682    1.051267   -3.296910
     81          1           0        6.855426    2.015746   -3.703615
     82          1           0        8.001302   -0.066525   -3.364858
     83          1           0        7.319494   -1.731597   -1.671141
     84          1           0        5.985449   -1.468142   -2.794623
     85          1           0       10.652797    0.470076    0.207292
     86          1           0        2.489303   -1.237862   -0.534313
     87          1           0       -0.587314   -1.346887   -1.372640
     88          1           0       -0.087156    2.438407   -3.321984
     89          1           0        2.983173    2.998814    0.349712
     90          1           0        2.205355    3.604901    1.862826
     91          1           0        0.343539    4.458815   -1.603761
     92          1           0        2.027784    3.928453   -1.777228
     93          1           0       -7.581597    0.871601    1.294583
     94          1           0       -8.867540    1.178736    3.393202
 ---------------------------------------------------------------------

 SCF Done:  E(RB3LYP) =  -2262.39744964     A.U. after   15 cycles

 Excitation energies and oscillator strengths:

 Excited state symmetry could not be determined.
 Excited State   1:      Triplet-?Sym    3.3508 eV  370.01 nm  f=0.0000  <S**2>=2.000
     170 ->182         0.18380
     176 ->184        -0.11018
     176 ->186         0.10969
     177 ->184         0.16557
     181 ->182         0.53021
     181 ->184        -0.14961
     181 ->187        -0.11474
 This state for optimization and/or second-order correction.
 Total Energy, E(TD-HF/TD-DFT) =  -2262.27430986
 Copying the excited state density for this state as the 1-particle RhoCI density.

 Excited state symmetry could not be determined.
 Excited State   2:      Triplet-?Sym    3.5171 eV  352.52 nm  f=0.0000  <S**2>=2.000
     171 ->183         0.17266
     171 ->188        -0.10975
     174 ->185         0.15516
     175 ->185         0.29030
     180 ->183         0.56785

 Excited state symmetry could not be determined.
 Excited State   3:      Singlet-?Sym    4.0169 eV  308.66 nm  f=0.0859  <S**2>=0.000
     181 ->182         0.69684

 Excited state symmetry could not be determined.
 Excited State   4:      Singlet-?Sym    4.3820 eV  282.94 nm  f=0.0013  <S**2>=0.000
     180 ->182         0.70161

 Alpha  occ. eigenvalues --  -24.72011 -19.19762 -19.18457 -19.18434 -19.11190
 Alpha  occ. eigenvalues --  -19.10907 -14.40966 -14.37716 -14.36179 -14.35528
 Alpha  occ. eigenvalues --  -14.33701 -10.32702 -10.31623 -10.30747 -10.28845
 Alpha  occ. eigenvalues --  -10.27283 -10.26766 -10.25359 -10.23668 -10.23451
 Alpha  occ. eigenvalues --  -10.23039 -10.22903 -10.22793 -10.22701 -10.22513
 Alpha  occ. eigenvalues --  -10.21911 -10.21665 -10.20110 -10.20109 -10.19779
 Alpha  occ. eigenvalues --  -10.19753 -10.19706 -10.19603 -10.19470 -10.19384
 Alpha  occ. eigenvalues --  -10.19339 -10.19269 -10.19198 -10.18954 -10.18742
 Alpha  occ. eigenvalues --  -10.18657 -10.18616 -10.18605 -10.18582 -10.18292
 Alpha  occ. eigenvalues --  -10.18257 -10.17352 -10.16908 -10.16842 -10.16097
 Alpha  occ. eigenvalues --   -1.22993  -1.11453  -1.09603  -1.05055  -1.04600
 Alpha  occ. eigenvalues --   -1.04071  -0.99834  -0.95728  -0.95500  -0.92511
 Alpha  occ. eigenvalues --   -0.88162  -0.87550  -0.85133  -0.83824  -0.81912
 Alpha  occ. eigenvalues --   -0.80067  -0.79808  -0.79590  -0.78809  -0.77439
 Alpha  occ. eigenvalues --   -0.77142  -0.75207  -0.75121  -0.74957  -0.74190
 Alpha  occ. eigenvalues --   -0.71985  -0.70501  -0.69695  -0.69115  -0.68421
 Alpha  occ. eigenvalues --   -0.67743  -0.67311  -0.65703  -0.65418  -0.64906
 Alpha  occ. eigenvalues --   -0.62749  -0.61771  -0.61324  -0.60672  -0.60255
 Alpha  occ. eigenvalues --   -0.59513  -0.58998  -0.58512  -0.58124  -0.56886
 Alpha  occ. eigenvalues --   -0.56505  -0.55588  -0.54805  -0.54672  -0.53543
 Alpha  occ. eigenvalues --   -0.52446  -0.52211  -0.51552  -0.51113  -0.50694
 Alpha  occ. eigenvalues --   -0.49231  -0.49138  -0.48664  -0.47774  -0.47674
 Alpha  occ. eigenvalues --   -0.47530  -0.47087  -0.46941  -0.46738  -0.46244
 Alpha  occ. eigenvalues --   -0.45836  -0.45746  -0.45241  -0.45079  -0.44347
 Alpha  occ. eigenvalues --   -0.44036  -0.43638  -0.43453  -0.43390  -0.42934
 Alpha  occ. eigenvalues --   -0.42807  -0.42559  -0.42416  -0.42366  -0.42242
 Alpha  occ. eigenvalues --   -0.42085  -0.41932  -0.41698  -0.41625  -0.41471
 Alpha  occ. eigenvalues --   -0.41195  -0.40804  -0.39744  -0.39642  -0.39337
 Alpha  occ. eigenvalues --   -0.38762  -0.38649  -0.38498  -0.38132  -0.37778
 Alpha  occ. eigenvalues --   -0.37562  -0.37019  -0.36782  -0.36100  -0.35886
 Alpha  occ. eigenvalues --   -0.35625  -0.35551  -0.35392  -0.35336  -0.35179
 Alpha  occ. eigenvalues --   -0.34751  -0.34530  -0.33604  -0.33074  -0.32791
 Alpha  occ. eigenvalues --   -0.32438  -0.32338  -0.32033  -0.32013  -0.31507
 Alpha  occ. eigenvalues --   -0.30507  -0.30138  -0.29304  -0.28030  -0.27529
 Alpha  occ. eigenvalues --   -0.26971  -0.26692  -0.26652  -0.25904  -0.25345
 Alpha  occ. eigenvalues --   -0.24292  -0.23942  -0.23554  -0.23392  -0.21788
 Alpha  occ. eigenvalues --   -0.21347
 Alpha virt. eigenvalues --   -0.04117  -0.01655  -0.01296  -0.00654   0.00007
 Alpha virt. eigenvalues --    0.00279   0.03441   0.04587   0.05466   0.05979
 Alpha virt. eigenvalues --    0.06865   0.07493   0.07632   0.08511   0.08829

 Mulliken charges:
               1
     1  C   -0.531761
     2  C    0.187705
     3  C   -0.199222
     4  C   -0.157921
     5  C    0.296230
     6  N   -0.437514
     7  N   -0.376089
     8  C    0.345738
     9  C    0.023906
    10  C   -0.437453
    11  C   -0.438188
    12  C   -0.450483
    13  C   -0.334602
    14  C    0.366745
    15  C   -0.183657
    16  N   -0.642231
    17  C    0.772134
    18  O   -0.529046
    19  N   -0.637198
    20  C    0.336457
    21  C   -0.127896
    22  C   -0.148790
    23  C   -0.184164
    24  C    0.170517
    25  C   -0.357861
    26  C   -0.094535
    27  C   -0.267239
    28  C    0.008025
    29  C   -0.289303
    30  C   -0.285072
    31  C    0.010550
    32  C   -0.270313
    33  N   -0.417577
    34  C    0.716208
    35  O   -0.522126
    36  O   -0.603055
    37  C   -0.234051
    38  C    0.139007
    39  C   -0.238761
    40  C    0.389343
    41  F   -0.298095
    42  C   -0.257203
    43  C    0.067987
    44  C    0.343252
    45  O   -0.514346
    46  C    0.152608
    47  O   -0.452309
    48  C   -0.090519
    49  C   -0.133728
    50  C   -0.192814
    51  H    0.161981
    52  H    0.157862
    53  H    0.166489
    54  H    0.130539
    55  H    0.149233
    56  H    0.129088
    57  H    0.144347
    58  H    0.157190
    59  H    0.150522
    60  H    0.139612
    61  H    0.138238
    62  H    0.144580
    63  H    0.142520
    64  H    0.138572
    65  H    0.131691
    66  H    0.207264
    67  H    0.172724
    68  H    0.339305
    69  H    0.150991
    70  H    0.130867
    71  H    0.121844
    72  H    0.144591
    73  H    0.142255
    74  H    0.126441
    75  H    0.143494
    76  H    0.144876
    77  H    0.160623
    78  H    0.150761
    79  H    0.138630
    80  H    0.142003
    81  H    0.152189
    82  H    0.165586
    83  H    0.155439
    84  H    0.134386
    85  H    0.414724
    86  H    0.127172
    87  H    0.170513
    88  H    0.151072
    89  H    0.141348
    90  H    0.175108
    91  H    0.178795
    92  H    0.155215
    93  H    0.159153
    94  H    0.128877
 Sum of Mulliken charges =  -0.00000

 Dipole moment (field-independent basis, Debye):
    X=             -0.5151    Y=              4.5347    Z=              0.3133  Tot=              4.5747
 Quadrupole moment (field-independent basis, Debye-Ang):
   XX=           -314.9278   YY=           -291.6153   ZZ=           -278.9785
   XY=              5.5273   XZ=             -0.7492   YZ=             -2.8579

 Normal termination of Gaussian 16 at Sat Nov  5 12:24:07 2022.
