 Gaussian 16, Revision B.01,
 Gaussian 16:  ES64L-G16RevB.01 20-Dec-2017

 -----------------------------
 #p b3lyp/6-31g(d) opt SCF=XQC
 -----------------------------

 ------------------------------
 Gaussian input prepared by ASE
 ------------------------------
 Symbolic Z-matrix:
 Charge =  0 Multiplicity = 1

 SCF Done:  E(RB3LYP) =  -1528.01706374     A.U. after   16 cycles
 SCF Done:  E(RB3LYP) =  -1528.02520052     A.U. after   13 cycles
 SCF Done:  E(RB3LYP) =  -1528.02722069     A.U. after   13 cycles
 SCF Done:  E(RB3LYP) =  -1528.02837343     A.U. after   13 cycles
 SCF Done:  E(RB3LYP) =  -1528.02869020     A.U. after   12 cycles
 SCF Done:  E(RB3LYP) =  -1528.02864536     A.U. after   11 cycles
 SCF Done:  E(RB3LYP) =  -1528.02873711     A.U. after   12 cycles
 SCF Done:  E(RB3LYP) =  -1528.02880965     A.U. after   11 cycles
 SCF Done:  E(RB3LYP) =  -1528.02882128     A.U. after   11 cycles
 SCF Done:  E(RB3LYP) =  -1528.02883491     A.U. after   10 cycles
 SCF Done:  E(RB3LYP) =  -1528.02884002     A.U. after   10 cycles
 SCF Done:  E(RB3LYP) =  -1528.02884258     A.U. after   10 cycles
 SCF Done:  E(RB3LYP) =  -1528.02884528     A.U. after   10 cycles
 SCF Done:  E(RB3LYP) =  -1528.02884582     A.U. after    9 cycles
 SCF Done:  E(RB3LYP) =  -1528.02884601     A.U. after    7 cycles
 SCF Done:  E(RB3LYP) =  -1528.02884606     A.U. after    7 cycles
 Optimization completed.
    -- Stationary point found.

                         Standard orientation:
 ---------------------------------------------------------------------
 Center     Atomic      Atomic             Coordinates (Angstroms)
 Number     Number       Type             X           Y           Z
 ---------------------------------------------------------------------
      1          6           0        7.554754    4.618040   -0.447402
      2          6           0        7.619150    3.269983    0.251823
      3          8           0        8.621668    2.904364    0.836519
      4          6           0        6.352352    2.417677    0.198317
      5          6           0        6.542163    0.959532    0.640372
      6          6           0        7.460526    0.182847   -0.337154
      7          6           0        7.206707   -1.326970   -0.254353
      8          6           0        5.778755   -1.690978   -0.719497
      9          6           0        4.761056   -0.555646   -0.438191
     10          6           0        3.346158   -1.054695   -0.320977
     11          7           0        3.036215   -2.272317   -0.021992
     12          7           0        1.622319   -2.393489    0.042965
     13          6           0        1.055505   -1.244830   -0.223793
     14          6           0       -0.379426   -1.021559   -0.246902
     15          6           0       -0.860927    0.267199   -0.548041
     16          6           0       -2.205749    0.583800   -0.590037
     17          6           0       -3.152501   -0.427819   -0.323399
     18          6           0       -4.598784   -0.202798   -0.402946
     19          6           0       -5.604210   -1.133746   -0.726986
     20          6           0       -6.854096   -0.515410   -0.694263
     21          6           0       -6.643324    0.821335   -0.345384
     22          6           0       -7.458727    1.935157   -0.138213
     23          6           0       -6.872564    3.136777    0.229117
     24          6           0       -7.640264    4.315731    0.455884
     25          7           0       -8.257128    5.285668    0.643555
     26          6           0       -5.447173    3.168851    0.383211
     27          7           0       -4.649639    2.151730    0.197186
     28          7           0       -5.242324    0.989088   -0.176618
     29          6           0       -2.706645   -1.717734   -0.017263
     30          6           0       -1.336679   -2.062953    0.031218
     31          7           0       -0.899054   -3.318416    0.333945
     32          6           0       -1.665273   -4.526905    0.651678
     33          6           0       -2.452902   -4.427993    1.970983
     34          6           0       -2.520913   -5.038989   -0.521234
     35          6           0        2.115090   -0.203569   -0.501970
     36          6           0        5.182262    0.231549    0.829298
     37          1           0        7.532238    4.468770   -1.534938
     38          1           0        8.432110    5.213921   -0.187773
     39          1           0        6.640219    5.161523   -0.181136
     40          1           0        5.925687    2.476951   -0.814394
     41          1           0        5.620046    2.922565    0.849497
     42          1           0        7.043763    0.987679    1.615076
     43          1           0        8.505196    0.422437   -0.119023
     44          1           0        7.274151    0.518778   -1.369180
     45          1           0        7.943132   -1.873476   -0.855040
     46          1           0        7.358843   -1.655248    0.782816
     47          1           0        5.437127   -2.604065   -0.224186
     48          1           0        5.775271   -1.902724   -1.796002
     49          1           0        4.778300    0.156276   -1.277703
     50          1           0       -0.140760    1.052038   -0.761015
     51          1           0       -2.526013    1.589414   -0.823163
     52          1           0       -5.409951   -2.163378   -0.993360
     53          1           0       -7.814924   -0.962563   -0.908341
     54          1           0       -8.532867    1.846193   -0.261978
     55          1           0       -4.953535    4.089712    0.678505
     56          1           0       -3.442215   -2.473729    0.216211
     57          1           0        0.117297   -3.413917    0.334975
     58          1           0       -0.886012   -5.280900    0.814807
     59          1           0       -1.793244   -4.107382    2.783531
     60          1           0       -3.284886   -3.719813    1.914990
     61          1           0       -2.868056   -5.408507    2.231328
     62          1           0       -3.355907   -4.372183   -0.756391
     63          1           0       -1.908409   -5.140996   -1.422705
     64          1           0       -2.939775   -6.021755   -0.276106
     65          1           0        2.077339    0.642762    0.195331
     66          1           0        2.048238    0.214499   -1.514910
     67          1           0        5.250022   -0.482848    1.658810
     68          1           0        4.405600    0.953875    1.112647
 ---------------------------------------------------------------------

 The electronic state is 1-A.
 Alpha  occ. eigenvalues --  -19.14253 -14.45023 -14.39539 -14.34721 -14.34628
 Alpha  occ. eigenvalues --  -14.33923 -14.33788 -10.28136 -10.25835 -10.25075
 Alpha  occ. eigenvalues --  -10.24853 -10.24654 -10.24349 -10.24093 -10.23777
 Alpha  occ. eigenvalues --  -10.23377 -10.23191 -10.23063 -10.21429 -10.21330
 Alpha  occ. eigenvalues --  -10.20667 -10.20526 -10.20390 -10.20082 -10.19924
 Alpha  occ. eigenvalues --  -10.19660 -10.19525 -10.19357 -10.19127 -10.18783
 Alpha  occ. eigenvalues --  -10.18186 -10.18173 -10.18034 -10.17798 -10.17748
 Alpha  occ. eigenvalues --  -10.17673  -1.07232  -1.04205  -1.00638  -0.93584
 Alpha  occ. eigenvalues --   -0.92794  -0.90770  -0.86128  -0.85441  -0.84728
 Alpha  occ. eigenvalues --   -0.82336  -0.79705  -0.78631  -0.78278  -0.77669
 Alpha  occ. eigenvalues --   -0.76710  -0.74639  -0.74177  -0.73672  -0.72491
 Alpha  occ. eigenvalues --   -0.69236  -0.69194  -0.68254  -0.66527  -0.63966
 Alpha  occ. eigenvalues --   -0.63001  -0.62858  -0.60622  -0.60365  -0.58198
 Alpha  occ. eigenvalues --   -0.57725  -0.56666  -0.55499  -0.54148  -0.53640
 Alpha  occ. eigenvalues --   -0.52785  -0.52000  -0.50867  -0.49917  -0.48760
 Alpha  occ. eigenvalues --   -0.48609  -0.48349  -0.47588  -0.47378  -0.47110
 Alpha  occ. eigenvalues --   -0.46516  -0.46196  -0.45244  -0.44835  -0.44550
 Alpha  occ. eigenvalues --   -0.44166  -0.43806  -0.43035  -0.42947  -0.42353
 Alpha  occ. eigenvalues --   -0.42233  -0.41719  -0.41104  -0.40727  -0.40296
 Alpha  occ. eigenvalues --   -0.39982  -0.39673  -0.39423  -0.38404  -0.38225
 Alpha  occ. eigenvalues --   -0.38107  -0.37672  -0.36971  -0.36673  -0.36370
 Alpha  occ. eigenvalues --   -0.36135  -0.35934  -0.35654  -0.35391  -0.35298
 Alpha  occ. eigenvalues --   -0.34869  -0.34175  -0.34113  -0.33370  -0.32543
 Alpha  occ. eigenvalues --   -0.30976  -0.30703  -0.30586  -0.30407  -0.29938
 Alpha  occ. eigenvalues --   -0.28813  -0.28368  -0.26374  -0.25802  -0.24886
 Alpha  occ. eigenvalues --   -0.24472  -0.21041  -0.19179
 Alpha virt. eigenvalues --   -0.08149  -0.06020  -0.03109  -0.01707   0.00111
 Alpha virt. eigenvalues --    0.01303   0.02769   0.04599   0.06396   0.07070
 Alpha virt. eigenvalues --    0.07212   0.08240   0.08624   0.08887   0.09181

 Mulliken charges:
               1
     1  C   -0.529840
     2  C    0.461441
     3  O   -0.437208
     4  C   -0.373334
     5  C   -0.061660
     6  C   -0.275924
     7  C   -0.279686
     8  C   -0.269777
     9  C   -0.160600
    10  C    0.339880
    11  N   -0.317733
    12  N   -0.434531
    13  C    0.340160
    14  C    0.085324
    15  C   -0.226011
    16  C   -0.174908
    17  C    0.142363
    18  C    0.282576
    19  C   -0.219277
    20  C   -0.227648
    21  C    0.386573
    22  C   -0.178034
    23  C    0.098131
    24  C    0.228826
    25  N   -0.476911
    26  C    0.042148
    27  N   -0.254867
    28  N   -0.440551
    29  C   -0.257956
    30  C    0.353608
    31  N   -0.713278
    32  C    0.053387
    33  C   -0.447431
    34  C   -0.446091
    35  C   -0.448995
    36  C   -0.289211
    37  H    0.172503
    38  H    0.181590
    39  H    0.163688
    40  H    0.146259
    41  H    0.158354
    42  H    0.149008
    43  H    0.162496
    44  H    0.117331
    45  H    0.136330
    46  H    0.138322
    47  H    0.177150
    48  H    0.133930
    49  H    0.128011
    50  H    0.125179
    51  H    0.147418
    52  H    0.153049
    53  H    0.150785
    54  H    0.180895
    55  H    0.181550
    56  H    0.130582
    57  H    0.375467
    58  H    0.144540
    59  H    0.158074
    60  H    0.153929
    61  H    0.144178
    62  H    0.146129
    63  H    0.157962
    64  H    0.145063
    65  H    0.195276
    66  H    0.193671
    67  H    0.154495
    68  H    0.123829
 Sum of Mulliken charges =  -0.00000

 Dipole moment (field-independent basis, Debye):
    X=             -0.3673    Y=             -1.5703    Z=             -2.3613  Tot=              2.8594
 Quadrupole moment (field-independent basis, Debye-Ang):
   XX=           -249.1907   YY=           -223.0128   ZZ=           -212.5194
   XY=             47.6942   XZ=             -5.0013   YZ=             -8.4671

 Normal termination of Gaussian 16 at Fri Nov  4 20:52:50 2022.
