 Gaussian 16, Revision B.01,
 Gaussian 16:  ES64L-G16RevB.01 20-Dec-2017

 -------------------------------------------------------------------
 #p b3lyp/6-31g(d) 6D 10F nosymm GFInput td=(50-50,nstate=2) SCF=XQC
 -------------------------------------------------------------------

 ------------------------------
 Gaussian input prepared by ASE
 ------------------------------
 Symbolic Z-matrix:
 Charge =  0 Multiplicity = 1

                          Input orientation:
 ---------------------------------------------------------------------
 Center     Atomic      Atomic             Coordinates (Angstroms)
 Number     Number       Type             X           Y           Z
 ---------------------------------------------------------------------
      1          6           0       -7.568992    3.645910    1.078353
      2          6           0       -7.444204    2.401688    0.214258
      3          8           0       -8.393297    1.961298   -0.406925
      4          6           0       -6.061308    1.755242    0.152834
      5          6           0       -6.037315    0.351753   -0.469478
      6          6           0       -6.802168   -0.672939    0.406417
      7          6           0       -6.323161   -2.103280    0.131639
      8          6           0       -4.845400   -2.297465    0.539589
      9          6           0       -4.019989   -0.992543    0.399236
     10          6           0       -2.548846   -1.248637    0.212484
     11          7           0       -2.064266   -2.357020   -0.239987
     12          7           0       -0.650460   -2.249397   -0.327009
     13          6           0       -0.259081   -1.069227    0.080271
     14          6           0        1.125140   -0.631713    0.124150
     15          6           0        1.411707    0.668323    0.583725
     16          6           0        2.693130    1.181051    0.658627
     17          6           0        3.776250    0.368877    0.261092
     18          6           0        5.172807    0.802837    0.361117
     19          6           0        6.316113    0.005292    0.559412
     20          6           0        7.455884    0.808402    0.598926
     21          6           0        7.035191    2.129471    0.423356
     22          6           0        7.665838    3.372850    0.354848
     23          6           0        6.894416    4.505813    0.145771
     24          6           0        7.467516    5.808104    0.066324
     25          7           0        7.924432    6.877376   -0.000062
     26          6           0        5.477457    4.336344    0.004277
     27          7           0        4.849197    3.193136    0.063974
     28          7           0        5.621277    2.098579    0.284379
     29          6           0        3.524953   -0.926167   -0.203769
     30          6           0        2.222894   -1.470020   -0.288602
     31          7           0        1.974559   -2.730451   -0.745757
     32          6           0        2.908082   -3.757100   -1.218001
     33          6           0        3.638741   -3.374377   -2.518144
     34          6           0        3.860383   -4.272855   -0.123839
     35          6           0       -1.457917   -0.246858    0.493586
     36          6           0       -4.587355   -0.128296   -0.756096
     37          1           0       -7.497248    3.367754    2.138072
     38          1           0       -8.533079    4.126800    0.900827
     39          1           0       -6.754871    4.352936    0.878438
     40          1           0       -5.623911    1.753200    1.162696
     41          1           0       -5.430803    2.444200   -0.432846
     42          1           0       -6.561147    0.423181   -1.430178
     43          1           0       -7.876200   -0.572261    0.225756
     44          1           0       -6.643897   -0.443322    1.471728
     45          1           0       -6.952628   -2.827383    0.661979
     46          1           0       -6.448898   -2.319470   -0.937980
     47          1           0       -4.380789   -3.078038   -0.069190
     48          1           0       -4.783202   -2.638422    1.580546
     49          1           0       -4.124969   -0.401885    1.322282
     50          1           0        0.585720    1.299882    0.898130
     51          1           0        2.861908    2.187134    1.015680
     52          1           0        6.287769   -1.067033    0.694138
     53          1           0        8.478638    0.491842    0.749690
     54          1           0        8.743694    3.436099    0.460844
     55          1           0        4.842040    5.199446   -0.169401
     56          1           0        4.361255   -1.524526   -0.534931
     57          1           0        0.984948   -2.980851   -0.753683
     58          1           0        2.249162   -4.596141   -1.471385
     59          1           0        2.918129   -3.060875   -3.280123
     60          1           0        4.354105   -2.558770   -2.377108
     61          1           0        4.192055   -4.238924   -2.902776
     62          1           0        4.589436   -3.519629    0.189655
     63          1           0        3.292950   -4.579579    0.760557
     64          1           0        4.418079   -5.140930   -0.493681
     65          1           0       -1.566839    0.675262   -0.091016
     66          1           0       -1.430730    0.047185    1.550987
     67          1           0       -4.565735   -0.735748   -1.669101
     68          1           0       -3.937148    0.734861   -0.949584
 ---------------------------------------------------------------------

 SCF Done:  E(RB3LYP) =  -1528.02883546     A.U. after   16 cycles

 Excitation energies and oscillator strengths:

 Excited state symmetry could not be determined.
 Excited State   1:      Triplet-?Sym    1.9564 eV  633.72 nm  f=0.0000  <S**2>=2.000
     126 ->130        -0.12912
     127 ->129        -0.40481
     128 ->129         0.49567
     128 ->130         0.22604
 This state for optimization and/or second-order correction.
 Total Energy, E(TD-HF/TD-DFT) =  -1527.95693753
 Copying the excited state density for this state as the 1-particle RhoCI density.

 Excited state symmetry could not be determined.
 Excited State   2:      Triplet-?Sym    2.1861 eV  567.14 nm  f=0.0000  <S**2>=2.000
     126 ->129        -0.17486
     127 ->129         0.47676
     128 ->129         0.24126
     128 ->130         0.39454

 Excited state symmetry could not be determined.
 Excited State   3:      Singlet-?Sym    2.5758 eV  481.34 nm  f=0.0950  <S**2>=0.000
     128 ->129         0.70172

 Excited state symmetry could not be determined.
 Excited State   4:      Singlet-?Sym    3.0953 eV  400.56 nm  f=0.1384  <S**2>=0.000
     127 ->129         0.56532
     127 ->131        -0.10382
     128 ->130         0.38414

 Alpha  occ. eigenvalues --  -19.14253 -14.45023 -14.39539 -14.34721 -14.34628
 Alpha  occ. eigenvalues --  -14.33923 -14.33788 -10.28136 -10.25835 -10.25075
 Alpha  occ. eigenvalues --  -10.24853 -10.24654 -10.24349 -10.24093 -10.23777
 Alpha  occ. eigenvalues --  -10.23377 -10.23191 -10.23063 -10.21429 -10.21330
 Alpha  occ. eigenvalues --  -10.20667 -10.20526 -10.20390 -10.20082 -10.19924
 Alpha  occ. eigenvalues --  -10.19660 -10.19525 -10.19357 -10.19127 -10.18783
 Alpha  occ. eigenvalues --  -10.18186 -10.18173 -10.18034 -10.17798 -10.17748
 Alpha  occ. eigenvalues --  -10.17673  -1.07232  -1.04205  -1.00638  -0.93584
 Alpha  occ. eigenvalues --   -0.92794  -0.90770  -0.86128  -0.85441  -0.84728
 Alpha  occ. eigenvalues --   -0.82336  -0.79705  -0.78631  -0.78278  -0.77669
 Alpha  occ. eigenvalues --   -0.76710  -0.74639  -0.74177  -0.73672  -0.72491
 Alpha  occ. eigenvalues --   -0.69235  -0.69194  -0.68254  -0.66527  -0.63966
 Alpha  occ. eigenvalues --   -0.63001  -0.62858  -0.60622  -0.60365  -0.58198
 Alpha  occ. eigenvalues --   -0.57725  -0.56666  -0.55499  -0.54148  -0.53640
 Alpha  occ. eigenvalues --   -0.52785  -0.52000  -0.50867  -0.49917  -0.48760
 Alpha  occ. eigenvalues --   -0.48609  -0.48349  -0.47588  -0.47378  -0.47110
 Alpha  occ. eigenvalues --   -0.46516  -0.46196  -0.45244  -0.44835  -0.44550
 Alpha  occ. eigenvalues --   -0.44166  -0.43806  -0.43035  -0.42947  -0.42353
 Alpha  occ. eigenvalues --   -0.42233  -0.41719  -0.41104  -0.40727  -0.40296
 Alpha  occ. eigenvalues --   -0.39982  -0.39673  -0.39423  -0.38404  -0.38225
 Alpha  occ. eigenvalues --   -0.38107  -0.37672  -0.36971  -0.36673  -0.36370
 Alpha  occ. eigenvalues --   -0.36135  -0.35934  -0.35654  -0.35391  -0.35298
 Alpha  occ. eigenvalues --   -0.34869  -0.34175  -0.34113  -0.33370  -0.32542
 Alpha  occ. eigenvalues --   -0.30976  -0.30703  -0.30586  -0.30407  -0.29938
 Alpha  occ. eigenvalues --   -0.28813  -0.28368  -0.26374  -0.25802  -0.24886
 Alpha  occ. eigenvalues --   -0.24472  -0.21041  -0.19179
 Alpha virt. eigenvalues --   -0.08149  -0.06020  -0.03109  -0.01707   0.00111
 Alpha virt. eigenvalues --    0.01303   0.02769   0.04599   0.06396   0.07070
 Alpha virt. eigenvalues --    0.07212   0.08240   0.08624   0.08887   0.09181

 Mulliken charges:
               1
     1  C   -0.529837
     2  C    0.461455
     3  O   -0.437215
     4  C   -0.373350
     5  C   -0.061664
     6  C   -0.275927
     7  C   -0.279682
     8  C   -0.269778
     9  C   -0.160600
    10  C    0.339889
    11  N   -0.317734
    12  N   -0.434529
    13  C    0.340164
    14  C    0.085318
    15  C   -0.226005
    16  C   -0.174917
    17  C    0.142389
    18  C    0.282564
    19  C   -0.219278
    20  C   -0.227655
    21  C    0.386581
    22  C   -0.178036
    23  C    0.098137
    24  C    0.228830
    25  N   -0.476912
    26  C    0.042142
    27  N   -0.254867
    28  N   -0.440554
    29  C   -0.257954
    30  C    0.353609
    31  N   -0.713288
    32  C    0.053397
    33  C   -0.447435
    34  C   -0.446093
    35  C   -0.449002
    36  C   -0.289194
    37  H    0.172503
    38  H    0.181590
    39  H    0.163687
    40  H    0.146261
    41  H    0.158354
    42  H    0.149007
    43  H    0.162496
    44  H    0.117331
    45  H    0.136330
    46  H    0.138320
    47  H    0.177148
    48  H    0.133929
    49  H    0.128009
    50  H    0.125178
    51  H    0.147418
    52  H    0.153048
    53  H    0.150784
    54  H    0.180896
    55  H    0.181551
    56  H    0.130580
    57  H    0.375467
    58  H    0.144539
    59  H    0.158075
    60  H    0.153930
    61  H    0.144179
    62  H    0.146131
    63  H    0.157962
    64  H    0.145062
    65  H    0.195275
    66  H    0.193671
    67  H    0.154492
    68  H    0.123827
 Sum of Mulliken charges =  -0.00000

 Dipole moment (field-independent basis, Debye):
    X=              0.6604    Y=             -1.7762    Z=              2.1413  Tot=              2.8594
 Quadrupole moment (field-independent basis, Debye-Ang):
   XX=           -233.7153   YY=           -240.9972   ZZ=           -210.4019
   XY=            -48.9469   XZ=            -10.5095   YZ=              6.0733

 Normal termination of Gaussian 16 at Sat Nov  5 12:18:26 2022.
