 Gaussian 16, Revision B.01,
 Gaussian 16:  ES64L-G16RevB.01 20-Dec-2017

 -----------------------------
 #p b3lyp/6-31g(d) opt SCF=XQC
 -----------------------------

 ------------------------------
 Gaussian input prepared by ASE
 ------------------------------
 Symbolic Z-matrix:
 Charge =  0 Multiplicity = 1

 SCF Done:  E(RB3LYP) =  -1348.13196513     A.U. after   15 cycles
 SCF Done:  E(RB3LYP) =  -1348.13764424     A.U. after   13 cycles
 SCF Done:  E(RB3LYP) =  -1348.13697966     A.U. after   13 cycles
 SCF Done:  E(RB3LYP) =  -1348.13947066     A.U. after   12 cycles
 SCF Done:  E(RB3LYP) =  -1348.13956907     A.U. after   11 cycles
 SCF Done:  E(RB3LYP) =  -1348.13962081     A.U. after   11 cycles
 SCF Done:  E(RB3LYP) =  -1348.13965822     A.U. after   10 cycles
 SCF Done:  E(RB3LYP) =  -1348.13968048     A.U. after   10 cycles
 SCF Done:  E(RB3LYP) =  -1348.13969815     A.U. after   10 cycles
 SCF Done:  E(RB3LYP) =  -1348.13970944     A.U. after   10 cycles
 SCF Done:  E(RB3LYP) =  -1348.13972239     A.U. after    7 cycles
 SCF Done:  E(RB3LYP) =  -1348.13972260     A.U. after    7 cycles
 SCF Done:  E(RB3LYP) =  -1348.13972272     A.U. after    7 cycles
 SCF Done:  E(RB3LYP) =  -1348.13972278     A.U. after    6 cycles
 SCF Done:  E(RB3LYP) =  -1348.13972283     A.U. after    6 cycles
 SCF Done:  E(RB3LYP) =  -1348.13972287     A.U. after    6 cycles
 SCF Done:  E(RB3LYP) =  -1348.13972291     A.U. after    6 cycles
 SCF Done:  E(RB3LYP) =  -1348.13972293     A.U. after    6 cycles
 SCF Done:  E(RB3LYP) =  -1348.13972295     A.U. after    6 cycles
 SCF Done:  E(RB3LYP) =  -1348.13972296     A.U. after    6 cycles
 Optimization completed.
    -- Stationary point found.

                         Standard orientation:
 ---------------------------------------------------------------------
 Center     Atomic      Atomic             Coordinates (Angstroms)
 Number     Number       Type             X           Y           Z
 ---------------------------------------------------------------------
      1          6           0        6.336612    1.032959   -1.058874
      2          8           0        6.029322   -0.332476   -0.840693
      3          6           0        4.763724   -0.652260   -0.424512
      4          6           0        4.516860   -2.017242   -0.230185
      5          6           0        3.262654   -2.431855    0.195280
      6          6           0        2.231505   -1.511513    0.438093
      7          6           0        2.462915   -0.141544    0.235199
      8          6           0        3.739309    0.270514   -0.198424
      9         14           0        1.079614    1.134834    0.521093
     10          6           0        1.299632    2.409715   -0.867339
     11          6           0        1.319766    1.878159    2.245657
     12          6           0       -0.503985    0.063994    0.374237
     13          6           0       -0.360112   -1.328157    0.473022
     14          6           0       -1.462238   -2.148370    0.174588
     15          6           0       -2.703070   -1.661290   -0.197495
     16          6           0       -2.906509   -0.257824   -0.216764
     17          6           0       -1.792986    0.589489    0.065391
     18          6           0       -1.998440    2.046171    0.041298
     19          8           0       -1.213808    2.845553    0.544447
     20          6           0       -3.245062    2.528610   -0.678788
     21          6           0       -4.441694    1.668179   -0.298786
     22          7           0       -4.164573    0.252726   -0.504557
     23          6           0       -5.360279   -0.597247   -0.573672
     24          6           0       -5.151459   -1.986470    0.023359
     25          6           0       -3.851612   -2.586098   -0.518079
     26          6           0        0.903919   -2.013272    0.970132
     27          1           0        6.225339    1.626395   -0.141112
     28          1           0        7.380429    1.058688   -1.378692
     29          1           0        5.706938    1.470913   -1.845324
     30          1           0        5.315709   -2.727189   -0.422251
     31          1           0        3.079065   -3.494489    0.343492
     32          1           0        3.929512    1.325730   -0.361516
     33          1           0        2.346333    2.731731   -0.922543
     34          1           0        0.680667    3.295506   -0.718892
     35          1           0        1.048489    1.967123   -1.838998
     36          1           0        2.303953    2.356916    2.321457
     37          1           0        1.271995    1.103041    3.019633
     38          1           0        0.550202    2.626022    2.453248
     39          1           0       -1.339288   -3.229117    0.234445
     40          1           0       -3.417712    3.579920   -0.434671
     41          1           0       -3.065968    2.450271   -1.760925
     42          1           0       -5.309267    1.941276   -0.909794
     43          1           0       -4.717870    1.853643    0.755733
     44          1           0       -5.680892   -0.687337   -1.623253
     45          1           0       -6.170997   -0.085526   -0.038849
     46          1           0       -5.093436   -1.916740    1.116688
     47          1           0       -6.016034   -2.613830   -0.220836
     48          1           0       -3.943744   -2.723272   -1.606466
     49          1           0       -3.667774   -3.578890   -0.092584
     50          1           0        0.822661   -3.087774    0.768112
     51          1           0        0.918275   -1.932278    2.070432
 ---------------------------------------------------------------------

 The electronic state is 1-A.
 Alpha  occ. eigenvalues --  -66.10898 -19.16444 -19.12740 -14.36180 -10.26378
 Alpha  occ. eigenvalues --  -10.23679 -10.23402 -10.23218 -10.23101 -10.22997
 Alpha  occ. eigenvalues --  -10.19934 -10.19665 -10.19477 -10.19195 -10.18721
 Alpha  occ. eigenvalues --  -10.18700 -10.18591 -10.18140 -10.17642 -10.17410
 Alpha  occ. eigenvalues --  -10.17395 -10.17202 -10.17108 -10.15656 -10.14228
 Alpha  occ. eigenvalues --  -10.14189  -5.25190  -3.61135  -3.61078  -3.61006
 Alpha  occ. eigenvalues --   -1.04954  -1.02634  -0.96289  -0.85148  -0.83475
 Alpha  occ. eigenvalues --   -0.82124  -0.78228  -0.77152  -0.74763  -0.74287
 Alpha  occ. eigenvalues --   -0.73005  -0.70251  -0.68405  -0.67172  -0.66264
 Alpha  occ. eigenvalues --   -0.65794  -0.63133  -0.62577  -0.61884  -0.59135
 Alpha  occ. eigenvalues --   -0.56257  -0.54386  -0.52367  -0.51732  -0.51136
 Alpha  occ. eigenvalues --   -0.50132  -0.49128  -0.47604  -0.46690  -0.45665
 Alpha  occ. eigenvalues --   -0.45544  -0.44833  -0.44259  -0.44140  -0.42970
 Alpha  occ. eigenvalues --   -0.42565  -0.42089  -0.41658  -0.41324  -0.40886
 Alpha  occ. eigenvalues --   -0.40005  -0.39199  -0.39011  -0.38491  -0.38054
 Alpha  occ. eigenvalues --   -0.37659  -0.37225  -0.37013  -0.36497  -0.35901
 Alpha  occ. eigenvalues --   -0.35643  -0.35005  -0.34367  -0.33624  -0.33326
 Alpha  occ. eigenvalues --   -0.33192  -0.32566  -0.30189  -0.29356  -0.28296
 Alpha  occ. eigenvalues --   -0.27680  -0.26914  -0.24112  -0.23779  -0.23171
 Alpha  occ. eigenvalues --   -0.19967  -0.19027
 Alpha virt. eigenvalues --   -0.04877   0.00131   0.00948   0.02661   0.04425
 Alpha virt. eigenvalues --    0.07911   0.09267   0.09867   0.10244   0.11370
 Alpha virt. eigenvalues --    0.11543   0.11717   0.12258   0.12762   0.13547

 Mulliken charges:
               1
     1  C   -0.211418
     2  O   -0.513932
     3  C    0.389143
     4  C   -0.180683
     5  C   -0.174164
     6  C    0.125405
     7  C   -0.096719
     8  C   -0.265795
     9  Si   0.671993
    10  C   -0.684209
    11  C   -0.653749
    12  C   -0.172883
    13  C    0.132871
    14  C   -0.256029
    15  C    0.133169
    16  C    0.308964
    17  C    0.005326
    18  C    0.389655
    19  O   -0.487515
    20  C   -0.357895
    21  C   -0.149302
    22  N   -0.529632
    23  C   -0.127119
    24  C   -0.287664
    25  C   -0.344342
    26  C   -0.447856
    27  H    0.149372
    28  H    0.164218
    29  H    0.149665
    30  H    0.131224
    31  H    0.114695
    32  H    0.122760
    33  H    0.149596
    34  H    0.185004
    35  H    0.155971
    36  H    0.152817
    37  H    0.154565
    38  H    0.182293
    39  H    0.117505
    40  H    0.167286
    41  H    0.172523
    42  H    0.155522
    43  H    0.148179
    44  H    0.147999
    45  H    0.148697
    46  H    0.153346
    47  H    0.144424
    48  H    0.154584
    49  H    0.149985
    50  H    0.142520
    51  H    0.169629
 Sum of Mulliken charges =  -0.00000

 Dipole moment (field-independent basis, Debye):
    X=             -4.7155    Y=             -0.8701    Z=             -1.0733  Tot=              4.9137
 Quadrupole moment (field-independent basis, Debye-Ang):
   XX=           -133.0019   YY=           -155.0637   ZZ=           -161.0720
   XY=              8.8853   XZ=              1.6562   YZ=             -5.2494

 Normal termination of Gaussian 16 at Fri Nov  4 20:54:06 2022.
