 Gaussian 16, Revision B.01,
 Gaussian 16:  ES64L-G16RevB.01 20-Dec-2017

 -------------------------------------------------------------------
 #p b3lyp/6-31g(d) 6D 10F nosymm GFInput td=(50-50,nstate=2) SCF=XQC
 -------------------------------------------------------------------

 ------------------------------
 Gaussian input prepared by ASE
 ------------------------------
 Symbolic Z-matrix:
 Charge =  0 Multiplicity = 1

                          Input orientation:
 ---------------------------------------------------------------------
 Center     Atomic      Atomic             Coordinates (Angstroms)
 Number     Number       Type             X           Y           Z
 ---------------------------------------------------------------------
      1          6           0        6.578358    0.898588    0.454955
      2          8           0        6.129952    0.831286   -0.887000
      3          6           0        4.832908    0.454828   -1.117571
      4          6           0        4.444964    0.411074   -2.462734
      5          6           0        3.149412    0.035716   -2.789247
      6          6           0        2.214897   -0.304175   -1.799091
      7          6           0        2.588092   -0.252422   -0.446471
      8          6           0        3.905558    0.131284   -0.123893
      9         14           0        1.339223   -0.673338    0.927411
     10          6           0        1.706873    0.567268    2.315648
     11          6           0        1.631662   -2.469161    1.450696
     12          6           0       -0.343699   -0.407575    0.048097
     13          6           0       -0.344529   -0.354114   -1.353932
     14          6           0       -1.520889    0.034082   -2.018744
     15          6           0       -2.700304    0.353083   -1.368686
     16          6           0       -2.758605    0.219456    0.042066
     17          6           0       -1.567919   -0.155537    0.734260
     18          6           0       -1.622707   -0.290171    2.198358
     19          8           0       -0.766959   -0.878999    2.853181
     20          6           0       -2.803799    0.375271    2.882133
     21          6           0       -4.087167    0.093647    2.113806
     22          7           0       -3.953859    0.452141    0.707976
     23          6           0       -5.229352    0.615809   -0.001443
     24          6           0       -5.171808    0.173560   -1.461272
     25          6           0       -3.933259    0.774797   -2.129720
     26          6           0        0.836034   -0.775826   -2.215736
     27          1           0        6.516461   -0.078244    0.953754
     28          1           0        7.623416    1.211759    0.407246
     29          1           0        6.007225    1.633712    1.038221
     30          1           0        5.169315    0.677991   -3.226374
     31          1           0        2.855988    0.004690   -3.837007
     32          1           0        4.204996    0.177897    0.917463
     33          1           0        2.781692    0.585067    2.531918
     34          1           0        1.180032    0.324189    3.239298
     35          1           0        1.424453    1.581886    2.009262
     36          1           0        2.658645   -2.598573    1.814202
     37          1           0        1.494591   -3.153839    0.605381
     38          1           0        0.940121   -2.755701    2.247117
     39          1           0       -1.510114    0.092294   -3.106497
     40          1           0       -2.871007    0.018204    3.912978
     41          1           0       -2.619516    1.459161    2.903434
     42          1           0       -4.914115    0.672806    2.539631
     43          1           0       -4.356675   -0.974301    2.211441
     44          1           0       -5.543732    1.669544    0.056320
     45          1           0       -5.990308    0.029837    0.530290
     46          1           0       -5.121270   -0.920954   -1.516786
     47          1           0       -6.092838    0.486357   -1.965813
     48          1           0       -4.024697    1.871822   -2.137902
     49          1           0       -3.857698    0.459844   -3.176417
     50          1           0        0.647763   -0.457605   -3.247850
     51          1           0        0.844199   -1.878418   -2.256360
 ---------------------------------------------------------------------

 SCF Done:  E(RB3LYP) =  -1348.13972739     A.U. after   15 cycles

 Excitation energies and oscillator strengths:

 Excited state symmetry could not be determined.
 Excited State   1:      Triplet-?Sym    2.5345 eV  489.18 nm  f=0.0000  <S**2>=2.000
      97 -> 98         0.69863
 This state for optimization and/or second-order correction.
 Total Energy, E(TD-HF/TD-DFT) =  -1348.04658455
 Copying the excited state density for this state as the 1-particle RhoCI density.

 Excited state symmetry could not be determined.
 Excited State   2:      Triplet-?Sym    3.1438 eV  394.38 nm  f=0.0000  <S**2>=2.000
      93 -> 98        -0.35645
      94 -> 98         0.39427
      95 -> 98        -0.10155
      97 -> 99         0.31298
      97 ->100        -0.25946

 Excited state symmetry could not be determined.
 Excited State   3:      Singlet-?Sym    3.2785 eV  378.18 nm  f=0.0925  <S**2>=0.000
      97 -> 98         0.69813

 Excited state symmetry could not be determined.
 Excited State   4:      Singlet-?Sym    3.5935 eV  345.02 nm  f=0.0071  <S**2>=0.000
      96 -> 98         0.70404

 Alpha  occ. eigenvalues --  -66.10898 -19.16444 -19.12740 -14.36180 -10.26378
 Alpha  occ. eigenvalues --  -10.23679 -10.23402 -10.23218 -10.23101 -10.22997
 Alpha  occ. eigenvalues --  -10.19934 -10.19665 -10.19477 -10.19195 -10.18721
 Alpha  occ. eigenvalues --  -10.18700 -10.18591 -10.18140 -10.17642 -10.17410
 Alpha  occ. eigenvalues --  -10.17395 -10.17202 -10.17108 -10.15656 -10.14228
 Alpha  occ. eigenvalues --  -10.14189  -5.25190  -3.61135  -3.61078  -3.61006
 Alpha  occ. eigenvalues --   -1.04954  -1.02634  -0.96289  -0.85148  -0.83475
 Alpha  occ. eigenvalues --   -0.82124  -0.78228  -0.77152  -0.74763  -0.74287
 Alpha  occ. eigenvalues --   -0.73005  -0.70251  -0.68405  -0.67172  -0.66264
 Alpha  occ. eigenvalues --   -0.65794  -0.63133  -0.62577  -0.61884  -0.59135
 Alpha  occ. eigenvalues --   -0.56257  -0.54386  -0.52367  -0.51732  -0.51136
 Alpha  occ. eigenvalues --   -0.50132  -0.49128  -0.47604  -0.46690  -0.45665
 Alpha  occ. eigenvalues --   -0.45544  -0.44833  -0.44259  -0.44140  -0.42970
 Alpha  occ. eigenvalues --   -0.42565  -0.42089  -0.41658  -0.41324  -0.40886
 Alpha  occ. eigenvalues --   -0.40005  -0.39199  -0.39011  -0.38491  -0.38054
 Alpha  occ. eigenvalues --   -0.37659  -0.37225  -0.37013  -0.36497  -0.35901
 Alpha  occ. eigenvalues --   -0.35643  -0.35005  -0.34367  -0.33624  -0.33326
 Alpha  occ. eigenvalues --   -0.33192  -0.32566  -0.30189  -0.29356  -0.28296
 Alpha  occ. eigenvalues --   -0.27680  -0.26914  -0.24112  -0.23779  -0.23171
 Alpha  occ. eigenvalues --   -0.19967  -0.19027
 Alpha virt. eigenvalues --   -0.04877   0.00131   0.00948   0.02661   0.04425
 Alpha virt. eigenvalues --    0.07911   0.09267   0.09867   0.10244   0.11370
 Alpha virt. eigenvalues --    0.11542   0.11717   0.12258   0.12762   0.13547

 Mulliken charges:
               1
     1  C   -0.211413
     2  O   -0.513932
     3  C    0.389138
     4  C   -0.180685
     5  C   -0.174159
     6  C    0.125406
     7  C   -0.096704
     8  C   -0.265799
     9  Si   0.671960
    10  C   -0.684189
    11  C   -0.653759
    12  C   -0.172882
    13  C    0.132882
    14  C   -0.256030
    15  C    0.133160
    16  C    0.308962
    17  C    0.005340
    18  C    0.389644
    19  O   -0.487514
    20  C   -0.357892
    21  C   -0.149308
    22  N   -0.529611
    23  C   -0.127133
    24  C   -0.287662
    25  C   -0.344341
    26  C   -0.447862
    27  H    0.149371
    28  H    0.164217
    29  H    0.149665
    30  H    0.131224
    31  H    0.114695
    32  H    0.122760
    33  H    0.149595
    34  H    0.185001
    35  H    0.155975
    36  H    0.152816
    37  H    0.154563
    38  H    0.182295
    39  H    0.117505
    40  H    0.167286
    41  H    0.172523
    42  H    0.155522
    43  H    0.148179
    44  H    0.148001
    45  H    0.148699
    46  H    0.153346
    47  H    0.144425
    48  H    0.154583
    49  H    0.149984
    50  H    0.142521
    51  H    0.169630
 Sum of Mulliken charges =  -0.00000

 Dipole moment (field-independent basis, Debye):
    X=             -4.7653    Y=              1.1705    Z=             -0.2570  Tot=              4.9137
 Quadrupole moment (field-independent basis, Debye-Ang):
   XX=           -132.9426   YY=           -162.1987   ZZ=           -155.5378
   XY=             -1.8722   XZ=              6.4064   YZ=              4.6849

 Normal termination of Gaussian 16 at Sat Nov  5 12:24:34 2022.
