 Gaussian 16, Revision B.01,
 Gaussian 16:  ES64L-G16RevB.01 20-Dec-2017

 -----------------------------
 #p b3lyp/6-31g(d) opt SCF=XQC
 -----------------------------

 ------------------------------
 Gaussian input prepared by ASE
 ------------------------------
 Symbolic Z-matrix:
 Charge =  0 Multiplicity = 1

 SCF Done:  E(RB3LYP) =  -1002.19971125     A.U. after   14 cycles
 SCF Done:  E(RB3LYP) =  -1002.20406724     A.U. after   12 cycles
 SCF Done:  E(RB3LYP) =  -1002.20455199     A.U. after   11 cycles
 SCF Done:  E(RB3LYP) =  -1002.20473968     A.U. after   11 cycles
 SCF Done:  E(RB3LYP) =  -1002.20478300     A.U. after   11 cycles
 SCF Done:  E(RB3LYP) =  -1002.20480461     A.U. after   11 cycles
 SCF Done:  E(RB3LYP) =  -1002.20483676     A.U. after   11 cycles
 SCF Done:  E(RB3LYP) =  -1002.20488054     A.U. after   11 cycles
 SCF Done:  E(RB3LYP) =  -1002.20490461     A.U. after   11 cycles
 SCF Done:  E(RB3LYP) =  -1002.20489812     A.U. after   10 cycles
 SCF Done:  E(RB3LYP) =  -1002.20491408     A.U. after   11 cycles
 SCF Done:  E(RB3LYP) =  -1002.20492060     A.U. after   11 cycles
 SCF Done:  E(RB3LYP) =  -1002.20492162     A.U. after    8 cycles
 SCF Done:  E(RB3LYP) =  -1002.20492345     A.U. after    9 cycles
 SCF Done:  E(RB3LYP) =  -1002.20492356     A.U. after    8 cycles
 SCF Done:  E(RB3LYP) =  -1002.20492361     A.U. after    7 cycles
 Optimization completed.
    -- Stationary point found.

                         Standard orientation:
 ---------------------------------------------------------------------
 Center     Atomic      Atomic             Coordinates (Angstroms)
 Number     Number       Type             X           Y           Z
 ---------------------------------------------------------------------
      1          6           0        6.658025   -2.208534   -0.192248
      2          6           0        5.351084   -1.582771   -0.648108
      3          8           0        4.641061   -1.172633    0.517966
      4          6           0        3.416730   -0.585112    0.368292
      5          6           0        2.794916   -0.335139   -0.859615
      6          6           0        1.536209    0.273069   -0.886636
      7          6           0        0.874051    0.644711    0.286766
      8          6           0       -0.515509    1.268157    0.287918
      9          6           0       -1.603417    0.208099    0.071301
     10          6           0       -1.652545   -0.593446   -1.082868
     11          6           0       -2.645889   -1.546239   -1.259690
     12          6           0       -3.625696   -1.738060   -0.274287
     13          8           0       -4.556728   -2.702579   -0.541316
     14          6           0       -5.561406   -2.946026    0.428737
     15          6           0       -3.589980   -0.957423    0.883679
     16          6           0       -2.586016    0.004093    1.041815
     17          8           0       -0.756632    1.965005    1.545743
     18          6           0       -1.244397    3.140030    0.868912
     19          6           0       -0.732203    2.645287   -0.500389
     20          6           0        0.564405    3.357883   -0.897335
     21          6           0       -1.742225    2.674901   -1.644776
     22          6           0        1.518389    0.395051    1.508567
     23          6           0        2.766896   -0.211514    1.553060
     24          1           0        7.254850   -1.485489    0.372536
     25          1           0        6.467115   -3.073899    0.450092
     26          1           0        7.240452   -2.539640   -1.058888
     27          1           0        5.538284   -0.714997   -1.297452
     28          1           0        4.748843   -2.304909   -1.218442
     29          1           0        3.274540   -0.600466   -1.794790
     30          1           0        1.084139    0.466122   -1.855573
     31          1           0       -0.902778   -0.481765   -1.859317
     32          1           0       -2.681134   -2.161421   -2.153651
     33          1           0       -5.130603   -3.275359    1.383801
     34          1           0       -6.185542   -3.743679    0.021149
     35          1           0       -6.180382   -2.055563    0.603171
     36          1           0       -4.327905   -1.084705    1.667966
     37          1           0       -2.556583    0.602633    1.945374
     38          1           0       -0.785524    4.054149    1.265190
     39          1           0       -2.338194    3.222092    0.942125
     40          1           0        1.298144    3.341745   -0.085829
     41          1           0        1.030678    2.904602   -1.778291
     42          1           0        0.344663    4.405707   -1.139099
     43          1           0       -1.357538    2.160702   -2.533932
     44          1           0       -2.689968    2.203852   -1.370673
     45          1           0       -1.948085    3.713909   -1.932463
     46          1           0        1.029211    0.691109    2.430045
     47          1           0        3.263168   -0.405185    2.499244
 ---------------------------------------------------------------------

 The electronic state is 1-A.
 Alpha  occ. eigenvalues --  -19.17264 -19.16934 -19.13792 -10.24541 -10.24118
 Alpha  occ. eigenvalues --  -10.23961 -10.23911 -10.23751 -10.22470 -10.20118
 Alpha  occ. eigenvalues --  -10.18596 -10.18345 -10.18245 -10.18223 -10.18215
 Alpha  occ. eigenvalues --  -10.18184 -10.18027 -10.17851 -10.17829 -10.17813
 Alpha  occ. eigenvalues --  -10.17599 -10.17408 -10.17313  -1.05818  -1.05594
 Alpha  occ. eigenvalues --   -1.03672  -0.84909  -0.84089  -0.79603  -0.77803
 Alpha  occ. eigenvalues --   -0.75954  -0.74083  -0.73862  -0.72863  -0.69846
 Alpha  occ. eigenvalues --   -0.68317  -0.66554  -0.65076  -0.63367  -0.60336
 Alpha  occ. eigenvalues --   -0.59670  -0.57947  -0.57582  -0.53628  -0.52996
 Alpha  occ. eigenvalues --   -0.51789  -0.49305  -0.48220  -0.48084  -0.46668
 Alpha  occ. eigenvalues --   -0.46564  -0.46369  -0.45145  -0.44683  -0.44265
 Alpha  occ. eigenvalues --   -0.43313  -0.41660  -0.41457  -0.41281  -0.40704
 Alpha  occ. eigenvalues --   -0.40306  -0.39509  -0.39363  -0.38830  -0.38641
 Alpha  occ. eigenvalues --   -0.38027  -0.37482  -0.36988  -0.36030  -0.35427
 Alpha  occ. eigenvalues --   -0.34872  -0.34655  -0.33291  -0.32796  -0.31991
 Alpha  occ. eigenvalues --   -0.31667  -0.30289  -0.29431  -0.28939  -0.24998
 Alpha  occ. eigenvalues --   -0.24385  -0.24060  -0.21335  -0.20280
 Alpha virt. eigenvalues --   -0.00040   0.00616   0.01405   0.02958   0.07286
 Alpha virt. eigenvalues --    0.09204   0.10045   0.10244   0.10880   0.11618
 Alpha virt. eigenvalues --    0.12793   0.13143   0.13400   0.14552   0.14671

 Mulliken charges:
               1
     1  C   -0.456570
     2  C   -0.026950
     3  O   -0.519638
     4  C    0.382799
     5  C   -0.204357
     6  C   -0.189528
     7  C    0.123339
     8  C    0.180603
     9  C    0.124266
    10  C   -0.166973
    11  C   -0.179578
    12  C    0.378040
    13  O   -0.509417
    14  C   -0.213267
    15  C   -0.196115
    16  C   -0.190983
    17  O   -0.544823
    18  C   -0.013210
    19  C    0.050246
    20  C   -0.466887
    21  C   -0.470542
    22  C   -0.173654
    23  C   -0.177467
    24  H    0.163122
    25  H    0.163723
    26  H    0.146915
    27  H    0.138285
    28  H    0.139741
    29  H    0.129417
    30  H    0.125855
    31  H    0.121608
    32  H    0.134229
    33  H    0.152062
    34  H    0.167477
    35  H    0.149959
    36  H    0.128444
    37  H    0.151365
    38  H    0.136519
    39  H    0.129963
    40  H    0.163702
    41  H    0.145275
    42  H    0.138996
    43  H    0.142517
    44  H    0.162397
    45  H    0.141567
    46  H    0.152804
    47  H    0.134727
 Sum of Mulliken charges =  -0.00000

 Dipole moment (field-independent basis, Debye):
    X=             -0.2825    Y=              0.1489    Z=             -1.4344  Tot=              1.4695
 Quadrupole moment (field-independent basis, Debye-Ang):
   XX=           -116.7290   YY=           -130.7523   ZZ=           -133.1138
   XY=             -1.2812   XZ=            -11.8614   YZ=             -1.8886

 1\1\GINC-NODE92\FOpt\RB3LYP\6-31G(d)\C20H24O3\WYKGROUP\04-Nov-2022\0\\
 #p b3lyp/6-31g(d) opt SCF=XQC\\Gaussian input prepared by ASE\\0,1\C,-
 6.6424355819,1.8593635835,0.8062945123\C,-5.3433981163,1.4210991726,0.
 1521474705\O,-4.5352856189,0.8203061302,1.161144665\C,-3.2988425351,0.
 350745756,0.8186689577\C,-2.7538962561,0.3992291483,-0.4688005385\C,-1
 .4736467634,-0.1140048653,-0.6980206324\C,-0.7144798072,-0.6815887287,
 0.3290910995\C,0.6988370726,-1.2077713057,0.1164204592\C,1.7191611014,
 -0.0629985371,0.0651936479\C,1.6504336795,0.9626404925,-0.8941469451\C

 Normal termination of Gaussian 16 at Fri Nov  4 20:23:46 2022.
