 Gaussian 16, Revision B.01,
 Gaussian 16:  ES64L-G16RevB.01 20-Dec-2017

 -------------------------------------------------------------------
 #p b3lyp/6-31g(d) 6D 10F nosymm GFInput td=(50-50,nstate=2) SCF=XQC
 -------------------------------------------------------------------

 ------------------------------
 Gaussian input prepared by ASE
 ------------------------------
 Symbolic Z-matrix:
 Charge =  0 Multiplicity = 1

                          Input orientation:
 ---------------------------------------------------------------------
 Center     Atomic      Atomic             Coordinates (Angstroms)
 Number     Number       Type             X           Y           Z
 ---------------------------------------------------------------------
      1          6           0       -6.642436    1.859364    0.806295
      2          6           0       -5.343398    1.421099    0.152147
      3          8           0       -4.535286    0.820306    1.161145
      4          6           0       -3.298843    0.350746    0.818669
      5          6           0       -2.753896    0.399229   -0.468801
      6          6           0       -1.473647   -0.114005   -0.698021
      7          6           0       -0.714480   -0.681589    0.329091
      8          6           0        0.698837   -1.207771    0.116420
      9          6           0        1.719161   -0.062999    0.065194
     10          6           0        1.650434    0.962640   -0.894147
     11          6           0        2.584231    1.988781   -0.923665
     12          6           0        3.620929    2.029335    0.020501
     13          8           0        4.485768    3.081986   -0.090868
     14          6           0        5.543807    3.177616    0.847778
     15          6           0        3.702329    1.024117    0.987179
     16          6           0        2.757038   -0.007283    0.997248
     17          8           0        1.059270   -2.135485    1.181923
     18          6           0        1.551674   -3.112780    0.244302
     19          6           0        0.922563   -2.375321   -0.956727
     20          6           0       -0.364685   -3.065618   -1.418285
     21          6           0        1.850115   -2.105970   -2.138988
     22          6           0       -1.282284   -0.730448    1.611866
     23          6           0       -2.551070   -0.221847    1.857182
     24          1           0       -7.164419    1.000402    1.239530
     25          1           0       -6.446783    2.581920    1.604755
     26          1           0       -7.298775    2.328285    0.065183
     27          1           0       -5.535734    0.697871   -0.653874
     28          1           0       -4.816366    2.280653   -0.287013
     29          1           0       -3.309589    0.824312   -1.296750
     30          1           0       -1.082289   -0.073945   -1.710794
     31          1           0        0.853953    0.970541   -1.631068
     32          1           0        2.528461    2.777502   -1.667752
     33          1           0        5.166426    3.274759    1.874591
     34          1           0        6.100615    4.078334    0.582074
     35          1           0        6.213638    2.308813    0.793103
     36          1           0        4.486844    1.029113    1.735745
     37          1           0        2.818511   -0.781408    1.753877
     38          1           0        1.164091   -4.115010    0.464593
     39          1           0        2.650521   -3.143014    0.233889
     40          1           0       -1.039659   -3.262408   -0.579919
     41          1           0       -0.911881   -2.467524   -2.154368
     42          1           0       -0.114671   -4.025214   -1.888751
     43          1           0        1.380852   -1.441838   -2.874994
     44          1           0        2.792173   -1.646702   -1.827804
     45          1           0        2.082671   -3.048231   -2.651572
     46          1           0       -0.716624   -1.182115    2.419388
     47          1           0       -2.988097   -0.259200    2.850494
 ---------------------------------------------------------------------

 SCF Done:  E(RB3LYP) =  -1002.20491878     A.U. after   14 cycles

 Excitation energies and oscillator strengths:

 Excited state symmetry could not be determined.
 Excited State   1:      Triplet-?Sym    3.6218 eV  342.32 nm  f=0.0000  <S**2>=2.000
      81 -> 86         0.13864
      81 -> 87        -0.16844
      82 -> 85         0.26218
      82 -> 87        -0.10705
      83 -> 88        -0.28373
      84 -> 85         0.28894
      84 -> 86         0.37535
      84 -> 87         0.17226
 This state for optimization and/or second-order correction.
 Total Energy, E(TD-HF/TD-DFT) =  -1002.07181889
 Copying the excited state density for this state as the 1-particle RhoCI density.

 Excited state symmetry could not be determined.
 Excited State   2:      Triplet-?Sym    3.7042 eV  334.71 nm  f=0.0000  <S**2>=2.000
      81 -> 85        -0.25686
      81 -> 86         0.16674
      82 -> 86        -0.13517
      82 -> 87         0.20593
      83 -> 85        -0.18065
      83 -> 86        -0.34417
      83 -> 87        -0.14807
      84 -> 87         0.10005
      84 -> 88         0.36609

 Excited state symmetry could not be determined.
 Excited State   3:      Singlet-?Sym    4.8611 eV  255.05 nm  f=0.0061  <S**2>=0.000
      81 -> 88         0.10984
      82 -> 86        -0.14543
      84 -> 85         0.65301
      84 -> 86        -0.12263

 Excited state symmetry could not be determined.
 Excited State   4:      Singlet-?Sym    5.0532 eV  245.36 nm  f=0.0761  <S**2>=0.000
      81 -> 85        -0.10063
      81 -> 86        -0.16551
      81 -> 87        -0.12193
      82 -> 88         0.15346
      83 -> 85         0.36750
      83 -> 86        -0.10542
      84 -> 86         0.45605
      84 -> 87        -0.22014

 Alpha  occ. eigenvalues --  -19.17264 -19.16934 -19.13792 -10.24541 -10.24118
 Alpha  occ. eigenvalues --  -10.23961 -10.23911 -10.23751 -10.22470 -10.20118
 Alpha  occ. eigenvalues --  -10.18596 -10.18346 -10.18245 -10.18223 -10.18215
 Alpha  occ. eigenvalues --  -10.18185 -10.18028 -10.17851 -10.17829 -10.17813
 Alpha  occ. eigenvalues --  -10.17599 -10.17408 -10.17313  -1.05818  -1.05594
 Alpha  occ. eigenvalues --   -1.03672  -0.84909  -0.84089  -0.79603  -0.77803
 Alpha  occ. eigenvalues --   -0.75954  -0.74083  -0.73862  -0.72863  -0.69846
 Alpha  occ. eigenvalues --   -0.68317  -0.66554  -0.65076  -0.63367  -0.60336
 Alpha  occ. eigenvalues --   -0.59670  -0.57947  -0.57582  -0.53628  -0.52996
 Alpha  occ. eigenvalues --   -0.51789  -0.49305  -0.48220  -0.48084  -0.46668
 Alpha  occ. eigenvalues --   -0.46564  -0.46369  -0.45145  -0.44683  -0.44265
 Alpha  occ. eigenvalues --   -0.43313  -0.41660  -0.41457  -0.41281  -0.40704
 Alpha  occ. eigenvalues --   -0.40306  -0.39509  -0.39363  -0.38830  -0.38641
 Alpha  occ. eigenvalues --   -0.38027  -0.37482  -0.36988  -0.36030  -0.35427
 Alpha  occ. eigenvalues --   -0.34872  -0.34655  -0.33291  -0.32796  -0.31992
 Alpha  occ. eigenvalues --   -0.31667  -0.30289  -0.29431  -0.28939  -0.24998
 Alpha  occ. eigenvalues --   -0.24385  -0.24060  -0.21335  -0.20280
 Alpha virt. eigenvalues --   -0.00040   0.00616   0.01405   0.02958   0.07286
 Alpha virt. eigenvalues --    0.09204   0.10045   0.10244   0.10880   0.11618
 Alpha virt. eigenvalues --    0.12793   0.13143   0.13400   0.14552   0.14671

 Mulliken charges:
               1
     1  C   -0.456570
     2  C   -0.026950
     3  O   -0.519636
     4  C    0.382788
     5  C   -0.204347
     6  C   -0.189533
     7  C    0.123344
     8  C    0.180668
     9  C    0.124228
    10  C   -0.166971
    11  C   -0.179576
    12  C    0.377992
    13  O   -0.509405
    14  C   -0.213262
    15  C   -0.196088
    16  C   -0.190975
    17  O   -0.544833
    18  C   -0.013213
    19  C    0.050242
    20  C   -0.466888
    21  C   -0.470550
    22  C   -0.173667
    23  C   -0.177466
    24  H    0.163122
    25  H    0.163723
    26  H    0.146915
    27  H    0.138286
    28  H    0.139740
    29  H    0.129415
    30  H    0.125852
    31  H    0.121609
    32  H    0.134231
    33  H    0.152062
    34  H    0.167475
    35  H    0.149959
    36  H    0.128446
    37  H    0.151365
    38  H    0.136519
    39  H    0.129963
    40  H    0.163701
    41  H    0.145275
    42  H    0.138996
    43  H    0.142519
    44  H    0.162397
    45  H    0.141567
    46  H    0.152805
    47  H    0.134727
 Sum of Mulliken charges =  -0.00000

 Dipole moment (field-independent basis, Debye):
    X=              0.1877    Y=              0.1699    Z=             -1.4476  Tot=              1.4695
 Quadrupole moment (field-independent basis, Debye-Ang):
   XX=           -115.0363   YY=           -131.9949   ZZ=           -133.8926
   XY=             -2.6099   XZ=             10.0375   YZ=              2.9745

 Normal termination of Gaussian 16 at Sat Nov  5 12:07:14 2022.
