 Gaussian 16, Revision B.01,
 Gaussian 16:  ES64L-G16RevB.01 20-Dec-2017

 -------------------------------------------------------------------
 #p b3lyp/6-31g(d) 6D 10F nosymm GFInput td=(50-50,nstate=2) SCF=XQC
 -------------------------------------------------------------------

 ------------------------------
 Gaussian input prepared by ASE
 ------------------------------
 Symbolic Z-matrix:
 Charge =  0 Multiplicity = 1

                          Input orientation:
 ---------------------------------------------------------------------
 Center     Atomic      Atomic             Coordinates (Angstroms)
 Number     Number       Type             X           Y           Z
 ---------------------------------------------------------------------
      1          6           0       -6.180661    3.814944    1.311836
      2          7           0       -4.979606    3.199454    1.840496
      3          6           0       -4.374361    2.109760    1.239807
      4          6           0       -4.694292    1.698690   -0.068556
      5          6           0       -4.031212    0.623103   -0.652904
      6          6           0       -3.039031   -0.095500    0.032442
      7          6           0       -2.331456   -1.231132   -0.585987
      8          6           0       -0.963688   -1.457238   -0.705747
      9          6           0        0.109369   -0.540008   -0.278844
     10          6           0        1.200964   -0.972690    0.496229
     11          6           0        2.194564   -0.075045    0.872517
     12          6           0        2.060194    1.254630    0.456293
     13          8           0        2.947197    2.241591    0.832160
     14          6           0        4.283669    1.964380    1.013805
     15          6           0        4.911410    2.553482    2.113501
     16          6           0        6.280648    2.372481    2.303905
     17          6           0        7.024834    1.603384    1.410003
     18          6           0        6.385562    1.022827    0.311064
     19          6           0        7.192862    0.250650   -0.698926
     20          9           0        6.444684   -0.673343   -1.343888
     21          9           0        8.228941   -0.397693   -0.122072
     22          9           0        7.716778    1.061844   -1.646448
     23          6           0        5.017698    1.203104    0.101311
     24          7           0        1.043493    1.700100   -0.268791
     25          6           0        0.100269    0.822737   -0.623069
     26          6           0       -0.817015   -2.743118   -1.342896
     27          6           0        0.221268   -3.573127   -1.831204
     28          7           0        1.552951   -3.252212   -1.730980
     29          7           0       -0.065217   -4.757606   -2.393850
     30          6           0       -1.355125   -5.113694   -2.498069
     31          7           0       -2.431325   -4.419084   -2.135599
     32          6           0       -2.115661   -3.242926   -1.574494
     33          7           0       -3.024209   -2.319996   -1.119960
     34          6           0       -4.460190   -2.553951   -1.099467
     35          6           0       -2.730148    0.317129    1.342916
     36          6           0       -3.376872    1.391342    1.932937
     37          1           0       -6.497681    4.606145    1.995629
     38          1           0       -5.981815    4.279154    0.338738
     39          1           0       -7.014274    3.105068    1.187828
     40          1           0       -4.872505    3.244961    2.843819
     41          1           0       -5.452432    2.226040   -0.637457
     42          1           0       -4.282322    0.348771   -1.673988
     43          1           0        1.262767   -2.010014    0.812031
     44          1           0        3.033549   -0.390518    1.482568
     45          1           0        4.316008    3.146614    2.799985
     46          1           0        6.767844    2.828122    3.160941
     47          1           0        8.087356    1.449774    1.563352
     48          1           0        4.529485    0.758695   -0.758041
     49          1           0       -0.714332    1.220608   -1.223426
     50          1           0        1.802903   -2.275367   -1.674439
     51          1           0        2.160447   -3.830017   -2.298162
     52          1           0       -1.538312   -6.087112   -2.949149
     53          1           0       -4.973248   -1.983049   -1.880370
     54          1           0       -4.873552   -2.273109   -0.127705
     55          1           0       -4.619099   -3.617670   -1.281922
     56          1           0       -1.974024   -0.222847    1.904844
     57          1           0       -3.114044    1.688483    2.946139
 ---------------------------------------------------------------------

 SCF Done:  E(RB3LYP) =  -1706.70206553     A.U. after   14 cycles

 Excitation energies and oscillator strengths:

 Excited state symmetry could not be determined.
 Excited State   1:      Triplet-?Sym    2.8174 eV  440.07 nm  f=0.0000  <S**2>=2.000
     126 ->134        -0.11357
     127 ->128         0.33977
     127 ->129         0.50593
     127 ->131         0.24940
 This state for optimization and/or second-order correction.
 Total Energy, E(TD-HF/TD-DFT) =  -1706.59852830
 Copying the excited state density for this state as the 1-particle RhoCI density.

 Excited state symmetry could not be determined.
 Excited State   2:      Triplet-?Sym    3.3411 eV  371.09 nm  f=0.0000  <S**2>=2.000
     125 ->128        -0.10871
     125 ->130         0.12104
     126 ->129         0.12417
     127 ->128         0.44518
     127 ->129        -0.19528
     127 ->130        -0.39421
     127 ->131        -0.10588

 Excited state symmetry could not be determined.
 Excited State   3:      Singlet-?Sym    3.5666 eV  347.62 nm  f=0.1153  <S**2>=0.000
     127 ->128         0.66024
     127 ->130        -0.22865

 Excited state symmetry could not be determined.
 Excited State   4:      Singlet-?Sym    3.7708 eV  328.80 nm  f=0.2499  <S**2>=0.000
     127 ->128         0.11010
     127 ->129         0.62618
     127 ->130         0.28259

 Alpha  occ. eigenvalues --  -24.72635 -24.72522 -24.71933 -19.19723 -14.38423
 Alpha  occ. eigenvalues --  -14.35672 -14.34788 -14.33232 -14.31490 -14.30960
 Alpha  occ. eigenvalues --  -10.43399 -10.28621 -10.26816 -10.26474 -10.24272
 Alpha  occ. eigenvalues --  -10.23613 -10.23530 -10.22814 -10.22732 -10.22613
 Alpha  occ. eigenvalues --  -10.22329 -10.22170 -10.21257 -10.21152 -10.21148
 Alpha  occ. eigenvalues --  -10.20923 -10.20898 -10.20776 -10.20597 -10.19716
 Alpha  occ. eigenvalues --  -10.19647 -10.19491 -10.19353 -10.18987 -10.18914
 Alpha  occ. eigenvalues --  -10.18634  -1.30117  -1.21599  -1.21088  -1.09308
 Alpha  occ. eigenvalues --   -1.00234  -0.96313  -0.94714  -0.94305  -0.91762
 Alpha  occ. eigenvalues --   -0.87781  -0.85342  -0.84455  -0.83079  -0.80161
 Alpha  occ. eigenvalues --   -0.79393  -0.77586  -0.76954  -0.75420  -0.75014
 Alpha  occ. eigenvalues --   -0.72638  -0.70508  -0.69957  -0.68956  -0.66071
 Alpha  occ. eigenvalues --   -0.64682  -0.64025  -0.63160  -0.62445  -0.61615
 Alpha  occ. eigenvalues --   -0.60396  -0.59546  -0.57934  -0.57900  -0.57560
 Alpha  occ. eigenvalues --   -0.56586  -0.55078  -0.53767  -0.53144  -0.52299
 Alpha  occ. eigenvalues --   -0.51229  -0.50685  -0.50448  -0.48830  -0.48745
 Alpha  occ. eigenvalues --   -0.47762  -0.47113  -0.46841  -0.45883  -0.45687
 Alpha  occ. eigenvalues --   -0.45544  -0.45365  -0.45189  -0.45009  -0.44138
 Alpha  occ. eigenvalues --   -0.43051  -0.42797  -0.42736  -0.42373  -0.42165
 Alpha  occ. eigenvalues --   -0.41929  -0.41767  -0.41395  -0.41305  -0.40695
 Alpha  occ. eigenvalues --   -0.40295  -0.39940  -0.39790  -0.39609  -0.38537
 Alpha  occ. eigenvalues --   -0.37963  -0.37767  -0.37416  -0.36554  -0.36483
 Alpha  occ. eigenvalues --   -0.35767  -0.34634  -0.34394  -0.33396  -0.30462
 Alpha  occ. eigenvalues --   -0.29393  -0.28515  -0.27739  -0.27304  -0.26265
 Alpha  occ. eigenvalues --   -0.25561  -0.25426  -0.24609  -0.24495  -0.23045
 Alpha  occ. eigenvalues --   -0.21233  -0.18569
 Alpha virt. eigenvalues --   -0.03649  -0.02942  -0.02343  -0.01729  -0.00444
 Alpha virt. eigenvalues --   -0.00230   0.01270   0.01998   0.06668   0.07284
 Alpha virt. eigenvalues --    0.08620   0.08864   0.09610   0.10430   0.10771

 Mulliken charges:
               1
     1  C   -0.303321
     2  N   -0.642850
     3  C    0.369498
     4  C   -0.191908
     5  C   -0.174197
     6  C    0.067107
     7  C    0.218123
     8  C   -0.086814
     9  C    0.031019
    10  C   -0.156367
    11  C   -0.186917
    12  C    0.485561
    13  O   -0.537371
    14  C    0.345124
    15  C   -0.158131
    16  C   -0.142054
    17  C   -0.158516
    18  C   -0.014325
    19  C    0.784993
    20  F   -0.272164
    21  F   -0.270022
    22  F   -0.258434
    23  C   -0.198052
    24  N   -0.454325
    25  C    0.009233
    26  C    0.080787
    27  C    0.411123
    28  N   -0.778269
    29  N   -0.499714
    30  C    0.163935
    31  N   -0.509738
    32  C    0.475512
    33  N   -0.546639
    34  C   -0.333429
    35  C   -0.156547
    36  C   -0.196264
    37  H    0.159262
    38  H    0.168771
    39  H    0.151492
    40  H    0.320355
    41  H    0.128541
    42  H    0.133376
    43  H    0.167043
    44  H    0.155689
    45  H    0.153945
    46  H    0.146495
    47  H    0.155048
    48  H    0.164871
    49  H    0.158322
    50  H    0.337302
    51  H    0.339747
    52  H    0.139356
    53  H    0.165154
    54  H    0.175322
    55  H    0.203570
    56  H    0.139157
    57  H    0.121540
 Sum of Mulliken charges =  -0.00000

 Dipole moment (field-independent basis, Debye):
    X=             -3.5408    Y=              3.3444    Z=              4.2967  Tot=              6.4949
 Quadrupole moment (field-independent basis, Debye-Ang):
   XX=           -178.2081   YY=           -216.5320   ZZ=           -192.2410
   XY=            -13.7766   XZ=              4.3287   YZ=              4.5877

 Normal termination of Gaussian 16 at Sat Nov  5 12:18:29 2022.
