 Gaussian 16, Revision B.01,
 Gaussian 16:  ES64L-G16RevB.01 20-Dec-2017

 -----------------------------
 #p b3lyp/6-31g(d) opt SCF=XQC
 -----------------------------

 ------------------------------
 Gaussian input prepared by ASE
 ------------------------------
 Symbolic Z-matrix:
 Charge =  0 Multiplicity = 1

 SCF Done:  E(RB3LYP) =  -1706.69373829     A.U. after   14 cycles
 SCF Done:  E(RB3LYP) =  -1706.70067411     A.U. after   13 cycles
 SCF Done:  E(RB3LYP) =  -1706.70154544     A.U. after   12 cycles
 SCF Done:  E(RB3LYP) =  -1706.70176128     A.U. after   11 cycles
 SCF Done:  E(RB3LYP) =  -1706.70184328     A.U. after   11 cycles
 SCF Done:  E(RB3LYP) =  -1706.70188313     A.U. after   10 cycles
 SCF Done:  E(RB3LYP) =  -1706.70191362     A.U. after   10 cycles
 SCF Done:  E(RB3LYP) =  -1706.70196233     A.U. after   11 cycles
 SCF Done:  E(RB3LYP) =  -1706.70198111     A.U. after   11 cycles
 SCF Done:  E(RB3LYP) =  -1706.70199352     A.U. after   10 cycles
 SCF Done:  E(RB3LYP) =  -1706.70205769     A.U. after   10 cycles
 SCF Done:  E(RB3LYP) =  -1706.70206064     A.U. after   10 cycles
 SCF Done:  E(RB3LYP) =  -1706.70206208     A.U. after    9 cycles
 SCF Done:  E(RB3LYP) =  -1706.70206305     A.U. after    9 cycles
 SCF Done:  E(RB3LYP) =  -1706.70206343     A.U. after    8 cycles
 SCF Done:  E(RB3LYP) =  -1706.70206395     A.U. after    8 cycles
 SCF Done:  E(RB3LYP) =  -1706.70206433     A.U. after    8 cycles
 SCF Done:  E(RB3LYP) =  -1706.70206457     A.U. after    8 cycles
 SCF Done:  E(RB3LYP) =  -1706.70206466     A.U. after    7 cycles
 SCF Done:  E(RB3LYP) =  -1706.70206469     A.U. after    7 cycles
 Optimization completed.
    -- Stationary point found.

                         Standard orientation:
 ---------------------------------------------------------------------
 Center     Atomic      Atomic             Coordinates (Angstroms)
 Number     Number       Type             X           Y           Z
 ---------------------------------------------------------------------
      1          6           0       -6.441911   -4.849081    0.719695
      2          7           0       -5.294426   -4.435225   -0.063149
      3          6           0       -4.816001   -3.136908   -0.055188
      4          6           0       -5.209034   -2.196829    0.916885
      5          6           0       -4.671255   -0.912767    0.915635
      6          6           0       -3.737688   -0.502290   -0.048976
      7          6           0       -3.162487    0.854883   -0.049181
      8          6           0       -1.827445    1.245924   -0.080918
      9          6           0       -0.658019    0.347714   -0.055079
     10          6           0        0.405112    0.474982   -0.967814
     11          6           0        1.492242   -0.390317   -0.904519
     12          6           0        1.479539   -1.377800    0.087475
     13          8           0        2.469475   -2.332019    0.195345
     14          6           0        3.776162   -2.039901   -0.125954
     15          6           0        4.487600   -3.008294   -0.837643
     16          6           0        5.836645   -2.801537   -1.122524
     17          6           0        6.477426   -1.634184   -0.708916
     18          6           0        5.755383   -0.674802    0.006363
     19          6           0        6.455621    0.555747    0.519674
     20          9           0        5.603018    1.594109    0.675827
     21          9           0        7.436995    0.959513   -0.317253
     22          9           0        7.032525    0.337556    1.723790
     23          6           0        4.407131   -0.871755    0.307979
     24          7           0        0.493476   -1.532170    0.960241
     25          6           0       -0.540960   -0.689941    0.885782
     26          6           0       -1.825572    2.687902   -0.121607
     27          6           0       -0.887726    3.748773   -0.101856
     28          7           0        0.471362    3.552850   -0.071761
     29          7           0       -1.304741    5.023656   -0.150913
     30          6           0       -2.625864    5.256517   -0.194878
     31          7           0       -3.618121    4.369584   -0.165734
     32          6           0       -3.172946    3.105643   -0.119883
     33          7           0       -3.973409    1.991833   -0.069424
     34          6           0       -5.424485    2.044584   -0.163178
     35          6           0       -3.355436   -1.445827   -1.021928
     36          6           0       -3.876933   -2.729698   -1.026719
     37          1           0       -6.661050   -5.895154    0.492138
     38          1           0       -6.223421   -4.782868    1.791996
     39          1           0       -7.344721   -4.250586    0.517332
     40          1           0       -5.157272   -4.932914   -0.931305
     41          1           0       -5.925718   -2.470263    1.683775
     42          1           0       -4.974801   -0.220085    1.696006
     43          1           0        0.371993    1.245216   -1.732821
     44          1           0        2.311416   -0.314204   -1.610736
     45          1           0        3.971982   -3.909354   -1.153555
     46          1           0        6.388737   -3.553397   -1.678743
     47          1           0        7.523120   -1.464795   -0.941072
     48          1           0        3.855080   -0.128783    0.871513
     49          1           0       -1.327459   -0.840550    1.621336
     50          1           0        0.818289    2.693038    0.328568
     51          1           0        1.003634    4.385954    0.145567
     52          1           0       -2.916303    6.304163   -0.246413
     53          1           0       -5.898577    1.856301    0.805715
     54          1           0       -5.782551    1.302917   -0.881358
     55          1           0       -5.692735    3.048596   -0.494903
     56          1           0       -2.642190   -1.158244   -1.788504
     57          1           0       -3.559675   -3.437573   -1.789745
 ---------------------------------------------------------------------

 The electronic state is 1-A.
 Alpha  occ. eigenvalues --  -24.72635 -24.72522 -24.71933 -19.19723 -14.38423
 Alpha  occ. eigenvalues --  -14.35672 -14.34788 -14.33232 -14.31490 -14.30960
 Alpha  occ. eigenvalues --  -10.43399 -10.28621 -10.26816 -10.26474 -10.24272
 Alpha  occ. eigenvalues --  -10.23613 -10.23530 -10.22814 -10.22732 -10.22613
 Alpha  occ. eigenvalues --  -10.22329 -10.22170 -10.21257 -10.21152 -10.21148
 Alpha  occ. eigenvalues --  -10.20923 -10.20898 -10.20776 -10.20597 -10.19716
 Alpha  occ. eigenvalues --  -10.19647 -10.19491 -10.19353 -10.18987 -10.18914
 Alpha  occ. eigenvalues --  -10.18634  -1.30117  -1.21599  -1.21088  -1.09308
 Alpha  occ. eigenvalues --   -1.00234  -0.96313  -0.94714  -0.94305  -0.91762
 Alpha  occ. eigenvalues --   -0.87781  -0.85342  -0.84455  -0.83079  -0.80161
 Alpha  occ. eigenvalues --   -0.79393  -0.77586  -0.76954  -0.75420  -0.75014
 Alpha  occ. eigenvalues --   -0.72638  -0.70508  -0.69957  -0.68956  -0.66071
 Alpha  occ. eigenvalues --   -0.64682  -0.64025  -0.63160  -0.62445  -0.61615
 Alpha  occ. eigenvalues --   -0.60396  -0.59546  -0.57934  -0.57900  -0.57560
 Alpha  occ. eigenvalues --   -0.56586  -0.55078  -0.53767  -0.53144  -0.52299
 Alpha  occ. eigenvalues --   -0.51229  -0.50685  -0.50448  -0.48830  -0.48745
 Alpha  occ. eigenvalues --   -0.47762  -0.47113  -0.46841  -0.45883  -0.45687
 Alpha  occ. eigenvalues --   -0.45544  -0.45365  -0.45189  -0.45009  -0.44138
 Alpha  occ. eigenvalues --   -0.43051  -0.42797  -0.42736  -0.42373  -0.42165
 Alpha  occ. eigenvalues --   -0.41929  -0.41767  -0.41395  -0.41305  -0.40695
 Alpha  occ. eigenvalues --   -0.40295  -0.39940  -0.39790  -0.39609  -0.38537
 Alpha  occ. eigenvalues --   -0.37963  -0.37767  -0.37416  -0.36554  -0.36483
 Alpha  occ. eigenvalues --   -0.35767  -0.34634  -0.34394  -0.33396  -0.30461
 Alpha  occ. eigenvalues --   -0.29393  -0.28515  -0.27739  -0.27304  -0.26265
 Alpha  occ. eigenvalues --   -0.25561  -0.25426  -0.24609  -0.24495  -0.23045
 Alpha  occ. eigenvalues --   -0.21233  -0.18569
 Alpha virt. eigenvalues --   -0.03649  -0.02942  -0.02343  -0.01729  -0.00444
 Alpha virt. eigenvalues --   -0.00230   0.01270   0.01998   0.06668   0.07284
 Alpha virt. eigenvalues --    0.08620   0.08864   0.09610   0.10430   0.10772

 Mulliken charges:
               1
     1  C   -0.303317
     2  N   -0.642862
     3  C    0.369491
     4  C   -0.191906
     5  C   -0.174179
     6  C    0.067078
     7  C    0.218136
     8  C   -0.086814
     9  C    0.031021
    10  C   -0.156357
    11  C   -0.186931
    12  C    0.485578
    13  O   -0.537375
    14  C    0.345123
    15  C   -0.158136
    16  C   -0.142054
    17  C   -0.158513
    18  C   -0.014340
    19  C    0.785011
    20  F   -0.272168
    21  F   -0.270023
    22  F   -0.258439
    23  C   -0.198037
    24  N   -0.454320
    25  C    0.009210
    26  C    0.080792
    27  C    0.411140
    28  N   -0.778275
    29  N   -0.499716
    30  C    0.163936
    31  N   -0.509740
    32  C    0.475498
    33  N   -0.546653
    34  C   -0.333425
    35  C   -0.156531
    36  C   -0.196250
    37  H    0.159261
    38  H    0.168769
    39  H    0.151491
    40  H    0.320355
    41  H    0.128541
    42  H    0.133375
    43  H    0.167043
    44  H    0.155688
    45  H    0.153946
    46  H    0.146495
    47  H    0.155048
    48  H    0.164868
    49  H    0.158323
    50  H    0.337304
    51  H    0.339747
    52  H    0.139356
    53  H    0.165152
    54  H    0.175322
    55  H    0.203569
    56  H    0.139156
    57  H    0.121540
 Sum of Mulliken charges =  -0.00000

 Dipole moment (field-independent basis, Debye):
    X=             -3.0788    Y=             -5.2979    Z=             -2.1535  Tot=              6.4949
 Quadrupole moment (field-independent basis, Debye-Ang):
   XX=           -176.7152   YY=           -202.2424   ZZ=           -200.6358
   XY=             17.6630   XZ=            -10.3089   YZ=             12.0633

 Normal termination of Gaussian 16 at Fri Nov  4 20:52:07 2022.
