 Gaussian 16, Revision B.01,
 Gaussian 16:  ES64L-G16RevB.01 20-Dec-2017

 -----------------------------
 #p b3lyp/6-31g(d) opt SCF=XQC
 -----------------------------

 ------------------------------
 Gaussian input prepared by ASE
 ------------------------------
 Symbolic Z-matrix:
 Charge =  0 Multiplicity = 1

 SCF Done:  E(RB3LYP) =  -772.736366337     A.U. after   14 cycles
 SCF Done:  E(RB3LYP) =  -772.739798827     A.U. after   12 cycles
 SCF Done:  E(RB3LYP) =  -772.739932082     A.U. after   11 cycles
 SCF Done:  E(RB3LYP) =  -772.739955847     A.U. after   10 cycles
 SCF Done:  E(RB3LYP) =  -772.739962389     A.U. after    8 cycles
 SCF Done:  E(RB3LYP) =  -772.739963595     A.U. after    9 cycles
 SCF Done:  E(RB3LYP) =  -772.739964543     A.U. after    7 cycles
 SCF Done:  E(RB3LYP) =  -772.739964772     A.U. after    7 cycles
 SCF Done:  E(RB3LYP) =  -772.739964926     A.U. after    7 cycles
 SCF Done:  E(RB3LYP) =  -772.739965092     A.U. after    7 cycles
 SCF Done:  E(RB3LYP) =  -772.739965192     A.U. after    7 cycles
 SCF Done:  E(RB3LYP) =  -772.739965225     A.U. after    7 cycles
 Optimization completed.
    -- Stationary point found.

                         Standard orientation:
 ---------------------------------------------------------------------
 Center     Atomic      Atomic             Coordinates (Angstroms)
 Number     Number       Type             X           Y           Z
 ---------------------------------------------------------------------
      1          6           0        5.652474    0.025279    0.682358
      2          6           0        4.833479   -0.453893   -0.530136
      3          6           0        3.355866   -0.152630   -0.398072
      4          6           0        2.812053    1.050460   -0.867396
      5          6           0        1.456408    1.332113   -0.718548
      6          6           0        0.572888    0.439899   -0.083074
      7          6           0       -0.849347    0.772543    0.097482
      8          6           0       -1.313839    2.027544    0.426901
      9          7           0       -2.690152    2.029224    0.467428
     10          6           0       -3.157365    0.765257    0.164086
     11          6           0       -4.470183    0.292339    0.067541
     12          6           0       -4.646625   -1.039690   -0.284547
     13          6           0       -3.540165   -1.876608   -0.535525
     14          6           0       -2.238929   -1.402470   -0.434991
     15          6           0       -2.024310   -0.059889   -0.074421
     16          6           0        1.147967   -0.750056    0.380782
     17          9           0        0.365845   -1.655244    1.017346
     18          6           0        2.492695   -1.057623    0.230120
     19          1           0        6.715773   -0.207047    0.552102
     20          1           0        5.554475    1.108120    0.818641
     21          1           0        5.308910   -0.457669    1.603990
     22          1           0        5.222732    0.022896   -1.438513
     23          1           0        4.978675   -1.533924   -0.658412
     24          1           0        3.454317    1.767526   -1.373458
     25          1           0        1.051583    2.255324   -1.123842
     26          1           0       -0.754407    2.923128    0.659373
     27          1           0       -3.263341    2.819253    0.718758
     28          1           0       -5.319680    0.943635    0.257251
     29          1           0       -5.652664   -1.441572   -0.368598
     30          1           0       -3.711157   -2.913928   -0.810281
     31          1           0       -1.398797   -2.062542   -0.618609
     32          1           0        2.853638   -2.006032    0.618130
 ---------------------------------------------------------------------

 The electronic state is 1-A.
 Alpha  occ. eigenvalues --  -24.69579 -14.37977 -10.26201 -10.21894 -10.21440
 Alpha  occ. eigenvalues --  -10.19863 -10.19586 -10.18946 -10.18916 -10.18603
 Alpha  occ. eigenvalues --  -10.18408 -10.18382 -10.18354 -10.17976 -10.17859
 Alpha  occ. eigenvalues --  -10.17799 -10.17575 -10.17245  -1.20582  -0.97769
 Alpha  occ. eigenvalues --   -0.85942  -0.83137  -0.80249  -0.77099  -0.74076
 Alpha  occ. eigenvalues --   -0.73004  -0.72667  -0.70561  -0.64328  -0.61827
 Alpha  occ. eigenvalues --   -0.60953  -0.59488  -0.58205  -0.56520  -0.53658
 Alpha  occ. eigenvalues --   -0.50953  -0.49005  -0.48114  -0.47585  -0.46127
 Alpha  occ. eigenvalues --   -0.45210  -0.43799  -0.43289  -0.42438  -0.42164
 Alpha  occ. eigenvalues --   -0.41836  -0.41484  -0.39935  -0.38947  -0.38392
 Alpha  occ. eigenvalues --   -0.37051  -0.36019  -0.35176  -0.34119  -0.33992
 Alpha  occ. eigenvalues --   -0.33035  -0.32684  -0.32578  -0.27964  -0.24407
 Alpha  occ. eigenvalues --   -0.23431  -0.21718  -0.19178
 Alpha virt. eigenvalues --   -0.01481   0.00195   0.00921   0.03397   0.07657
 Alpha virt. eigenvalues --    0.07992   0.09576   0.11021   0.11652   0.12973
 Alpha virt. eigenvalues --    0.14056   0.14789   0.15238   0.16442   0.17115

 Mulliken charges:
               1
     1  C   -0.433799
     2  C   -0.341007
     3  C    0.179335
     4  C   -0.185973
     5  C   -0.181409
     6  C    0.035513
     7  C   -0.013604
     8  C    0.013759
     9  N   -0.692022
    10  C    0.306908
    11  C   -0.163001
    12  C   -0.149617
    13  C   -0.142937
    14  C   -0.200027
    15  C    0.093939
    16  C    0.323340
    17  F   -0.293996
    18  C   -0.256489
    19  H    0.144380
    20  H    0.149380
    21  H    0.151074
    22  H    0.144338
    23  H    0.145533
    24  H    0.121747
    25  H    0.129814
    26  H    0.153944
    27  H    0.327913
    28  H    0.119527
    29  H    0.122215
    30  H    0.120721
    31  H    0.134955
    32  H    0.135546
 Sum of Mulliken charges =  -0.00000

 Dipole moment (field-independent basis, Debye):
    X=              0.2384    Y=              2.7303    Z=              0.0560  Tot=              2.7413
 Quadrupole moment (field-independent basis, Debye-Ang):
   XX=            -88.2864   YY=            -90.8158   ZZ=           -107.4245
   XY=             -7.9983   XZ=             -3.1212   YZ=              2.9151

 Normal termination of Gaussian 16 at Fri Nov  4 20:12:24 2022.
