 Gaussian 16, Revision B.01,
 Gaussian 16:  ES64L-G16RevB.01 20-Dec-2017

 -------------------------------------------------------------------
 #p b3lyp/6-31g(d) 6D 10F nosymm GFInput td=(50-50,nstate=2) SCF=XQC
 -------------------------------------------------------------------

 ------------------------------
 Gaussian input prepared by ASE
 ------------------------------
 Symbolic Z-matrix:
 Charge =  0 Multiplicity = 1

                          Input orientation:
 ---------------------------------------------------------------------
 Center     Atomic      Atomic             Coordinates (Angstroms)
 Number     Number       Type             X           Y           Z
 ---------------------------------------------------------------------
      1          6           0        5.290436   -0.128887    0.195634
      2          6           0        4.365702   -0.750464   -0.866914
      3          6           0        2.912498   -0.371928   -0.675994
      4          6           0        2.370069    0.768464   -1.283198
      5          6           0        1.039127    1.125105   -1.081554
      6          6           0        0.181396    0.375784   -0.254938
      7          6           0       -1.211914    0.790310   -0.025025
      8          6           0       -1.611654    2.098679    0.141335
      9          7           0       -2.979984    2.163350    0.280522
     10          6           0       -3.506953    0.888576    0.208592
     11          6           0       -4.836856    0.461229    0.280660
     12          6           0       -5.079889   -0.900124    0.150072
     13          6           0       -4.021811   -1.810284   -0.049314
     14          6           0       -2.703102   -1.380654   -0.116799
     15          6           0       -2.421050   -0.009182    0.017776
     16          6           0        0.754951   -0.753749    0.342609
     17          9           0       -0.002039   -1.519916    1.164953
     18          6           0        2.074097   -1.135809    0.143928
     19          1           0        6.332967   -0.421919    0.025907
     20          1           0        5.235753    0.965255    0.171468
     21          1           0        5.005267   -0.453289    1.202672
     22          1           0        4.697247   -0.432045   -1.863249
     23          1           0        4.468124   -1.842579   -0.838699
     24          1           0        2.992205    1.374194   -1.938043
     25          1           0        0.631811    1.992907   -1.592904
     26          1           0       -1.009313    2.995108    0.193075
     27          1           0       -3.508019    3.005191    0.448871
     28          1           0       -5.649178    1.168203    0.429465
     29          1           0       -6.100984   -1.268114    0.201413
     30          1           0       -4.244587   -2.869136   -0.149139
     31          1           0       -1.899902   -2.094994   -0.257581
     32          1           0        2.435587   -2.029282    0.645269
 ---------------------------------------------------------------------

 SCF Done:  E(RB3LYP) =  -772.739960203     A.U. after   14 cycles

 Excitation energies and oscillator strengths:

 Excited state symmetry could not be determined.
 Excited State   1:      Triplet-?Sym    3.0488 eV  406.66 nm  f=0.0000  <S**2>=2.000
      60 -> 65         0.13995
      61 -> 66         0.14163
      62 -> 67         0.11236
      63 -> 64         0.61990
      63 -> 65        -0.19531
 This state for optimization and/or second-order correction.
 Total Energy, E(TD-HF/TD-DFT) =  -772.627917624
 Copying the excited state density for this state as the 1-particle RhoCI density.

 Excited state symmetry could not be determined.
 Excited State   2:      Triplet-?Sym    3.5429 eV  349.95 nm  f=0.0000  <S**2>=2.000
      59 -> 65        -0.10540
      60 -> 64         0.24587
      60 -> 65         0.11988
      60 -> 66        -0.13417
      61 -> 64         0.25215
      61 -> 65        -0.11792
      61 -> 66         0.15855
      62 -> 67        -0.12781
      63 -> 64         0.10636
      63 -> 65         0.41776
      63 -> 66         0.27267

 Excited state symmetry could not be determined.
 Excited State   3:      Singlet-?Sym    4.3826 eV  282.90 nm  f=0.2923  <S**2>=0.000
      63 -> 64         0.67334
      63 -> 65         0.15098

 Excited state symmetry could not be determined.
 Excited State   4:      Singlet-?Sym    4.6336 eV  267.58 nm  f=0.0185  <S**2>=0.000
      60 -> 64        -0.12229
      62 -> 64         0.23630
      63 -> 64        -0.12480
      63 -> 65         0.62252

 Alpha  occ. eigenvalues --  -24.69579 -14.37977 -10.26201 -10.21894 -10.21440
 Alpha  occ. eigenvalues --  -10.19863 -10.19586 -10.18946 -10.18916 -10.18603
 Alpha  occ. eigenvalues --  -10.18408 -10.18382 -10.18354 -10.17976 -10.17859
 Alpha  occ. eigenvalues --  -10.17799 -10.17575 -10.17245  -1.20582  -0.97769
 Alpha  occ. eigenvalues --   -0.85942  -0.83137  -0.80249  -0.77099  -0.74076
 Alpha  occ. eigenvalues --   -0.73004  -0.72667  -0.70561  -0.64328  -0.61827
 Alpha  occ. eigenvalues --   -0.60953  -0.59488  -0.58205  -0.56520  -0.53658
 Alpha  occ. eigenvalues --   -0.50953  -0.49005  -0.48114  -0.47585  -0.46127
 Alpha  occ. eigenvalues --   -0.45210  -0.43799  -0.43289  -0.42438  -0.42164
 Alpha  occ. eigenvalues --   -0.41836  -0.41484  -0.39935  -0.38947  -0.38392
 Alpha  occ. eigenvalues --   -0.37051  -0.36019  -0.35176  -0.34119  -0.33992
 Alpha  occ. eigenvalues --   -0.33035  -0.32684  -0.32578  -0.27964  -0.24407
 Alpha  occ. eigenvalues --   -0.23431  -0.21718  -0.19178
 Alpha virt. eigenvalues --   -0.01481   0.00195   0.00921   0.03397   0.07657
 Alpha virt. eigenvalues --    0.07992   0.09576   0.11021   0.11652   0.12974
 Alpha virt. eigenvalues --    0.14056   0.14789   0.15238   0.16442   0.17115

 Mulliken charges:
               1
     1  C   -0.433799
     2  C   -0.341013
     3  C    0.179343
     4  C   -0.185977
     5  C   -0.181406
     6  C    0.035471
     7  C   -0.013597
     8  C    0.013757
     9  N   -0.692025
    10  C    0.306910
    11  C   -0.163000
    12  C   -0.149611
    13  C   -0.142936
    14  C   -0.200025
    15  C    0.093925
    16  C    0.323398
    17  F   -0.294010
    18  C   -0.256492
    19  H    0.144380
    20  H    0.149380
    21  H    0.151074
    22  H    0.144338
    23  H    0.145533
    24  H    0.121749
    25  H    0.129813
    26  H    0.153944
    27  H    0.327913
    28  H    0.119525
    29  H    0.122214
    30  H    0.120721
    31  H    0.134955
    32  H    0.135547
 Sum of Mulliken charges =  -0.00000

 Dipole moment (field-independent basis, Debye):
    X=              0.3235    Y=              2.6955    Z=             -0.3796  Tot=              2.7413
 Quadrupole moment (field-independent basis, Debye-Ang):
   XX=            -89.6076   YY=            -89.7506   ZZ=           -107.4980
   XY=             -9.4569   XZ=             -3.0858   YZ=              0.8366

 Normal termination of Gaussian 16 at Sat Nov  5 12:05:28 2022.
