 Gaussian 16, Revision B.01,
 Gaussian 16:  ES64L-G16RevB.01 20-Dec-2017

 -----------------------------
 #p b3lyp/6-31g(d) opt SCF=XQC
 -----------------------------

 ------------------------------
 Gaussian input prepared by ASE
 ------------------------------
 Symbolic Z-matrix:
 Charge =  0 Multiplicity = 1

 SCF Done:  E(RB3LYP) =  -1402.78338502     A.U. after   14 cycles
 SCF Done:  E(RB3LYP) =  -1402.79273575     A.U. after   12 cycles
 SCF Done:  E(RB3LYP) =  -1402.79358757     A.U. after   12 cycles
 SCF Done:  E(RB3LYP) =  -1402.79370925     A.U. after   11 cycles
 SCF Done:  E(RB3LYP) =  -1402.79376828     A.U. after   11 cycles
 SCF Done:  E(RB3LYP) =  -1402.79378359     A.U. after   10 cycles
 SCF Done:  E(RB3LYP) =  -1402.79378709     A.U. after    9 cycles
 SCF Done:  E(RB3LYP) =  -1402.79378920     A.U. after    9 cycles
 SCF Done:  E(RB3LYP) =  -1402.79379095     A.U. after   10 cycles
 SCF Done:  E(RB3LYP) =  -1402.79379261     A.U. after   10 cycles
 SCF Done:  E(RB3LYP) =  -1402.79379308     A.U. after    9 cycles
 SCF Done:  E(RB3LYP) =  -1402.79379353     A.U. after    9 cycles
 SCF Done:  E(RB3LYP) =  -1402.79379394     A.U. after    9 cycles
 SCF Done:  E(RB3LYP) =  -1402.79379426     A.U. after    9 cycles
 SCF Done:  E(RB3LYP) =  -1402.79379432     A.U. after    7 cycles
 SCF Done:  E(RB3LYP) =  -1402.79379432     A.U. after    7 cycles
 SCF Done:  E(RB3LYP) =  -1402.79379433     A.U. after    6 cycles
 SCF Done:  E(RB3LYP) =  -1402.79379433     A.U. after    5 cycles
 Optimization completed.
    -- Stationary point found.

                         Standard orientation:
 ---------------------------------------------------------------------
 Center     Atomic      Atomic             Coordinates (Angstroms)
 Number     Number       Type             X           Y           Z
 ---------------------------------------------------------------------
      1          6           0       -7.591301    1.019275   -1.315246
      2          6           0       -6.576457    0.058448   -0.687444
      3          6           0       -7.048563   -0.509450    0.650874
      4         16           0       -4.985012    0.981289   -0.523970
      5          8           0       -5.149754    1.997804    0.534181
      6          8           0       -4.591703    1.384232   -1.888222
      7          6           0       -3.731886   -0.246302    0.028507
      8          6           0       -3.503680   -0.284974    1.540121
      9          6           0       -2.435097   -1.299967    1.992551
     10          6           0       -0.995351   -1.039773    1.491937
     11          6           0       -0.610404   -1.799243    0.210807
     12          6           0        0.798066   -1.485355   -0.320632
     13          6           0        1.947453   -1.940809    0.603664
     14          6           0        3.314430   -1.677841    0.006876
     15          6           0        3.927918   -2.622331   -0.826500
     16          6           0        5.171150   -2.355602   -1.402853
     17          6           0        5.818234   -1.148798   -1.157754
     18          6           0        5.224442   -0.184997   -0.323744
     19          6           0        5.899613    1.080397   -0.057971
     20          6           0        7.094639    1.620857   -0.461331
     21          6           0        7.193255    2.911913    0.144189
     22          6           0        6.055931    3.073713    0.874847
     23          8           0        5.259829    1.974371    0.764700
     24          6           0        3.973309   -0.468836    0.249248
     25          1           0       -7.224816    1.414943   -2.265507
     26          1           0       -7.794090    1.858275   -0.642000
     27          1           0       -8.530422    0.484646   -1.494929
     28          1           0       -6.341002   -0.746524   -1.393882
     29          1           0       -7.155449    0.289188    1.391345
     30          1           0       -6.364825   -1.265529    1.049533
     31          1           0       -8.025820   -0.986764    0.516235
     32          1           0       -2.839587    0.080278   -0.512759
     33          1           0       -4.033693   -1.216349   -0.383728
     34          1           0       -3.222876    0.720012    1.873390
     35          1           0       -4.444820   -0.519407    2.049803
     36          1           0       -2.745065   -2.316145    1.707755
     37          1           0       -2.438975   -1.285228    3.089670
     38          1           0       -0.849737    0.039869    1.337557
     39          1           0       -0.296170   -1.321684    2.288444
     40          1           0       -0.694397   -2.880004    0.400257
     41          1           0       -1.333565   -1.578088   -0.584742
     42          1           0        0.891706   -0.405807   -0.503714
     43          1           0        0.926140   -1.969897   -1.297508
     44          1           0        1.834372   -3.014667    0.806721
     45          1           0        1.870855   -1.429568    1.570635
     46          1           0        3.432609   -3.571197   -1.020471
     47          1           0        5.640962   -3.096414   -2.044615
     48          1           0        6.786469   -0.953861   -1.609530
     49          1           0        7.821196    1.156810   -1.113088
     50          1           0        8.003164    3.621312    0.046204
     51          1           0        5.674060    3.867612    1.498370
     52          1           0        3.512783    0.270344    0.897931
 ---------------------------------------------------------------------

 The electronic state is 1-A.
 Alpha  occ. eigenvalues --  -89.07638 -19.21128 -19.12965 -19.12687 -10.23909
 Alpha  occ. eigenvalues --  -10.23494 -10.23373 -10.22467 -10.20178 -10.19947
 Alpha  occ. eigenvalues --  -10.19935 -10.19375 -10.19312 -10.19047 -10.18846
 Alpha  occ. eigenvalues --  -10.18768 -10.18716 -10.18678 -10.18637 -10.18618
 Alpha  occ. eigenvalues --  -10.18510 -10.18452 -10.18437 -10.18354  -8.10697
 Alpha  occ. eigenvalues --   -6.07116  -6.07038  -6.06997  -1.10519  -1.08277
 Alpha  occ. eigenvalues --   -0.98083  -0.85809  -0.82673  -0.81789  -0.80252
 Alpha  occ. eigenvalues --   -0.79481  -0.77845  -0.76220  -0.73628  -0.71563
 Alpha  occ. eigenvalues --   -0.70442  -0.69561  -0.66251  -0.63745  -0.61572
 Alpha  occ. eigenvalues --   -0.60801  -0.59248  -0.57830  -0.56903  -0.56586
 Alpha  occ. eigenvalues --   -0.54957  -0.53027  -0.50971  -0.49481  -0.49190
 Alpha  occ. eigenvalues --   -0.47357  -0.46964  -0.46338  -0.45803  -0.45145
 Alpha  occ. eigenvalues --   -0.44856  -0.44652  -0.43283  -0.42918  -0.42079
 Alpha  occ. eigenvalues --   -0.41924  -0.41706  -0.41029  -0.40646  -0.40187
 Alpha  occ. eigenvalues --   -0.39742  -0.39430  -0.38788  -0.38158  -0.37241
 Alpha  occ. eigenvalues --   -0.37019  -0.36576  -0.36439  -0.36273  -0.35146
 Alpha  occ. eigenvalues --   -0.34866  -0.33950  -0.33513  -0.32916  -0.32151
 Alpha  occ. eigenvalues --   -0.31546  -0.30807  -0.29978  -0.28544  -0.27912
 Alpha  occ. eigenvalues --   -0.27018  -0.26957  -0.24089  -0.20110
 Alpha virt. eigenvalues --   -0.02730   0.00249   0.04539   0.05128   0.05368
 Alpha virt. eigenvalues --    0.07859   0.08514   0.08840   0.09192   0.09669
 Alpha virt. eigenvalues --    0.09843   0.10379   0.10991   0.11603   0.12006

 Mulliken charges:
               1
     1  C   -0.464222
     2  C   -0.281503
     3  C   -0.465424
     4  S    1.138283
     5  O   -0.556838
     6  O   -0.554809
     7  C   -0.500136
     8  C   -0.269613
     9  C   -0.269701
    10  C   -0.264043
    11  C   -0.263956
    12  C   -0.252287
    13  C   -0.351774
    14  C    0.175260
    15  C   -0.178612
    16  C   -0.136524
    17  C   -0.176971
    18  C    0.098072
    19  C    0.291870
    20  C   -0.199053
    21  C   -0.188203
    22  C    0.094609
    23  O   -0.453297
    24  C   -0.236892
    25  H    0.191203
    26  H    0.180552
    27  H    0.156369
    28  H    0.175612
    29  H    0.187916
    30  H    0.154680
    31  H    0.161719
    32  H    0.216234
    33  H    0.178564
    34  H    0.177896
    35  H    0.150922
    36  H    0.131044
    37  H    0.143284
    38  H    0.137602
    39  H    0.142419
    40  H    0.129040
    41  H    0.132056
    42  H    0.141116
    43  H    0.137874
    44  H    0.137035
    45  H    0.146600
    46  H    0.120362
    47  H    0.128744
    48  H    0.127679
    49  H    0.141333
    50  H    0.142332
    51  H    0.155382
    52  H    0.140196
 Sum of Mulliken charges =  -0.00000

 Dipole moment (field-independent basis, Debye):
    X=             -0.4014    Y=             -4.0800    Z=              1.1895  Tot=              4.2688
 Quadrupole moment (field-independent basis, Debye-Ang):
   XX=           -127.4221   YY=           -151.1462   ZZ=           -155.5023
   XY=             25.2628   XZ=             -6.9321   YZ=              5.6259

 Normal termination of Gaussian 16 at Fri Nov  4 20:22:14 2022.
