 Gaussian 16, Revision B.01,
 Gaussian 16:  ES64L-G16RevB.01 20-Dec-2017

 -------------------------------------------------------------------
 #p b3lyp/6-31g(d) 6D 10F nosymm GFInput td=(50-50,nstate=2) SCF=XQC
 -------------------------------------------------------------------

 ------------------------------
 Gaussian input prepared by ASE
 ------------------------------
 Symbolic Z-matrix:
 Charge =  0 Multiplicity = 1

                          Input orientation:
 ---------------------------------------------------------------------
 Center     Atomic      Atomic             Coordinates (Angstroms)
 Number     Number       Type             X           Y           Z
 ---------------------------------------------------------------------
      1          6           0        7.231667    0.841362    2.184325
      2          6           0        6.277949    0.587265    1.012535
      3          6           0        6.670278    1.358142   -0.247747
      4         16           0        4.579560    1.025934    1.590551
      5          8           0        4.509222    2.493306    1.738872
      6          8           0        4.287423    0.146975    2.739605
      7          6           0        3.430357    0.513748    0.249084
      8          6           0        3.049928    1.631400   -0.722860
      9          6           0        2.068146    1.199426   -1.830234
     10          6           0        0.668676    0.742154   -1.357401
     11          6           0        0.514549   -0.777134   -1.172252
     12          6           0       -0.857185   -1.220877   -0.637297
     13          6           0       -2.035294   -0.958116   -1.599517
     14          6           0       -3.353090   -1.477178   -1.062935
     15          6           0       -3.758107   -2.796097   -1.306568
     16          6           0       -4.956347   -3.277573   -0.776137
     17          6           0       -5.764902   -2.454811    0.001341
     18          6           0       -5.381697   -1.126750    0.259181
     19          6           0       -6.227149   -0.256691    1.069072
     20          6           0       -7.428703   -0.429587    1.708803
     21          6           0       -7.743924    0.810935    2.345158
     22          6           0       -6.717621    1.656355    2.052731
     23          8           0       -5.789020    1.027318    1.280412
     24          6           0       -4.173264   -0.657051   -0.282380
     25          1           0        6.923127    0.284511    3.072346
     26          1           0        7.260723    1.907147    2.432443
     27          1           0        8.241505    0.523754    1.902519
     28          1           0        6.216096   -0.488804    0.810734
     29          1           0        6.602362    2.436712   -0.075645
     30          1           0        6.043252    1.101943   -1.107563
     31          1           0        7.706175    1.116408   -0.511322
     32          1           0        2.567729    0.150953    0.814834
     33          1           0        3.887489   -0.349379   -0.248971
     34          1           0        2.617711    2.457568   -0.147925
     35          1           0        3.953129    2.033253   -1.195324
     36          1           0        2.525365    0.408767   -2.443109
     37          1           0        1.954274    2.063186   -2.497209
     38          1           0        0.412561    1.255199   -0.418330
     39          1           0       -0.072154    1.081427   -2.091443
     40          1           0        0.706257   -1.273211   -2.135655
     41          1           0        1.286192   -1.148823   -0.485824
     42          1           0       -1.058946   -0.722091    0.320940
     43          1           0       -0.822638   -2.295962   -0.417140
     44          1           0       -1.817129   -1.434845   -2.565087
     45          1           0       -2.122795    0.117415   -1.794054
     46          1           0       -3.135535   -3.446095   -1.917475
     47          1           0       -5.264047   -4.301023   -0.974265
     48          1           0       -6.696263   -2.839826    0.406198
     49          1           0       -8.021801   -1.332872    1.726837
     50          1           0       -8.617686    1.038806    2.939646
     51          1           0       -6.501139    2.684082    2.301312
     52          1           0       -3.875268    0.369341   -0.090080
 ---------------------------------------------------------------------

 SCF Done:  E(RB3LYP) =  -1402.79379733     A.U. after   15 cycles

 Excitation energies and oscillator strengths:

 Excited state symmetry could not be determined.
 Excited State   1:      Triplet-?Sym    2.7934 eV  443.85 nm  f=0.0000  <S**2>=2.000
      93 -> 96        -0.15380
      94 -> 95         0.67540
 This state for optimization and/or second-order correction.
 Total Energy, E(TD-HF/TD-DFT) =  -1402.69114268
 Copying the excited state density for this state as the 1-particle RhoCI density.

 Excited state symmetry could not be determined.
 Excited State   2:      Triplet-?Sym    3.9978 eV  310.13 nm  f=0.0000  <S**2>=2.000
      90 -> 95         0.14815
      91 -> 95         0.17133
      92 -> 95        -0.18852
      93 -> 95         0.19173
      93 -> 96         0.43445
      94 -> 96        -0.27692
      94 -> 97         0.29515

 Excited state symmetry could not be determined.
 Excited State   3:      Singlet-?Sym    4.5465 eV  272.70 nm  f=0.5688  <S**2>=0.000
      94 -> 95         0.70340

 Excited state symmetry could not be determined.
 Excited State   4:      Singlet-?Sym    4.6762 eV  265.14 nm  f=0.0016  <S**2>=0.000
      93 -> 95         0.40552
      94 -> 96         0.57275

 Alpha  occ. eigenvalues --  -89.07638 -19.21129 -19.12965 -19.12687 -10.23909
 Alpha  occ. eigenvalues --  -10.23494 -10.23373 -10.22467 -10.20178 -10.19947
 Alpha  occ. eigenvalues --  -10.19935 -10.19375 -10.19312 -10.19047 -10.18846
 Alpha  occ. eigenvalues --  -10.18768 -10.18716 -10.18678 -10.18637 -10.18618
 Alpha  occ. eigenvalues --  -10.18510 -10.18452 -10.18437 -10.18354  -8.10697
 Alpha  occ. eigenvalues --   -6.07116  -6.07038  -6.06997  -1.10519  -1.08277
 Alpha  occ. eigenvalues --   -0.98083  -0.85809  -0.82673  -0.81789  -0.80252
 Alpha  occ. eigenvalues --   -0.79481  -0.77845  -0.76220  -0.73628  -0.71563
 Alpha  occ. eigenvalues --   -0.70442  -0.69561  -0.66251  -0.63745  -0.61572
 Alpha  occ. eigenvalues --   -0.60801  -0.59248  -0.57830  -0.56903  -0.56586
 Alpha  occ. eigenvalues --   -0.54957  -0.53027  -0.50971  -0.49481  -0.49190
 Alpha  occ. eigenvalues --   -0.47357  -0.46964  -0.46338  -0.45803  -0.45145
 Alpha  occ. eigenvalues --   -0.44856  -0.44652  -0.43283  -0.42918  -0.42079
 Alpha  occ. eigenvalues --   -0.41924  -0.41706  -0.41029  -0.40646  -0.40187
 Alpha  occ. eigenvalues --   -0.39742  -0.39430  -0.38788  -0.38158  -0.37241
 Alpha  occ. eigenvalues --   -0.37019  -0.36576  -0.36439  -0.36273  -0.35146
 Alpha  occ. eigenvalues --   -0.34866  -0.33950  -0.33513  -0.32916  -0.32151
 Alpha  occ. eigenvalues --   -0.31546  -0.30807  -0.29979  -0.28544  -0.27911
 Alpha  occ. eigenvalues --   -0.27018  -0.26957  -0.24089  -0.20110
 Alpha virt. eigenvalues --   -0.02730   0.00249   0.04539   0.05128   0.05368
 Alpha virt. eigenvalues --    0.07859   0.08514   0.08840   0.09192   0.09669
 Alpha virt. eigenvalues --    0.09843   0.10379   0.10991   0.11603   0.12007

 Mulliken charges:
               1
     1  C   -0.464223
     2  C   -0.281515
     3  C   -0.465420
     4  S    1.138292
     5  O   -0.556838
     6  O   -0.554806
     7  C   -0.500154
     8  C   -0.269599
     9  C   -0.269699
    10  C   -0.264057
    11  C   -0.263953
    12  C   -0.252281
    13  C   -0.351777
    14  C    0.175265
    15  C   -0.178616
    16  C   -0.136513
    17  C   -0.176984
    18  C    0.098076
    19  C    0.291871
    20  C   -0.199056
    21  C   -0.188205
    22  C    0.094612
    23  O   -0.453298
    24  C   -0.236888
    25  H    0.191204
    26  H    0.180553
    27  H    0.156368
    28  H    0.175612
    29  H    0.187916
    30  H    0.154681
    31  H    0.161720
    32  H    0.216235
    33  H    0.178567
    34  H    0.177895
    35  H    0.150920
    36  H    0.131043
    37  H    0.143283
    38  H    0.137604
    39  H    0.142422
    40  H    0.129040
    41  H    0.132057
    42  H    0.141114
    43  H    0.137873
    44  H    0.137036
    45  H    0.146600
    46  H    0.120362
    47  H    0.128743
    48  H    0.127679
    49  H    0.141333
    50  H    0.142331
    51  H    0.155381
    52  H    0.140194
 Sum of Mulliken charges =  -0.00000

 Dipole moment (field-independent basis, Debye):
    X=              0.7568    Y=             -1.4902    Z=             -3.9279  Tot=              4.2688
 Quadrupole moment (field-independent basis, Debye-Ang):
   XX=           -123.8564   YY=           -151.1687   ZZ=           -162.4145
   XY=             -5.8643   XZ=            -22.0506   YZ=             -1.2844

 Normal termination of Gaussian 16 at Sat Nov  5 12:04:43 2022.
