 Gaussian 16, Revision B.01,
 Gaussian 16:  ES64L-G16RevB.01 20-Dec-2017

 -----------------------------
 #p b3lyp/6-31g(d) opt SCF=XQC
 -----------------------------

 ------------------------------
 Gaussian input prepared by ASE
 ------------------------------
 Symbolic Z-matrix:
 Charge =  0 Multiplicity = 1

 SCF Done:  E(RB3LYP) =  -1683.42659907     A.U. after   16 cycles
 SCF Done:  E(RB3LYP) =  -1683.43207835     A.U. after   14 cycles
 SCF Done:  E(RB3LYP) =  -1683.43475021     A.U. after   15 cycles
 SCF Done:  E(RB3LYP) =  -1683.43891343     A.U. after   13 cycles
 SCF Done:  E(RB3LYP) =  -1683.43953815     A.U. after   13 cycles
 SCF Done:  E(RB3LYP) =  -1683.43913367     A.U. after   13 cycles
 SCF Done:  E(RB3LYP) =  -1683.43992337     A.U. after   12 cycles
 SCF Done:  E(RB3LYP) =  -1683.43999226     A.U. after   11 cycles
 SCF Done:  E(RB3LYP) =  -1683.44007533     A.U. after   10 cycles
 SCF Done:  E(RB3LYP) =  -1683.44010129     A.U. after   10 cycles
 SCF Done:  E(RB3LYP) =  -1683.44011079     A.U. after   10 cycles
 SCF Done:  E(RB3LYP) =  -1683.44011754     A.U. after   10 cycles
 SCF Done:  E(RB3LYP) =  -1683.44012181     A.U. after   10 cycles
 SCF Done:  E(RB3LYP) =  -1683.44012238     A.U. after    8 cycles
 SCF Done:  E(RB3LYP) =  -1683.44012299     A.U. after    8 cycles
 SCF Done:  E(RB3LYP) =  -1683.44012325     A.U. after    8 cycles
 SCF Done:  E(RB3LYP) =  -1683.44012328     A.U. after    6 cycles
 SCF Done:  E(RB3LYP) =  -1683.44012333     A.U. after    6 cycles
 Optimization completed.
    -- Stationary point found.

                         Standard orientation:
 ---------------------------------------------------------------------
 Center     Atomic      Atomic             Coordinates (Angstroms)
 Number     Number       Type             X           Y           Z
 ---------------------------------------------------------------------
      1          6           0        2.666449    4.772235   -2.453983
      2          6           0        1.644399    4.210815   -1.460638
      3          6           0        0.219296    4.717001   -1.715450
      4          6           0       -0.828725    4.165433   -0.724958
      5          6           0       -1.056279    2.685090   -0.867894
      6          6           0       -0.957505    1.719862    0.068122
      7          6           0       -0.627952    1.997062    1.530932
      8          6           0       -1.888234    2.131765    2.410878
      9          6           0       -1.591816    2.434579    3.889450
     10          6           0       -0.868042    1.308637    4.637850
     11          6           0       -1.289021    0.302087   -0.295901
     12          6           0       -0.398817   -0.733659   -0.063032
     13          6           0        1.020246   -0.402341    0.100114
     14          6           0        2.110560   -1.211726   -0.018996
     15          6           0        3.461496   -0.632833    0.194446
     16          6           0        3.692673    0.312832    1.213207
     17          6           0        4.956238    0.863481    1.417817
     18          6           0        6.031861    0.478074    0.615066
     19          6           0        5.827413   -0.467007   -0.391554
     20          6           0        4.562633   -1.017444   -0.594161
     21         14           0        1.851034   -3.017680   -0.484870
     22          6           0        2.292014   -3.411500   -2.290254
     23          6           0        2.799565   -4.197518    0.650001
     24          6           0        0.014976   -3.203643   -0.219249
     25          6           0       -0.820930   -2.154091   -0.027787
     26          6           0       -2.211869   -2.537982    0.420257
     27          8           0       -2.813664   -3.516669    0.029225
     28          8           0       -2.679285   -1.733158    1.403593
     29          6           0       -3.980726   -2.081813    1.901039
     30          6           0       -2.593048    0.084453   -0.971102
     31          6           0       -3.746133    0.809345   -0.604660
     32          6           0       -4.954940    0.620014   -1.267232
     33          6           0       -5.042554   -0.281275   -2.333182
     34          6           0       -3.907961   -0.989677   -2.726584
     35          6           0       -2.698691   -0.808776   -2.055458
     36          1           0        2.704362    5.867969   -2.409986
     37          1           0        2.412890    4.492106   -3.483955
     38          1           0        3.673825    4.394807   -2.245438
     39          1           0        1.654507    3.113780   -1.503166
     40          1           0        1.943770    4.478484   -0.436899
     41          1           0       -0.082327    4.456786   -2.740805
     42          1           0        0.207991    5.814669   -1.663191
     43          1           0       -1.783811    4.678959   -0.916965
     44          1           0       -0.539904    4.431118    0.298261
     45          1           0       -1.337264    2.374530   -1.875545
     46          1           0       -0.016169    1.181260    1.925784
     47          1           0       -0.029534    2.911210    1.622437
     48          1           0       -2.470474    1.202484    2.340489
     49          1           0       -2.520917    2.932072    2.003128
     50          1           0       -1.002117    3.360147    3.959175
     51          1           0       -2.543504    2.643894    4.396552
     52          1           0       -0.750298    1.555676    5.699168
     53          1           0        0.132894    1.122558    4.232812
     54          1           0       -1.429202    0.368187    4.573508
     55          1           0        1.214414    0.660651    0.224238
     56          1           0        2.871936    0.596170    1.866173
     57          1           0        5.104026    1.586744    2.216011
     58          1           0        7.018732    0.902967    0.777493
     59          1           0        6.654993   -0.776324   -1.025009
     60          1           0        4.421435   -1.736350   -1.395747
     61          1           0        1.861411   -2.673863   -2.976306
     62          1           0        1.888136   -4.394821   -2.562548
     63          1           0        3.374077   -3.444347   -2.462117
     64          1           0        3.881168   -4.038402    0.569560
     65          1           0        2.518085   -4.049920    1.698397
     66          1           0        2.595850   -5.243490    0.389698
     67          1           0       -0.437097   -4.190524   -0.120274
     68          1           0       -4.185077   -1.373519    2.704863
     69          1           0       -4.728152   -1.988232    1.108850
     70          1           0       -3.986689   -3.107118    2.279749
     71          1           0       -3.689094    1.518718    0.213674
     72          1           0       -5.832268    1.181122   -0.955512
     73          1           0       -5.985062   -0.421297   -2.855644
     74          1           0       -3.957928   -1.682069   -3.562404
     75          1           0       -1.817956   -1.349505   -2.385492
 ---------------------------------------------------------------------

 The electronic state is 1-A.
 Alpha  occ. eigenvalues --  -66.11722 -19.18362 -19.12341 -10.30524 -10.23219
 Alpha  occ. eigenvalues --  -10.20793 -10.20599 -10.20073 -10.20003 -10.19442
 Alpha  occ. eigenvalues --  -10.19340 -10.19238 -10.19131 -10.19024 -10.19000
 Alpha  occ. eigenvalues --  -10.18990 -10.18931 -10.18663 -10.18604 -10.18580
 Alpha  occ. eigenvalues --  -10.18575 -10.18473 -10.18380 -10.18329 -10.18298
 Alpha  occ. eigenvalues --  -10.18142 -10.18092 -10.18079 -10.17594 -10.17364
 Alpha  occ. eigenvalues --  -10.17233 -10.16983 -10.16971 -10.16093 -10.15761
 Alpha  occ. eigenvalues --   -5.26218  -3.62156  -3.62065  -3.62048  -1.09161
 Alpha  occ. eigenvalues --   -1.00176  -0.86552  -0.85060  -0.83708  -0.81662
 Alpha  occ. eigenvalues --   -0.79555  -0.78274  -0.77601  -0.75741  -0.74415
 Alpha  occ. eigenvalues --   -0.74073  -0.73794  -0.72928  -0.71706  -0.70499
 Alpha  occ. eigenvalues --   -0.69898  -0.68822  -0.67299  -0.64874  -0.63900
 Alpha  occ. eigenvalues --   -0.61975  -0.60883  -0.60125  -0.59996  -0.58951
 Alpha  occ. eigenvalues --   -0.57897  -0.57131  -0.56195  -0.55163  -0.53371
 Alpha  occ. eigenvalues --   -0.52205  -0.51836  -0.50197  -0.48432  -0.47775
 Alpha  occ. eigenvalues --   -0.47235  -0.46658  -0.46238  -0.45822  -0.45290
 Alpha  occ. eigenvalues --   -0.44847  -0.44226  -0.43963  -0.43796  -0.42904
 Alpha  occ. eigenvalues --   -0.42695  -0.42478  -0.42269  -0.41973  -0.41831
 Alpha  occ. eigenvalues --   -0.41477  -0.41099  -0.40523  -0.40314  -0.40120
 Alpha  occ. eigenvalues --   -0.39354  -0.39038  -0.38749  -0.38698  -0.38390
 Alpha  occ. eigenvalues --   -0.38055  -0.37236  -0.36520  -0.36355  -0.36044
 Alpha  occ. eigenvalues --   -0.35609  -0.35265  -0.34916  -0.34640  -0.34414
 Alpha  occ. eigenvalues --   -0.33988  -0.33755  -0.33438  -0.32973  -0.32749
 Alpha  occ. eigenvalues --   -0.32394  -0.32286  -0.32094  -0.31215  -0.30572
 Alpha  occ. eigenvalues --   -0.29982  -0.29242  -0.28668  -0.27631  -0.26248
 Alpha  occ. eigenvalues --   -0.25596  -0.25257  -0.24518  -0.24469  -0.22773
 Alpha  occ. eigenvalues --   -0.19061
 Alpha virt. eigenvalues --   -0.06731  -0.02931  -0.00302   0.00114   0.00326
 Alpha virt. eigenvalues --    0.01224   0.03338   0.05085   0.07783   0.08219
 Alpha virt. eigenvalues --    0.08971   0.09023   0.09446   0.09972   0.10408

 Mulliken charges:
               1
     1  C   -0.442235
     2  C   -0.248435
     3  C   -0.251683
     4  C   -0.305214
     5  C   -0.141670
     6  C    0.068462
     7  C   -0.330907
     8  C   -0.264183
     9  C   -0.250109
    10  C   -0.444539
    11  C   -0.030275
    12  C    0.090281
    13  C   -0.210685
    14  C   -0.161910
    15  C    0.131198
    16  C   -0.177109
    17  C   -0.132868
    18  C   -0.129683
    19  C   -0.137168
    20  C   -0.191003
    21  Si   0.635268
    22  C   -0.665312
    23  C   -0.657061
    24  C   -0.340113
    25  C    0.027306
    26  C    0.570179
    27  O   -0.494732
    28  O   -0.450031
    29  C   -0.219217
    30  C    0.079124
    31  C   -0.163974
    32  C   -0.140962
    33  C   -0.126179
    34  C   -0.122350
    35  C   -0.174826
    36  H    0.138967
    37  H    0.141449
    38  H    0.146552
    39  H    0.148760
    40  H    0.127316
    41  H    0.131122
    42  H    0.129352
    43  H    0.144982
    44  H    0.139313
    45  H    0.132561
    46  H    0.157566
    47  H    0.137790
    48  H    0.148981
    49  H    0.132228
    50  H    0.129231
    51  H    0.131533
    52  H    0.142243
    53  H    0.147847
    54  H    0.146651
    55  H    0.151530
    56  H    0.129571
    57  H    0.127047
    58  H    0.126885
    59  H    0.127595
    60  H    0.132711
    61  H    0.167864
    62  H    0.165964
    63  H    0.161154
    64  H    0.169743
    65  H    0.169196
    66  H    0.161182
    67  H    0.165405
    68  H    0.157078
    69  H    0.174494
    70  H    0.168949
    71  H    0.139895
    72  H    0.129989
    73  H    0.132213
    74  H    0.136455
    75  H    0.153250
 Sum of Mulliken charges =  -0.00000

 Dipole moment (field-independent basis, Debye):
    X=             -0.4816    Y=              2.3697    Z=              0.4610  Tot=              2.4618
 Quadrupole moment (field-independent basis, Debye-Ang):
   XX=           -202.4065   YY=           -217.3637   ZZ=           -210.3511
   XY=             -7.3652   XZ=             -3.3994   YZ=              3.7588

 Normal termination of Gaussian 16 at Fri Nov  4 21:15:08 2022.
