 Gaussian 16, Revision B.01,
 Gaussian 16:  ES64L-G16RevB.01 20-Dec-2017

 -------------------------------------------------------------------
 #p b3lyp/6-31g(d) 6D 10F nosymm GFInput td=(50-50,nstate=2) SCF=XQC
 -------------------------------------------------------------------

 ------------------------------
 Gaussian input prepared by ASE
 ------------------------------
 Symbolic Z-matrix:
 Charge =  0 Multiplicity = 1

                          Input orientation:
 ---------------------------------------------------------------------
 Center     Atomic      Atomic             Coordinates (Angstroms)
 Number     Number       Type             X           Y           Z
 ---------------------------------------------------------------------
      1          6           0       -3.716934    3.230596    2.868178
      2          6           0       -3.345854    1.929388    2.150079
      3          6           0       -4.308083    1.578509    1.008557
      4          6           0       -3.954824    0.269245    0.270529
      5          6           0       -2.666229    0.354415   -0.501414
      6          6           0       -1.576214   -0.434488   -0.417473
      7          6           0       -1.487083   -1.651777    0.496596
      8          6           0       -1.860347   -2.965370   -0.221673
      9          6           0       -1.802898   -4.211110    0.678641
     10          6           0       -0.398315   -4.573673    1.176025
     11          6           0       -0.415703   -0.190140   -1.337262
     12          6           0        0.870339   -0.016600   -0.852039
     13          6           0        1.032430    0.390381    0.547326
     14          6           0        2.110589    0.959460    1.157077
     15          6           0        2.028336    1.285620    2.603644
     16          6           0        1.387395    0.415615    3.508014
     17          6           0        1.302698    0.715846    4.866088
     18          6           0        1.865411    1.892604    5.364593
     19          6           0        2.516211    2.762138    4.487876
     20          6           0        2.600665    2.459581    3.129559
     21         14           0        3.639455    1.337691    0.124906
     22          6           0        3.843300    3.180076   -0.291068
     23          6           0        5.229555    0.712364    0.937439
     24          6           0        3.282699    0.366906   -1.426399
     25          6           0        2.071838   -0.174205   -1.705625
     26          6           0        2.070080   -1.128415   -2.877081
     27          8           0        2.730955   -0.980585   -3.884197
     28          8           0        1.336052   -2.240586   -2.637401
     29          6           0        1.337663   -3.205405   -3.701301
     30          6           0       -0.733807   -0.085438   -2.783496
     31          6           0       -1.711214   -0.903646   -3.387286
     32          6           0       -2.023836   -0.773359   -4.736862
     33          6           0       -1.387316    0.195854   -5.518984
     34          6           0       -0.435632    1.030883   -4.935097
     35          6           0       -0.113552    0.893199   -3.584995
     36          1           0       -4.721972    3.172078    3.304619
     37          1           0       -3.707020    4.081689    2.175971
     38          1           0       -3.013657    3.453176    3.678492
     39          1           0       -2.324312    2.005771    1.755091
     40          1           0       -3.330816    1.102676    2.875085
     41          1           0       -4.331066    2.405575    0.283661
     42          1           0       -5.328961    1.492710    1.406276
     43          1           0       -4.766177    0.048247   -0.440549
     44          1           0       -3.941323   -0.561142    0.985552
     45          1           0       -2.632720    1.175029   -1.219904
     46          1           0       -0.466717   -1.744519    0.878655
     47          1           0       -2.138858   -1.524524    1.369030
     48          1           0       -1.185821   -3.105053   -1.077842
     49          1           0       -2.874937   -2.868681   -0.631915
     50          1           0       -2.471728   -4.067726    1.539682
     51          1           0       -2.211706   -5.062115    0.117089
     52          1           0       -0.414586   -5.506706    1.750892
     53          1           0        0.021294   -3.797236    1.825355
     54          1           0        0.294266   -4.710141    0.336267
     55          1           0        0.120362    0.321820    1.135961
     56          1           0        0.974842   -0.519022    3.138544
     57          1           0        0.806592    0.021428    5.539681
     58          1           0        1.804538    2.124845    6.424399
     59          1           0        2.958461    3.682418    4.861145
     60          1           0        3.094193    3.159604    2.461953
     61          1           0        2.903971    3.614370   -0.650573
     62          1           0        4.590387    3.298260   -1.086099
     63          1           0        4.184138    3.770572    0.567198
     64          1           0        5.406117    1.213062    1.896492
     65          1           0        5.179032   -0.365192    1.128412
     66          1           0        6.099910    0.901381    0.297074
     67          1           0        4.080209    0.125750   -2.129195
     68          1           0        0.746196   -4.045117   -3.334390
     69          1           0        0.883379   -2.780748   -4.600334
     70          1           0        2.357678   -3.523615   -3.931555
     71          1           0       -2.219387   -1.652326   -2.789481
     72          1           0       -2.770934   -1.426345   -5.180901
     73          1           0       -1.639151    0.302571   -6.570690
     74          1           0        0.055954    1.797893   -5.527159
     75          1           0        0.612496    1.563707   -3.137469
 ---------------------------------------------------------------------

 SCF Done:  E(RB3LYP) =  -1683.44011252     A.U. after   15 cycles

 Excitation energies and oscillator strengths:

 Excited state symmetry could not be determined.
 Excited State   1:      Triplet-?Sym    1.6604 eV  746.73 nm  f=0.0000  <S**2>=2.000
     131 ->132         0.68601
     131 <-132         0.13332
 This state for optimization and/or second-order correction.
 Total Energy, E(TD-HF/TD-DFT) =  -1683.37909515
 Copying the excited state density for this state as the 1-particle RhoCI density.

 Excited state symmetry could not be determined.
 Excited State   2:      Triplet-?Sym    2.8343 eV  437.45 nm  f=0.0000  <S**2>=2.000
     124 ->132        -0.14377
     130 ->132         0.45439
     131 ->133         0.43425
     131 ->134         0.12111

 Excited state symmetry could not be determined.
 Excited State   3:      Singlet-?Sym    3.0995 eV  400.02 nm  f=0.5178  <S**2>=0.000
     131 ->132         0.69828

 Excited state symmetry could not be determined.
 Excited State   4:      Singlet-?Sym    3.6700 eV  337.83 nm  f=0.0276  <S**2>=0.000
     130 ->132        -0.46579
     131 ->133         0.51774

 Alpha  occ. eigenvalues --  -66.11722 -19.18362 -19.12341 -10.30524 -10.23219
 Alpha  occ. eigenvalues --  -10.20793 -10.20599 -10.20072 -10.20003 -10.19442
 Alpha  occ. eigenvalues --  -10.19340 -10.19238 -10.19131 -10.19024 -10.19000
 Alpha  occ. eigenvalues --  -10.18990 -10.18931 -10.18663 -10.18604 -10.18580
 Alpha  occ. eigenvalues --  -10.18575 -10.18473 -10.18380 -10.18329 -10.18298
 Alpha  occ. eigenvalues --  -10.18142 -10.18091 -10.18079 -10.17594 -10.17364
 Alpha  occ. eigenvalues --  -10.17233 -10.16983 -10.16971 -10.16093 -10.15761
 Alpha  occ. eigenvalues --   -5.26218  -3.62156  -3.62065  -3.62048  -1.09161
 Alpha  occ. eigenvalues --   -1.00176  -0.86552  -0.85060  -0.83708  -0.81662
 Alpha  occ. eigenvalues --   -0.79555  -0.78274  -0.77601  -0.75741  -0.74415
 Alpha  occ. eigenvalues --   -0.74073  -0.73794  -0.72928  -0.71706  -0.70499
 Alpha  occ. eigenvalues --   -0.69898  -0.68821  -0.67300  -0.64873  -0.63900
 Alpha  occ. eigenvalues --   -0.61975  -0.60883  -0.60125  -0.59996  -0.58951
 Alpha  occ. eigenvalues --   -0.57897  -0.57131  -0.56195  -0.55163  -0.53371
 Alpha  occ. eigenvalues --   -0.52205  -0.51836  -0.50197  -0.48432  -0.47775
 Alpha  occ. eigenvalues --   -0.47235  -0.46658  -0.46238  -0.45822  -0.45290
 Alpha  occ. eigenvalues --   -0.44847  -0.44226  -0.43963  -0.43796  -0.42904
 Alpha  occ. eigenvalues --   -0.42695  -0.42478  -0.42269  -0.41973  -0.41831
 Alpha  occ. eigenvalues --   -0.41477  -0.41099  -0.40523  -0.40314  -0.40120
 Alpha  occ. eigenvalues --   -0.39354  -0.39038  -0.38749  -0.38698  -0.38390
 Alpha  occ. eigenvalues --   -0.38055  -0.37236  -0.36519  -0.36355  -0.36044
 Alpha  occ. eigenvalues --   -0.35609  -0.35265  -0.34916  -0.34640  -0.34414
 Alpha  occ. eigenvalues --   -0.33988  -0.33755  -0.33438  -0.32972  -0.32749
 Alpha  occ. eigenvalues --   -0.32393  -0.32286  -0.32094  -0.31215  -0.30572
 Alpha  occ. eigenvalues --   -0.29982  -0.29242  -0.28668  -0.27631  -0.26248
 Alpha  occ. eigenvalues --   -0.25596  -0.25257  -0.24518  -0.24469  -0.22773
 Alpha  occ. eigenvalues --   -0.19061
 Alpha virt. eigenvalues --   -0.06730  -0.02931  -0.00302   0.00115   0.00326
 Alpha virt. eigenvalues --    0.01224   0.03338   0.05085   0.07783   0.08219
 Alpha virt. eigenvalues --    0.08972   0.09023   0.09446   0.09972   0.10408

 Mulliken charges:
               1
     1  C   -0.442240
     2  C   -0.248439
     3  C   -0.251681
     4  C   -0.305197
     5  C   -0.141669
     6  C    0.068452
     7  C   -0.330928
     8  C   -0.264178
     9  C   -0.250098
    10  C   -0.444551
    11  C   -0.030240
    12  C    0.090304
    13  C   -0.210693
    14  C   -0.161935
    15  C    0.131193
    16  C   -0.177110
    17  C   -0.132866
    18  C   -0.129685
    19  C   -0.137163
    20  C   -0.191004
    21  Si   0.635406
    22  C   -0.665327
    23  C   -0.657086
    24  C   -0.340150
    25  C    0.027263
    26  C    0.570190
    27  O   -0.494730
    28  O   -0.450042
    29  C   -0.219211
    30  C    0.079101
    31  C   -0.163988
    32  C   -0.140956
    33  C   -0.126177
    34  C   -0.122355
    35  C   -0.174821
    36  H    0.138966
    37  H    0.141448
    38  H    0.146556
    39  H    0.148766
    40  H    0.127316
    41  H    0.131120
    42  H    0.129350
    43  H    0.144980
    44  H    0.139309
    45  H    0.132561
    46  H    0.157570
    47  H    0.137793
    48  H    0.148977
    49  H    0.132228
    50  H    0.129228
    51  H    0.131532
    52  H    0.142243
    53  H    0.147848
    54  H    0.146658
    55  H    0.151527
    56  H    0.129568
    57  H    0.127047
    58  H    0.126885
    59  H    0.127595
    60  H    0.132711
    61  H    0.167863
    62  H    0.165964
    63  H    0.161154
    64  H    0.169747
    65  H    0.169192
    66  H    0.161184
    67  H    0.165404
    68  H    0.157076
    69  H    0.174493
    70  H    0.168948
    71  H    0.139898
    72  H    0.129988
    73  H    0.132213
    74  H    0.136456
    75  H    0.153246
 Sum of Mulliken charges =  -0.00000

 Dipole moment (field-independent basis, Debye):
    X=             -2.2886    Y=             -0.6869    Z=              0.5913  Tot=              2.4615
 Quadrupole moment (field-independent basis, Debye-Ang):
   XX=           -214.3853   YY=           -206.3012   ZZ=           -211.2529
   XY=              7.1987   XZ=              8.3534   YZ=              3.0831

 Normal termination of Gaussian 16 at Sat Nov  5 12:29:37 2022.
