 Gaussian 16, Revision B.01,
 Gaussian 16:  ES64L-G16RevB.01 20-Dec-2017

 -----------------------------
 #p b3lyp/6-31g(d) opt SCF=XQC
 -----------------------------

 ------------------------------
 Gaussian input prepared by ASE
 ------------------------------
 Symbolic Z-matrix:
 Charge =  0 Multiplicity = 1

 SCF Done:  E(RB3LYP) =  -1470.80009214     A.U. after   15 cycles
 SCF Done:  E(RB3LYP) =  -1470.80720047     A.U. after   14 cycles
 SCF Done:  E(RB3LYP) =  -1470.80603415     A.U. after   13 cycles
 SCF Done:  E(RB3LYP) =  -1470.81208914     A.U. after   13 cycles
 SCF Done:  E(RB3LYP) =  -1470.81285189     A.U. after   13 cycles
 SCF Done:  E(RB3LYP) =  -1470.81399643     A.U. after   12 cycles
 SCF Done:  E(RB3LYP) =  -1470.81470577     A.U. after   12 cycles
 SCF Done:  E(RB3LYP) =  -1470.81561898     A.U. after   14 cycles
 SCF Done:  E(RB3LYP) =  -1470.81493123     A.U. after   15 cycles
 SCF Done:  E(RB3LYP) =  -1470.81640731     A.U. after   12 cycles
 SCF Done:  E(RB3LYP) =  -1470.81674519     A.U. after   10 cycles
 SCF Done:  E(RB3LYP) =  -1470.81674950     A.U. after    9 cycles
 SCF Done:  E(RB3LYP) =  -1470.81675109     A.U. after    8 cycles
 SCF Done:  E(RB3LYP) =  -1470.81675153     A.U. after    8 cycles
 SCF Done:  E(RB3LYP) =  -1470.81675177     A.U. after    8 cycles
 SCF Done:  E(RB3LYP) =  -1470.81675182     A.U. after    7 cycles
 SCF Done:  E(RB3LYP) =  -1470.81675183     A.U. after    7 cycles
 SCF Done:  E(RB3LYP) =  -1470.81675185     A.U. after    7 cycles
 SCF Done:  E(RB3LYP) =  -1470.81675186     A.U. after    6 cycles
 SCF Done:  E(RB3LYP) =  -1470.81675187     A.U. after    6 cycles
 Optimization completed.
    -- Stationary point found.

                         Standard orientation:
 ---------------------------------------------------------------------
 Center     Atomic      Atomic             Coordinates (Angstroms)
 Number     Number       Type             X           Y           Z
 ---------------------------------------------------------------------
      1          6           0       -7.682562   -2.921085    0.434001
      2          6           0       -6.418161   -3.177886   -0.405976
      3          6           0       -5.407079   -2.055539   -0.302658
      4          6           0       -4.428826   -2.057654    0.700536
      5          6           0       -3.523659   -1.006454    0.828042
      6          6           0       -3.581699    0.065424   -0.060830
      7          7           0       -2.640895    1.155943    0.062356
      8          6           0       -3.144805    2.393423    0.482952
      9          8           0       -4.315140    2.589526    0.747867
     10          7           0       -2.199489    3.403648    0.575632
     11          6           0       -0.829248    3.357571    0.316800
     12          8           0       -0.170115    4.380958    0.466946
     13          6           0       -0.336297    2.049030   -0.113063
     14          6           0        0.969968    1.732225   -0.421414
     15          6           0        2.193832    2.443254   -0.463662
     16          6           0        2.572841    3.775767   -0.204230
     17          6           0        3.949682    3.891633   -0.420419
     18          6           0        4.410754    2.639112   -0.812809
     19          7           0        3.373527    1.766548   -0.848005
     20          6           0        3.527284    0.351709   -1.170702
     21          6           0        3.706212   -0.567507    0.030072
     22          6           0        3.749199   -0.073522    1.316134
     23          6           0        3.930308   -0.932762    2.426834
     24          6           0        4.071297   -2.285727    2.240620
     25          6           0        4.037327   -2.841451    0.933244
     26          6           0        4.184950   -4.237424    0.719602
     27          6           0        4.153454   -4.769726   -0.549236
     28          6           0        3.970641   -3.920662   -1.664542
     29          6           0        3.823757   -2.561181   -1.491955
     30          6           0        3.851284   -1.975893   -0.195757
     31          6           0       -1.285322    0.910596   -0.251145
     32          8           0       -0.942824   -0.204467   -0.618989
     33          6           0       -4.541451    0.085817   -1.070950
     34          6           0       -5.446820   -0.967218   -1.183889
     35          1           0       -8.392169   -3.750847    0.336169
     36          1           0       -8.186160   -2.002025    0.114213
     37          1           0       -7.432821   -2.809429    1.495047
     38          1           0       -5.955661   -4.118972   -0.082489
     39          1           0       -6.705410   -3.316846   -1.455907
     40          1           0       -4.372424   -2.895373    1.391942
     41          1           0       -2.766207   -1.021183    1.605021
     42          1           0       -2.561693    4.300006    0.879055
     43          1           0        1.049446    0.680973   -0.689543
     44          1           0        1.878435    4.540415    0.101046
     45          1           0        4.553482    4.782365   -0.316363
     46          1           0        5.409439    2.311694   -1.069105
     47          1           0        4.397731    0.276851   -1.832618
     48          1           0        2.668357    0.038018   -1.772202
     49          1           0        3.640365    0.992354    1.488461
     50          1           0        3.955715   -0.509415    3.426932
     51          1           0        4.210749   -2.951308    3.088939
     52          1           0        4.323798   -4.882369    1.584075
     53          1           0        4.266782   -5.840008   -0.697415
     54          1           0        3.943200   -4.343911   -2.664873
     55          1           0        3.681237   -1.934323   -2.366628
     56          1           0       -4.580562    0.923408   -1.760042
     57          1           0       -6.194164   -0.944385   -1.973786
 ---------------------------------------------------------------------

 The electronic state is 1-A.
 Alpha  occ. eigenvalues --  -19.12795 -19.12539 -19.12408 -14.40789 -14.38831
 Alpha  occ. eigenvalues --  -14.38056 -10.33162 -10.30600 -10.30320 -10.25452
 Alpha  occ. eigenvalues --  -10.23878 -10.23450 -10.22883 -10.22416 -10.21290
 Alpha  occ. eigenvalues --  -10.21007 -10.20870 -10.20587 -10.20009 -10.19944
 Alpha  occ. eigenvalues --  -10.19887 -10.19857 -10.19808 -10.19788 -10.19739
 Alpha  occ. eigenvalues --  -10.19200 -10.19180 -10.19135 -10.18807 -10.18789
 Alpha  occ. eigenvalues --  -10.18579 -10.18425 -10.18422 -10.17455  -1.07296
 Alpha  occ. eigenvalues --   -1.04367  -1.04031  -1.00841  -0.95163  -0.92191
 Alpha  occ. eigenvalues --   -0.88323  -0.84966  -0.83921  -0.82346  -0.81859
 Alpha  occ. eigenvalues --   -0.78224  -0.78142  -0.75533  -0.74775  -0.74272
 Alpha  occ. eigenvalues --   -0.73502  -0.72067  -0.69953  -0.68185  -0.65483
 Alpha  occ. eigenvalues --   -0.64395  -0.63063  -0.62209  -0.61908  -0.60848
 Alpha  occ. eigenvalues --   -0.59929  -0.59714  -0.58424  -0.57098  -0.55042
 Alpha  occ. eigenvalues --   -0.54618  -0.52629  -0.51529  -0.51095  -0.50129
 Alpha  occ. eigenvalues --   -0.49805  -0.48529  -0.47312  -0.46791  -0.46348
 Alpha  occ. eigenvalues --   -0.45783  -0.45430  -0.44762  -0.44246  -0.43831
 Alpha  occ. eigenvalues --   -0.43554  -0.43336  -0.42881  -0.42352  -0.42304
 Alpha  occ. eigenvalues --   -0.41925  -0.41594  -0.41408  -0.41365  -0.40172
 Alpha  occ. eigenvalues --   -0.40116  -0.39824  -0.39518  -0.39275  -0.38610
 Alpha  occ. eigenvalues --   -0.37882  -0.37612  -0.37294  -0.35261  -0.34629
 Alpha  occ. eigenvalues --   -0.34547  -0.33964  -0.33356  -0.33267  -0.33240
 Alpha  occ. eigenvalues --   -0.30544  -0.29160  -0.28672  -0.28027  -0.27934
 Alpha  occ. eigenvalues --   -0.27578  -0.25922  -0.25076  -0.24959  -0.24474
 Alpha  occ. eigenvalues --   -0.23282  -0.22496  -0.21892
 Alpha virt. eigenvalues --   -0.08334  -0.04799  -0.01657  -0.00371   0.00422
 Alpha virt. eigenvalues --    0.01409   0.01722   0.02558   0.04443   0.08058
 Alpha virt. eigenvalues --    0.08597   0.08693   0.08993   0.09337   0.10226

 Mulliken charges:
               1
     1  C   -0.433675
     2  C   -0.343065
     3  C    0.192265
     4  C   -0.202477
     5  C   -0.106494
     6  C    0.284542
     7  N   -0.670568
     8  C    0.774544
     9  O   -0.488430
    10  N   -0.701840
    11  C    0.594670
    12  O   -0.514765
    13  C   -0.024212
    14  C   -0.252555
    15  C    0.313815
    16  C   -0.181836
    17  C   -0.195844
    18  C    0.056250
    19  N   -0.448748
    20  C   -0.244877
    21  C    0.104030
    22  C   -0.196424
    23  C   -0.134294
    24  C   -0.185233
    25  C    0.134417
    26  C   -0.191942
    27  C   -0.131178
    28  C   -0.131467
    29  C   -0.199388
    30  C    0.088115
    31  C    0.597168
    32  O   -0.507726
    33  C   -0.107676
    34  C   -0.202297
    35  H    0.143006
    36  H    0.152337
    37  H    0.150847
    38  H    0.143809
    39  H    0.143597
    40  H    0.125970
    41  H    0.138500
    42  H    0.354238
    43  H    0.197111
    44  H    0.207481
    45  H    0.144798
    46  H    0.164387
    47  H    0.178466
    48  H    0.194652
    49  H    0.150446
    50  H    0.136662
    51  H    0.133690
    52  H    0.134228
    53  H    0.134733
    54  H    0.134636
    55  H    0.129462
    56  H    0.137911
    57  H    0.126228
 Sum of Mulliken charges =  -0.00000

 Dipole moment (field-independent basis, Debye):
    X=              4.5859    Y=             -2.5966    Z=             -0.9802  Tot=              5.3604
 Quadrupole moment (field-independent basis, Debye-Ang):
   XX=           -180.3121   YY=           -188.5726   ZZ=           -183.6145
   XY=              8.9672   XZ=              1.3860   YZ=             -4.2539

 Normal termination of Gaussian 16 at Fri Nov  4 20:58:32 2022.
