 Gaussian 16, Revision B.01,
 Gaussian 16:  ES64L-G16RevB.01 20-Dec-2017

 -------------------------------------------------------------------
 #p b3lyp/6-31g(d) 6D 10F nosymm GFInput td=(50-50,nstate=2) SCF=XQC
 -------------------------------------------------------------------

 ------------------------------
 Gaussian input prepared by ASE
 ------------------------------
 Symbolic Z-matrix:
 Charge =  0 Multiplicity = 1

                          Input orientation:
 ---------------------------------------------------------------------
 Center     Atomic      Atomic             Coordinates (Angstroms)
 Number     Number       Type             X           Y           Z
 ---------------------------------------------------------------------
      1          6           0        7.167603    3.047823   -1.920376
      2          6           0        5.951320    2.406791   -2.613159
      3          6           0        5.076868    1.623346   -1.657036
      4          6           0        4.029787    2.245622   -0.964379
      5          6           0        3.249749    1.540734   -0.050442
      6          6           0        3.505157    0.189627    0.176855
      7          7           0        2.694893   -0.548714    1.119108
      8          6           0        3.308757   -0.959096    2.309462
      9          8           0        4.469756   -0.724944    2.584369
     10          7           0        2.486810   -1.669358    3.171261
     11          6           0        1.145440   -2.022955    3.021681
     12          8           0        0.603801   -2.659077    3.919621
     13          6           0        0.534644   -1.572315    1.771115
     14          6           0       -0.771928   -1.780184    1.381970
     15          6           0       -1.894791   -2.437793    1.940469
     16          6           0       -2.130756   -3.152050    3.132400
     17          6           0       -3.462618   -3.578660    3.133374
     18          6           0       -4.038095   -3.131471    1.948378
     19          7           0       -3.113213   -2.453879    1.224564
     20          6           0       -3.409426   -1.807514   -0.049805
     21          6           0       -3.790657   -0.336412    0.046892
     22          6           0       -3.874893    0.308168    1.262312
     23          6           0       -4.244043    1.672551    1.345587
     24          6           0       -4.530913    2.383622    0.206663
     25          6           0       -4.461321    1.761485   -1.069001
     26          6           0       -4.757755    2.478669   -2.258097
     27          6           0       -4.690829    1.870138   -3.490777
     28          6           0       -4.320848    0.509069   -3.584821
     29          6           0       -4.026296   -0.215646   -2.450108
     30          6           0       -4.085096    0.379934   -1.159653
     31          6           0        1.348477   -0.813225    0.782578
     32          8           0        0.904882   -0.419713   -0.287165
     33          6           0        4.536658   -0.452170   -0.505775
     34          6           0        5.315534    0.264896   -1.411590
     35          1           0        7.778269    3.605673   -2.639756
     36          1           0        7.801085    2.284816   -1.454473
     37          1           0        6.850621    3.740588   -1.132812
     38          1           0        5.355586    3.192407   -3.094927
     39          1           0        6.301285    1.745123   -3.415590
     40          1           0        3.819504    3.297577   -1.143730
     41          1           0        2.437419    2.031144    0.476119
     42          1           0        2.928782   -1.967927    4.032789
     43          1           0       -0.955390   -1.316497    0.415183
     44          1           0       -1.375907   -3.318801    3.882385
     45          1           0       -3.961756   -4.156514    3.898717
     46          1           0       -5.045603   -3.251034    1.573018
     47          1           0       -4.227991   -2.377403   -0.504330
     48          1           0       -2.549728   -1.940496   -0.714030
     49          1           0       -3.653118   -0.233032    2.176398
     50          1           0       -4.296918    2.149679    2.320071
     51          1           0       -4.815090    3.431540    0.263265
     52          1           0       -5.040129    3.525553   -2.175364
     53          1           0       -4.919472    2.431738   -4.392238
     54          1           0       -4.265931    0.031982   -4.559464
     55          1           0       -3.741652   -1.258067   -2.553325
     56          1           0        4.729631   -1.504678   -0.324322
     57          1           0        6.119842   -0.241845   -1.940063
 ---------------------------------------------------------------------

 SCF Done:  E(RB3LYP) =  -1470.81674355     A.U. after   15 cycles

 Excitation energies and oscillator strengths:

 Excited state symmetry could not be determined.
 Excited State   1:      Triplet-?Sym    2.1638 eV  572.99 nm  f=0.0000  <S**2>=2.000
     117 ->119         0.36729
     118 ->119         0.58747
 This state for optimization and/or second-order correction.
 Total Energy, E(TD-HF/TD-DFT) =  -1470.73722434
 Copying the excited state density for this state as the 1-particle RhoCI density.

 Excited state symmetry could not be determined.
 Excited State   2:      Triplet-?Sym    2.7085 eV  457.77 nm  f=0.0000  <S**2>=2.000
     108 ->126        -0.14105
     113 ->121        -0.17204
     117 ->120        -0.52187
     118 ->120         0.42869

 Excited state symmetry could not be determined.
 Excited State   3:      Singlet-?Sym    3.2629 eV  379.98 nm  f=0.0226  <S**2>=0.000
     117 ->119        -0.46925
     118 ->119         0.52633

 Excited state symmetry could not be determined.
 Excited State   4:      Singlet-?Sym    3.4295 eV  361.52 nm  f=0.0138  <S**2>=0.000
     114 ->119        -0.43673
     116 ->119         0.52564
     117 ->119        -0.11157

 Alpha  occ. eigenvalues --  -19.12795 -19.12539 -19.12408 -14.40789 -14.38831
 Alpha  occ. eigenvalues --  -14.38056 -10.33162 -10.30600 -10.30320 -10.25452
 Alpha  occ. eigenvalues --  -10.23878 -10.23450 -10.22883 -10.22416 -10.21290
 Alpha  occ. eigenvalues --  -10.21007 -10.20870 -10.20587 -10.20009 -10.19944
 Alpha  occ. eigenvalues --  -10.19887 -10.19857 -10.19808 -10.19788 -10.19739
 Alpha  occ. eigenvalues --  -10.19200 -10.19180 -10.19135 -10.18807 -10.18789
 Alpha  occ. eigenvalues --  -10.18579 -10.18425 -10.18422 -10.17455  -1.07296
 Alpha  occ. eigenvalues --   -1.04367  -1.04031  -1.00841  -0.95163  -0.92191
 Alpha  occ. eigenvalues --   -0.88323  -0.84966  -0.83921  -0.82346  -0.81859
 Alpha  occ. eigenvalues --   -0.78224  -0.78143  -0.75533  -0.74775  -0.74272
 Alpha  occ. eigenvalues --   -0.73502  -0.72067  -0.69953  -0.68185  -0.65483
 Alpha  occ. eigenvalues --   -0.64395  -0.63063  -0.62209  -0.61908  -0.60848
 Alpha  occ. eigenvalues --   -0.59929  -0.59714  -0.58424  -0.57098  -0.55042
 Alpha  occ. eigenvalues --   -0.54618  -0.52629  -0.51529  -0.51095  -0.50129
 Alpha  occ. eigenvalues --   -0.49805  -0.48529  -0.47312  -0.46791  -0.46348
 Alpha  occ. eigenvalues --   -0.45783  -0.45430  -0.44762  -0.44246  -0.43831
 Alpha  occ. eigenvalues --   -0.43554  -0.43336  -0.42881  -0.42352  -0.42304
 Alpha  occ. eigenvalues --   -0.41925  -0.41594  -0.41408  -0.41365  -0.40172
 Alpha  occ. eigenvalues --   -0.40116  -0.39824  -0.39518  -0.39275  -0.38610
 Alpha  occ. eigenvalues --   -0.37882  -0.37612  -0.37294  -0.35261  -0.34629
 Alpha  occ. eigenvalues --   -0.34547  -0.33964  -0.33356  -0.33267  -0.33240
 Alpha  occ. eigenvalues --   -0.30544  -0.29160  -0.28672  -0.28027  -0.27934
 Alpha  occ. eigenvalues --   -0.27578  -0.25922  -0.25076  -0.24959  -0.24474
 Alpha  occ. eigenvalues --   -0.23282  -0.22496  -0.21892
 Alpha virt. eigenvalues --   -0.08334  -0.04799  -0.01657  -0.00372   0.00422
 Alpha virt. eigenvalues --    0.01409   0.01722   0.02558   0.04443   0.08058
 Alpha virt. eigenvalues --    0.08597   0.08693   0.08993   0.09337   0.10226

 Mulliken charges:
               1
     1  C   -0.433673
     2  C   -0.343061
     3  C    0.192254
     4  C   -0.202481
     5  C   -0.106479
     6  C    0.284532
     7  N   -0.670567
     8  C    0.774529
     9  O   -0.488426
    10  N   -0.701830
    11  C    0.594681
    12  O   -0.514767
    13  C   -0.024241
    14  C   -0.252547
    15  C    0.313814
    16  C   -0.181841
    17  C   -0.195849
    18  C    0.056250
    19  N   -0.448741
    20  C   -0.244890
    21  C    0.104049
    22  C   -0.196443
    23  C   -0.134291
    24  C   -0.185236
    25  C    0.134409
    26  C   -0.191943
    27  C   -0.131173
    28  C   -0.131466
    29  C   -0.199394
    30  C    0.088135
    31  C    0.597182
    32  O   -0.507722
    33  C   -0.107674
    34  C   -0.202298
    35  H    0.143006
    36  H    0.152336
    37  H    0.150846
    38  H    0.143808
    39  H    0.143597
    40  H    0.125970
    41  H    0.138499
    42  H    0.354238
    43  H    0.197110
    44  H    0.207484
    45  H    0.144798
    46  H    0.164388
    47  H    0.178465
    48  H    0.194655
    49  H    0.150447
    50  H    0.136661
    51  H    0.133690
    52  H    0.134229
    53  H    0.134731
    54  H    0.134634
    55  H    0.129463
    56  H    0.137913
    57  H    0.126228
 Sum of Mulliken charges =  -0.00000

 Dipole moment (field-independent basis, Debye):
    X=             -4.7726    Y=              0.3025    Z=             -2.4215  Tot=              5.3603
 Quadrupole moment (field-independent basis, Debye-Ang):
   XX=           -181.7813   YY=           -180.3134   ZZ=           -191.5335
   XY=              5.7883   XZ=             -9.5756   YZ=              1.1309

 Normal termination of Gaussian 16 at Sat Nov  5 12:28:26 2022.
