 Gaussian 16, Revision B.01,
 Gaussian 16:  ES64L-G16RevB.01 20-Dec-2017

 -------------------------------------------------------------------
 #p b3lyp/6-31g(d) 6D 10F nosymm GFInput td=(50-50,nstate=2) SCF=XQC
 -------------------------------------------------------------------

 ------------------------------
 Gaussian input prepared by ASE
 ------------------------------
 Symbolic Z-matrix:
 Charge =  0 Multiplicity = 1

                          Input orientation:
 ---------------------------------------------------------------------
 Center     Atomic      Atomic             Coordinates (Angstroms)
 Number     Number       Type             X           Y           Z
 ---------------------------------------------------------------------
      1          6           0        6.195111    3.606778   -2.294151
      2          6           0        4.984404    2.706637   -2.024560
      3          6           0        5.354280    1.495803   -1.167601
      4          8           0        4.257163    0.598786   -0.971066
      5          6           0        3.340547    0.840497    0.009511
      6          6           0        3.351844    1.936651    0.881452
      7          6           0        2.369438    2.038765    1.871300
      8          6           0        1.377370    1.073499    2.003615
      9          6           0        1.344536   -0.006574    1.108617
     10          6           0        0.313561   -1.080125    1.339706
     11          8           0        0.164340   -1.536541    2.475549
     12          7           0       -0.417871   -1.564265    0.279665
     13          6           0       -0.589387   -0.870071   -1.008785
     14          6           0       -1.966334   -0.250058   -1.188970
     15          6           0       -2.855946   -0.750629   -2.149239
     16          6           0       -4.111963   -0.166715   -2.304285
     17          6           0       -4.503139    0.915728   -1.514244
     18          6           0       -3.613692    1.419925   -0.555154
     19          8           0       -3.879199    2.473940    0.269089
     20          6           0       -5.140440    3.115788    0.158492
     21          6           0       -2.350840    0.834308   -0.399262
     22          6           0       -1.312959   -2.709589    0.523728
     23          6           0       -2.453999   -2.445309    1.580117
     24          6           0       -2.356277   -3.461907    2.722013
     25         16           0       -1.686086   -4.951608    1.920848
     26          8           0       -0.986515   -5.833321    2.866212
     27          8           0       -2.719910   -5.496309    1.019096
     28          6           0       -0.523237   -3.980880    0.909436
     29          6           0        2.327071   -0.123239    0.124398
     30          1           0        6.615175    4.005347   -1.362547
     31          1           0        6.992998    3.059342   -2.810452
     32          1           0        5.916999    4.458751   -2.922974
     33          1           0        4.564379    2.341506   -2.969753
     34          1           0        4.191036    3.281685   -1.532049
     35          1           0        5.776128    1.799529   -0.200170
     36          1           0        6.110934    0.892056   -1.678772
     37          1           0        4.112811    2.704502    0.806032
     38          1           0        2.391452    2.887150    2.549922
     39          1           0        0.636223    1.135859    2.793193
     40          1           0        0.173991   -0.096008   -1.076715
     41          1           0       -0.400529   -1.584821   -1.819100
     42          1           0       -2.563456   -1.589687   -2.775510
     43          1           0       -4.801619   -0.556396   -3.048160
     44          1           0       -5.485120    1.353472   -1.651159
     45          1           0       -5.133270    3.917120    0.899390
     46          1           0       -5.965517    2.425888    0.379240
     47          1           0       -5.287907    3.547060   -0.840396
     48          1           0       -1.679974    1.250236    0.347535
     49          1           0       -1.800316   -2.902001   -0.432566
     50          1           0       -2.373714   -1.431881    1.973472
     51          1           0       -3.420203   -2.540099    1.078000
     52          1           0       -1.630729   -3.156972    3.478779
     53          1           0       -3.313149   -3.718417    3.182113
     54          1           0        0.335603   -3.756372    1.542348
     55          1           0       -0.223850   -4.585804    0.051142
     56          1           0        2.349756   -0.971003   -0.553401
 ---------------------------------------------------------------------

 SCF Done:  E(RB3LYP) =  -1683.59467455     A.U. after   15 cycles

 Excitation energies and oscillator strengths:

 Excited state symmetry could not be determined.
 Excited State   1:      Triplet-?Sym    3.5544 eV  348.82 nm  f=0.0000  <S**2>=2.000
     105 ->112         0.16742
     107 ->112        -0.13320
     108 ->112        -0.31863
     109 ->112        -0.12021
     111 ->112         0.32835
     111 ->113        -0.14463
     111 ->114         0.38841
     111 ->116         0.10434
 This state for optimization and/or second-order correction.
 Total Energy, E(TD-HF/TD-DFT) =  -1683.46405414
 Copying the excited state density for this state as the 1-particle RhoCI density.

 Excited state symmetry could not be determined.
 Excited State   2:      Triplet-?Sym    3.6781 eV  337.09 nm  f=0.0000  <S**2>=2.000
     105 ->113         0.13169
     107 ->112         0.10484
     107 ->113         0.34106
     109 ->113         0.23298
     110 ->113         0.21870
     110 ->115        -0.44996

 Excited state symmetry could not be determined.
 Excited State   3:      Singlet-?Sym    4.5764 eV  270.92 nm  f=0.0614  <S**2>=0.000
     105 ->112        -0.11084
     105 ->114        -0.10592
     108 ->112        -0.14090
     111 ->112         0.64642

 Excited state symmetry could not be determined.
 Excited State   4:      Singlet-?Sym    4.8021 eV  258.19 nm  f=0.0040  <S**2>=0.000
     105 ->112         0.10022
     108 ->112         0.22433
     109 ->112         0.13426
     110 ->112         0.61529

 Alpha  occ. eigenvalues --  -89.07182 -19.18732 -19.18459 -19.12533 -19.12172
 Alpha  occ. eigenvalues --  -19.12169 -14.37743 -10.29595 -10.26071 -10.25869
 Alpha  occ. eigenvalues --  -10.25027 -10.24965 -10.24826 -10.23896 -10.21402
 Alpha  occ. eigenvalues --  -10.21094 -10.21054 -10.20909 -10.20259 -10.20257
 Alpha  occ. eigenvalues --  -10.20037 -10.20007 -10.19928 -10.19877 -10.19794
 Alpha  occ. eigenvalues --  -10.19499 -10.19433 -10.19419 -10.19177  -8.10245
 Alpha  occ. eigenvalues --   -6.06666  -6.06578  -6.06553  -1.07895  -1.07338
 Alpha  occ. eigenvalues --   -1.07016  -1.04194  -0.97635  -0.94511  -0.86418
 Alpha  occ. eigenvalues --   -0.86300  -0.83538  -0.80154  -0.77903  -0.76950
 Alpha  occ. eigenvalues --   -0.76604  -0.75389  -0.74611  -0.71437  -0.70465
 Alpha  occ. eigenvalues --   -0.70070  -0.69432  -0.64411  -0.62209  -0.61880
 Alpha  occ. eigenvalues --   -0.61569  -0.59545  -0.59189  -0.57975  -0.55550
 Alpha  occ. eigenvalues --   -0.54414  -0.52847  -0.51644  -0.50237  -0.49847
 Alpha  occ. eigenvalues --   -0.49726  -0.49552  -0.48457  -0.47713  -0.47477
 Alpha  occ. eigenvalues --   -0.47237  -0.46527  -0.45781  -0.45445  -0.45338
 Alpha  occ. eigenvalues --   -0.44226  -0.43863  -0.43643  -0.42798  -0.42299
 Alpha  occ. eigenvalues --   -0.41859  -0.41493  -0.40992  -0.40781  -0.39985
 Alpha  occ. eigenvalues --   -0.39406  -0.38569  -0.38326  -0.38169  -0.37691
 Alpha  occ. eigenvalues --   -0.37441  -0.37279  -0.36789  -0.36653  -0.35783
 Alpha  occ. eigenvalues --   -0.35232  -0.35042  -0.33637  -0.33064  -0.32760
 Alpha  occ. eigenvalues --   -0.32192  -0.30632  -0.29531  -0.28060  -0.27253
 Alpha  occ. eigenvalues --   -0.27009  -0.26090  -0.25310  -0.24541  -0.23022
 Alpha  occ. eigenvalues --   -0.22714
 Alpha virt. eigenvalues --   -0.03405  -0.01853  -0.00276   0.00076   0.03778
 Alpha virt. eigenvalues --    0.06720   0.06877   0.07883   0.08005   0.08908
 Alpha virt. eigenvalues --    0.09166   0.09890   0.10136   0.10408   0.10633

 Mulliken charges:
               1
     1  C   -0.453116
     2  C   -0.276822
     3  C   -0.034864
     4  O   -0.526779
     5  C    0.385077
     6  C   -0.185209
     7  C   -0.144520
     8  C   -0.154055
     9  C    0.059180
    10  C    0.516093
    11  O   -0.526741
    12  N   -0.421354
    13  C   -0.268724
    14  C    0.168006
    15  C   -0.189751
    16  C   -0.134300
    17  C   -0.193806
    18  C    0.380617
    19  O   -0.506162
    20  C   -0.217506
    21  C   -0.229835
    22  C    0.031360
    23  C   -0.281257
    24  C   -0.489077
    25  S    1.124298
    26  O   -0.518462
    27  O   -0.560579
    28  C   -0.506594
    29  C   -0.224439
    30  H    0.147276
    31  H    0.149766
    32  H    0.156370
    33  H    0.153337
    34  H    0.150092
    35  H    0.142428
    36  H    0.156141
    37  H    0.138337
    38  H    0.138670
    39  H    0.148369
    40  H    0.190706
    41  H    0.158042
    42  H    0.127699
    43  H    0.137719
    44  H    0.136398
    45  H    0.173315
    46  H    0.154770
    47  H    0.153979
    48  H    0.142742
    49  H    0.172660
    50  H    0.182470
    51  H    0.171937
    52  H    0.224266
    53  H    0.197464
    54  H    0.227982
    55  H    0.198171
    56  H    0.148218
 Sum of Mulliken charges =  -0.00000

 Dipole moment (field-independent basis, Debye):
    X=              0.7066    Y=              8.9609    Z=             -4.3399  Tot=              9.9816
 Quadrupole moment (field-independent basis, Debye-Ang):
   XX=           -145.4175   YY=           -215.1268   ZZ=           -181.9585
   XY=            -10.5592   XZ=             -2.8698   YZ=             20.6182

 Normal termination of Gaussian 16 at Sat Nov  5 12:09:31 2022.
