 Gaussian 16, Revision B.01,
 Gaussian 16:  ES64L-G16RevB.01 20-Dec-2017

 -----------------------------
 #p b3lyp/6-31g(d) opt SCF=XQC
 -----------------------------

 ------------------------------
 Gaussian input prepared by ASE
 ------------------------------
 Symbolic Z-matrix:
 Charge =  0 Multiplicity = 1

 SCF Done:  E(RB3LYP) =  -1683.58230860     A.U. after   14 cycles
 SCF Done:  E(RB3LYP) =  -1683.59264293     A.U. after   13 cycles
 SCF Done:  E(RB3LYP) =  -1683.59391697     A.U. after   12 cycles
 SCF Done:  E(RB3LYP) =  -1683.59431367     A.U. after   12 cycles
 SCF Done:  E(RB3LYP) =  -1683.59446985     A.U. after   12 cycles
 SCF Done:  E(RB3LYP) =  -1683.59459994     A.U. after   11 cycles
 SCF Done:  E(RB3LYP) =  -1683.59464971     A.U. after   11 cycles
 SCF Done:  E(RB3LYP) =  -1683.59467074     A.U. after   10 cycles
 SCF Done:  E(RB3LYP) =  -1683.59467439     A.U. after    8 cycles
 SCF Done:  E(RB3LYP) =  -1683.59467593     A.U. after    9 cycles
 SCF Done:  E(RB3LYP) =  -1683.59467670     A.U. after    8 cycles
 SCF Done:  E(RB3LYP) =  -1683.59467767     A.U. after    9 cycles
 SCF Done:  E(RB3LYP) =  -1683.59467806     A.U. after    8 cycles
 SCF Done:  E(RB3LYP) =  -1683.59467814     A.U. after    7 cycles
 SCF Done:  E(RB3LYP) =  -1683.59467813     A.U. after    7 cycles
 SCF Done:  E(RB3LYP) =  -1683.59467812     A.U. after    6 cycles
 Optimization completed.
    -- Stationary point found.

                         Standard orientation:
 ---------------------------------------------------------------------
 Center     Atomic      Atomic             Coordinates (Angstroms)
 Number     Number       Type             X           Y           Z
 ---------------------------------------------------------------------
      1          6           0        8.049378   -0.007304   -0.971891
      2          6           0        6.517943   -0.012461   -1.030377
      3          6           0        5.941387   -1.398366   -0.740276
      4          8           0        4.517284   -1.445358   -0.869324
      5          6           0        3.721268   -1.048317    0.164532
      6          6           0        4.172243   -0.562154    1.398320
      7          6           0        3.242429   -0.228814    2.388107
      8          6           0        1.876323   -0.366810    2.168661
      9          6           0        1.422254   -0.820531    0.921017
     10          6           0       -0.057232   -1.046341    0.750859
     11          8           0       -0.674434   -1.669376    1.617815
     12          7           0       -0.691695   -0.591897   -0.382282
     13          6           0       -0.161612    0.448366   -1.281333
     14          6           0       -0.863857    1.790169   -1.142473
     15          6           0       -1.654264    2.294842   -2.183943
     16          6           0       -2.286325    3.528848   -2.041459
     17          6           0       -2.145632    4.276873   -0.871190
     18          6           0       -1.353042    3.775307    0.170644
     19          8           0       -1.135928    4.415109    1.355690
     20          6           0       -1.748435    5.678892    1.562130
     21          6           0       -0.716701    2.535646    0.027972
     22          6           0       -2.106905   -0.956112   -0.574750
     23          6           0       -3.084209   -0.432503    0.547071
     24          6           0       -3.825974   -1.610305    1.187006
     25         16           0       -3.974953   -2.816690   -0.166756
     26          8           0       -4.120546   -4.195622    0.320974
     27          8           0       -4.917343   -2.276192   -1.165962
     28          6           0       -2.285556   -2.480223   -0.758543
     29          6           0        2.342691   -1.166328   -0.069383
     30          1           0        8.414712   -0.291031    0.022709
     31          1           0        8.479309   -0.709750   -1.696189
     32          1           0        8.446299    0.987440   -1.198959
     33          1           0        6.174559    0.299906   -2.024181
     34          1           0        6.112339    0.715177   -0.317138
     35          1           0        6.246537   -1.763558    0.249495
     36          1           0        6.305384   -2.118072   -1.480454
     37          1           0        5.230291   -0.445400    1.601438
     38          1           0        3.601216    0.138137    3.345912
     39          1           0        1.157496   -0.140407    2.948822
     40          1           0        0.900321    0.565589   -1.068984
     41          1           0       -0.249073    0.094392   -2.315837
     42          1           0       -1.768934    1.726217   -3.103344
     43          1           0       -2.900115    3.918733   -2.848973
     44          1           0       -2.647201    5.233461   -0.781630
     45          1           0       -1.441341    5.999873    2.559014
     46          1           0       -2.843460    5.607807    1.525906
     47          1           0       -1.409958    6.417238    0.823349
     48          1           0       -0.103482    2.175045    0.849368
     49          1           0       -2.402949   -0.474901   -1.507398
     50          1           0       -2.525150    0.114590    1.306251
     51          1           0       -3.800241    0.255205    0.089892
     52          1           0       -3.234707   -2.087287    1.971219
     53          1           0       -4.828795   -1.370847    1.547705
     54          1           0       -1.608286   -3.053872   -0.125439
     55          1           0       -2.212537   -2.805911   -1.798172
     56          1           0        2.019587   -1.560205   -1.028078
 ---------------------------------------------------------------------

 The electronic state is 1-A.
 Alpha  occ. eigenvalues --  -89.07182 -19.18732 -19.18459 -19.12533 -19.12172
 Alpha  occ. eigenvalues --  -19.12169 -14.37743 -10.29595 -10.26071 -10.25869
 Alpha  occ. eigenvalues --  -10.25026 -10.24965 -10.24826 -10.23896 -10.21402
 Alpha  occ. eigenvalues --  -10.21094 -10.21054 -10.20909 -10.20259 -10.20257
 Alpha  occ. eigenvalues --  -10.20037 -10.20007 -10.19928 -10.19877 -10.19794
 Alpha  occ. eigenvalues --  -10.19499 -10.19433 -10.19419 -10.19177  -8.10245
 Alpha  occ. eigenvalues --   -6.06666  -6.06578  -6.06553  -1.07895  -1.07338
 Alpha  occ. eigenvalues --   -1.07016  -1.04194  -0.97635  -0.94511  -0.86417
 Alpha  occ. eigenvalues --   -0.86300  -0.83538  -0.80154  -0.77903  -0.76950
 Alpha  occ. eigenvalues --   -0.76604  -0.75389  -0.74611  -0.71437  -0.70465
 Alpha  occ. eigenvalues --   -0.70070  -0.69432  -0.64411  -0.62209  -0.61880
 Alpha  occ. eigenvalues --   -0.61569  -0.59545  -0.59189  -0.57975  -0.55550
 Alpha  occ. eigenvalues --   -0.54414  -0.52847  -0.51644  -0.50237  -0.49847
 Alpha  occ. eigenvalues --   -0.49726  -0.49552  -0.48457  -0.47713  -0.47477
 Alpha  occ. eigenvalues --   -0.47237  -0.46527  -0.45781  -0.45445  -0.45338
 Alpha  occ. eigenvalues --   -0.44226  -0.43863  -0.43643  -0.42798  -0.42299
 Alpha  occ. eigenvalues --   -0.41859  -0.41493  -0.40992  -0.40781  -0.39985
 Alpha  occ. eigenvalues --   -0.39406  -0.38569  -0.38326  -0.38169  -0.37691
 Alpha  occ. eigenvalues --   -0.37441  -0.37279  -0.36789  -0.36653  -0.35783
 Alpha  occ. eigenvalues --   -0.35232  -0.35042  -0.33637  -0.33064  -0.32760
 Alpha  occ. eigenvalues --   -0.32192  -0.30633  -0.29531  -0.28060  -0.27253
 Alpha  occ. eigenvalues --   -0.27009  -0.26090  -0.25310  -0.24542  -0.23022
 Alpha  occ. eigenvalues --   -0.22714
 Alpha virt. eigenvalues --   -0.03405  -0.01852  -0.00276   0.00076   0.03778
 Alpha virt. eigenvalues --    0.06720   0.06877   0.07883   0.08005   0.08908
 Alpha virt. eigenvalues --    0.09166   0.09890   0.10136   0.10408   0.10633

 Mulliken charges:
               1
     1  C   -0.453120
     2  C   -0.276817
     3  C   -0.034856
     4  O   -0.526774
     5  C    0.385077
     6  C   -0.185219
     7  C   -0.144489
     8  C   -0.154089
     9  C    0.059217
    10  C    0.516085
    11  O   -0.526745
    12  N   -0.421359
    13  C   -0.268720
    14  C    0.168018
    15  C   -0.189743
    16  C   -0.134319
    17  C   -0.193799
    18  C    0.380623
    19  O   -0.506156
    20  C   -0.217514
    21  C   -0.229854
    22  C    0.031366
    23  C   -0.281277
    24  C   -0.489049
    25  S    1.124286
    26  O   -0.518460
    27  O   -0.560576
    28  C   -0.506591
    29  C   -0.224465
    30  H    0.147277
    31  H    0.149765
    32  H    0.156369
    33  H    0.153335
    34  H    0.150091
    35  H    0.142427
    36  H    0.156139
    37  H    0.138335
    38  H    0.138668
    39  H    0.148369
    40  H    0.190706
    41  H    0.158042
    42  H    0.127697
    43  H    0.137721
    44  H    0.136396
    45  H    0.173316
    46  H    0.154770
    47  H    0.153981
    48  H    0.142743
    49  H    0.172661
    50  H    0.182473
    51  H    0.171941
    52  H    0.224261
    53  H    0.197461
    54  H    0.227982
    55  H    0.198171
    56  H    0.148222
 Sum of Mulliken charges =  -0.00000

 Dipole moment (field-independent basis, Debye):
    X=              6.5818    Y=              7.4902    Z=             -0.4565  Tot=              9.9816
 Quadrupole moment (field-independent basis, Debye-Ang):
   XX=           -175.4583   YY=           -182.1115   ZZ=           -171.5036
   XY=            -33.3810   XZ=             -5.3560   YZ=              6.2775

 Normal termination of Gaussian 16 at Fri Nov  4 20:46:50 2022.
