 Gaussian 16, Revision B.01,
 Gaussian 16:  ES64L-G16RevB.01 20-Dec-2017

 -----------------------------
 #p b3lyp/6-31g(d) opt SCF=XQC
 -----------------------------

 ------------------------------
 Gaussian input prepared by ASE
 ------------------------------
 Symbolic Z-matrix:
 Charge =  0 Multiplicity = 1

 SCF Done:  E(RB3LYP) =  -1944.32753586     A.U. after   15 cycles
 SCF Done:  E(RB3LYP) =  -1944.33907026     A.U. after   13 cycles
 SCF Done:  E(RB3LYP) =  -1944.34030235     A.U. after   12 cycles
 SCF Done:  E(RB3LYP) =  -1944.34048446     A.U. after   12 cycles
 SCF Done:  E(RB3LYP) =  -1944.34068795     A.U. after   12 cycles
 SCF Done:  E(RB3LYP) =  -1944.34076527     A.U. after   10 cycles
 SCF Done:  E(RB3LYP) =  -1944.34080503     A.U. after   10 cycles
 SCF Done:  E(RB3LYP) =  -1944.34081782     A.U. after   10 cycles
 SCF Done:  E(RB3LYP) =  -1944.34082682     A.U. after   10 cycles
 SCF Done:  E(RB3LYP) =  -1944.34083562     A.U. after   10 cycles
 SCF Done:  E(RB3LYP) =  -1944.34100528     A.U. after   11 cycles
 SCF Done:  E(RB3LYP) =  -1944.34105723     A.U. after   11 cycles
 SCF Done:  E(RB3LYP) =  -1944.34107030     A.U. after   11 cycles
 SCF Done:  E(RB3LYP) =  -1944.34109130     A.U. after   11 cycles
 SCF Done:  E(RB3LYP) =  -1944.34108700     A.U. after   11 cycles
 SCF Done:  E(RB3LYP) =  -1944.34109774     A.U. after   10 cycles
 SCF Done:  E(RB3LYP) =  -1944.34108021     A.U. after   11 cycles
 SCF Done:  E(RB3LYP) =  -1944.34109879     A.U. after   11 cycles
 SCF Done:  E(RB3LYP) =  -1944.34109895     A.U. after    7 cycles
 SCF Done:  E(RB3LYP) =  -1944.34109895     A.U. after    6 cycles
 Optimization completed.
    -- Stationary point found.

                         Standard orientation:
 ---------------------------------------------------------------------
 Center     Atomic      Atomic             Coordinates (Angstroms)
 Number     Number       Type             X           Y           Z
 ---------------------------------------------------------------------
      1          6           0        0.657092   -0.051081    2.792472
      2          6           0       -0.662821   -0.394689    2.143569
      3          6           0       -1.806422   -0.591053    2.920747
      4          6           0       -3.044026   -0.892900    2.351026
      5          6           0       -3.124265   -1.017627    0.966493
      6         16           0       -4.711224   -1.367502    0.186492
      7          8           0       -5.637843   -1.708697    1.268436
      8          8           0       -4.457647   -2.266916   -0.942242
      9          7           0       -5.258773    0.068202   -0.466174
     10          6           0       -5.704919    1.129465    0.454411
     11          6           0       -5.508904    2.487468   -0.229950
     12          8           0       -4.199779    2.584179   -0.757755
     13          6           0       -3.958484    1.683062   -1.844172
     14          6           0       -4.911217    0.473070   -1.831226
     15          6           0       -2.003379   -0.854254    0.153404
     16          6           0       -0.777929   -0.526255    0.739616
     17          7           0        0.381792   -0.333761   -0.045404
     18          6           0        0.454367   -0.033888   -1.378273
     19          8           0       -0.495279    0.074236   -2.142158
     20          6           0        1.878588    0.168829   -1.926454
     21          7           0        2.982382    0.130420   -0.970178
     22          6           0        3.424564    1.331895   -0.391201
     23          6           0        2.630179    2.498347   -0.438647
     24          6           0        3.085711    3.681344    0.129258
     25          6           0        4.332964    3.746290    0.764832
     26          6           0        5.109736    2.602005    0.832569
     27          6           0        4.673947    1.391894    0.268597
     28          6           0        5.536228    0.200575    0.385969
     29          8           0        6.647123    0.241763    0.915462
     30          6           0        4.959881   -1.049980   -0.143214
     31          6           0        5.677404   -2.246853    0.016611
     32          6           0        5.173671   -3.452211   -0.441878
     33          6           0        3.917239   -3.468712   -1.062397
     34          6           0        3.186685   -2.300276   -1.234607
     35          6           0        3.703322   -1.063487   -0.791999
     36          1           0        0.537672    0.065117    3.872731
     37          1           0        1.073078    0.887195    2.403130
     38          1           0        1.412074   -0.834920    2.636523
     39          1           0       -1.725529   -0.499103    4.000701
     40          1           0       -3.925565   -1.048569    2.962275
     41          1           0       -6.752752    0.977362    0.742428
     42          1           0       -5.096450    1.110072    1.366109
     43          1           0       -6.272261    2.653188   -1.006650
     44          1           0       -5.611534    3.288378    0.507959
     45          1           0       -2.916311    1.364037   -1.750639
     46          1           0       -4.068073    2.213622   -2.803540
     47          1           0       -4.467618   -0.379743   -2.347155
     48          1           0       -5.843172    0.709730   -2.359936
     49          1           0       -2.071240   -0.983502   -0.917050
     50          1           0        1.266575   -0.336125    0.444676
     51          1           0        2.041326   -0.588392   -2.696177
     52          1           0        1.883986    1.127138   -2.450046
     53          1           0        1.647687    2.486341   -0.895027
     54          1           0        2.452554    4.563047    0.080563
     55          1           0        4.678495    4.677220    1.203725
     56          1           0        6.078994    2.594606    1.320691
     57          1           0        6.639027   -2.179370    0.515079
     58          1           0        5.735597   -4.372219   -0.313742
     59          1           0        3.493350   -4.407086   -1.409295
     60          1           0        2.204033   -2.364417   -1.686184
 ---------------------------------------------------------------------

 The electronic state is 1-A.
 Alpha  occ. eigenvalues --  -89.10726 -19.15196 -19.14483 -19.13713 -19.13591
 Alpha  occ. eigenvalues --  -19.12474 -14.41334 -14.40070 -14.36520 -10.32029
 Alpha  occ. eigenvalues --  -10.27165 -10.26473 -10.26448 -10.26095 -10.25744
 Alpha  occ. eigenvalues --  -10.24397 -10.23371 -10.22921 -10.22856 -10.22669
 Alpha  occ. eigenvalues --  -10.22506 -10.21644 -10.21558 -10.21420 -10.21344
 Alpha  occ. eigenvalues --  -10.21045 -10.21012 -10.20994 -10.20989 -10.20961
 Alpha  occ. eigenvalues --  -10.20952 -10.20694 -10.20632 -10.20423 -10.20349
 Alpha  occ. eigenvalues --   -8.13159  -6.09658  -6.09588  -6.09478  -1.10525
 Alpha  occ. eigenvalues --   -1.06501  -1.03884  -1.02634  -1.00444  -0.99620
 Alpha  occ. eigenvalues --   -0.96631  -0.93042  -0.87823  -0.87653  -0.86531
 Alpha  occ. eigenvalues --   -0.80775  -0.80207  -0.78227  -0.78201  -0.77569
 Alpha  occ. eigenvalues --   -0.76536  -0.75791  -0.73915  -0.72946  -0.71208
 Alpha  occ. eigenvalues --   -0.67096  -0.66739  -0.66205  -0.65366  -0.64324
 Alpha  occ. eigenvalues --   -0.61595  -0.61544  -0.60782  -0.59175  -0.57842
 Alpha  occ. eigenvalues --   -0.57072  -0.56243  -0.54639  -0.54368  -0.52398
 Alpha  occ. eigenvalues --   -0.51511  -0.50091  -0.49922  -0.49876  -0.49217
 Alpha  occ. eigenvalues --   -0.48904  -0.48462  -0.48328  -0.47540  -0.46690
 Alpha  occ. eigenvalues --   -0.46359  -0.45868  -0.45290  -0.45002  -0.44787
 Alpha  occ. eigenvalues --   -0.44375  -0.44083  -0.43821  -0.43521  -0.43305
 Alpha  occ. eigenvalues --   -0.42876  -0.41820  -0.41463  -0.41001  -0.40879
 Alpha  occ. eigenvalues --   -0.40480  -0.39896  -0.39721  -0.38717  -0.38345
 Alpha  occ. eigenvalues --   -0.38122  -0.37740  -0.37508  -0.37225  -0.36773
 Alpha  occ. eigenvalues --   -0.36695  -0.36001  -0.34279  -0.33301  -0.32977
 Alpha  occ. eigenvalues --   -0.32364  -0.31116  -0.29840  -0.29671  -0.28176
 Alpha  occ. eigenvalues --   -0.27699  -0.27142  -0.26888  -0.26771  -0.25726
 Alpha  occ. eigenvalues --   -0.25013  -0.24488  -0.23787  -0.22317
 Alpha virt. eigenvalues --   -0.07136  -0.04163  -0.03313  -0.02988  -0.01551
 Alpha virt. eigenvalues --    0.00008   0.01744   0.05365   0.05950   0.06522
 Alpha virt. eigenvalues --    0.07163   0.07913   0.09164   0.09249   0.09880

 Mulliken charges:
               1
     1  C   -0.567842
     2  C    0.161701
     3  C   -0.197483
     4  C   -0.141413
     5  C   -0.159066
     6  S    1.247468
     7  O   -0.550586
     8  O   -0.552681
     9  N   -0.537662
    10  C   -0.117480
    11  C   -0.065512
    12  O   -0.473781
    13  C   -0.025164
    14  C   -0.199070
    15  C   -0.167763
    16  C    0.283492
    17  N   -0.721501
    18  C    0.607436
    19  O   -0.499581
    20  C   -0.277392
    21  N   -0.659199
    22  C    0.298508
    23  C   -0.195053
    24  C   -0.131211
    25  C   -0.134073
    26  C   -0.177546
    27  C    0.040407
    28  C    0.376608
    29  O   -0.512751
    30  C    0.039103
    31  C   -0.177136
    32  C   -0.133899
    33  C   -0.129307
    34  C   -0.191859
    35  C    0.297423
    36  H    0.175811
    37  H    0.177950
    38  H    0.172192
    39  H    0.139150
    40  H    0.178889
    41  H    0.165145
    42  H    0.161767
    43  H    0.135434
    44  H    0.159410
    45  H    0.174545
    46  H    0.129129
    47  H    0.207553
    48  H    0.164158
    49  H    0.206705
    50  H    0.366121
    51  H    0.207412
    52  H    0.206640
    53  H    0.150827
    54  H    0.145749
    55  H    0.141448
    56  H    0.170990
    57  H    0.170929
    58  H    0.141959
    59  H    0.146330
    60  H    0.147622
 Sum of Mulliken charges =  -0.00000

 Dipole moment (field-independent basis, Debye):
    X=              1.6130    Y=              3.2376    Z=              0.3736  Tot=              3.6364
 Quadrupole moment (field-independent basis, Debye-Ang):
   XX=           -246.2550   YY=           -202.4772   ZZ=           -200.3584
   XY=            -27.1780   XZ=             -4.0368   YZ=              2.7378

 Normal termination of Gaussian 16 at Fri Nov  4 22:26:17 2022.
