 Gaussian 16, Revision B.01,
 Gaussian 16:  ES64L-G16RevB.01 20-Dec-2017

 -------------------------------------------------------------------
 #p b3lyp/6-31g(d) 6D 10F nosymm GFInput td=(50-50,nstate=2) SCF=XQC
 -------------------------------------------------------------------

 ------------------------------
 Gaussian input prepared by ASE
 ------------------------------
 Symbolic Z-matrix:
 Charge =  0 Multiplicity = 1

                          Input orientation:
 ---------------------------------------------------------------------
 Center     Atomic      Atomic             Coordinates (Angstroms)
 Number     Number       Type             X           Y           Z
 ---------------------------------------------------------------------
      1          6           0        0.627397   -2.183342   -1.760541
      2          6           0       -0.652197   -1.382090   -1.804669
      3          6           0       -1.760940   -1.852992   -2.511300
      4          6           0       -2.962649   -1.145108   -2.557688
      5          6           0       -3.040136    0.074821   -1.890833
      6         16           0       -4.585550    1.002693   -1.891992
      7          8           0       -5.460240    0.348588   -2.868058
      8          8           0       -4.244217    2.425397   -1.973788
      9          7           0       -5.292536    0.770815   -0.397525
     10          6           0       -5.844727   -0.559491   -0.084200
     11          6           0       -5.804399   -0.762440    1.435052
     12          8           0       -4.518157   -0.451317    1.935576
     13          6           0       -4.188496    0.937989    1.827459
     14          6           0       -5.002712    1.655359    0.734582
     15          6           0       -1.950650    0.595117   -1.193336
     16          6           0       -0.763751   -0.140359   -1.135861
     17          7           0        0.361374    0.338312   -0.426474
     18          6           0        0.389658    1.269928    0.575037
     19          8           0       -0.572378    1.893723    1.002126
     20          6           0        1.778510    1.532395    1.185120
     21          7           0        2.887703    0.701992    0.722064
     22          6           0        3.200273   -0.472554    1.427063
     23          6           0        2.282448   -1.041398    2.336966
     24          6           0        2.610220   -2.197189    3.034260
     25          6           0        3.848030   -2.827765    2.849842
     26          6           0        4.746087   -2.287133    1.945096
     27          6           0        4.440942   -1.120532    1.225184
     28          6           0        5.429554   -0.599386    0.262065
     29          8           0        6.533563   -1.121431    0.104651
     30          6           0        4.989423    0.568711   -0.524021
     31          6           0        5.835112    1.065751   -1.529332
     32          6           0        5.462783    2.146117   -2.311014
     33          6           0        4.210663    2.737674   -2.096090
     34          6           0        3.355036    2.267484   -1.108450
     35          6           0        3.736615    1.181996   -0.290784
     36          1           0        0.504863   -3.135753   -2.282671
     37          1           0        0.934803   -2.408029   -0.730972
     38          1           0        1.462442   -1.657742   -2.245482
     39          1           0       -1.681720   -2.802572   -3.034100
     40          1           0       -3.816747   -1.515764   -3.112756
     41          1           0       -6.867165   -0.655523   -0.470779
     42          1           0       -5.230309   -1.336506   -0.553820
     43          1           0       -6.587694   -0.170413    1.934445
     44          1           0       -5.988122   -1.814930    1.669596
     45          1           0       -3.116897    0.981735    1.612022
     46          1           0       -4.363482    1.441596    2.791642
     47          1           0       -4.472569    2.534461    0.365285
     48          1           0       -5.959316    2.011748    1.137045
     49          1           0       -2.012750    1.556957   -0.705290
     50          1           0        1.245091   -0.114405   -0.619127
     51          1           0        2.016926    2.583519    1.010079
     52          1           0        1.674515    1.430103    2.267365
     53          1           0        1.303466   -0.603194    2.489577
     54          1           0        1.883849   -2.614759    3.726127
     55          1           0        4.093037   -3.729951    3.401820
     56          1           0        5.714303   -2.740042    1.757455
     57          1           0        6.787617    0.562867   -1.661944
     58          1           0        6.123208    2.523239   -3.085748
     59          1           0        3.889347    3.572173   -2.713289
     60          1           0        2.381651    2.730846   -1.001412
 ---------------------------------------------------------------------

 SCF Done:  E(RB3LYP) =  -1944.34109326     A.U. after   16 cycles

 Excitation energies and oscillator strengths:

 Excited state symmetry could not be determined.
 Excited State   1:      Triplet-?Sym    2.8432 eV  436.07 nm  f=0.0000  <S**2>=2.000
     124 ->130         0.13691
     129 ->130         0.67932
 This state for optimization and/or second-order correction.
 Total Energy, E(TD-HF/TD-DFT) =  -1944.23660669
 Copying the excited state density for this state as the 1-particle RhoCI density.

 Excited state symmetry could not be determined.
 Excited State   2:      Triplet-?Sym    3.1427 eV  394.51 nm  f=0.0000  <S**2>=2.000
     126 ->130         0.68946
     126 ->137         0.12382

 Excited state symmetry could not be determined.
 Excited State   3:      Singlet-?Sym    3.5523 eV  349.03 nm  f=0.0001  <S**2>=0.000
     126 ->130         0.69840

 Excited state symmetry could not be determined.
 Excited State   4:      Singlet-?Sym    3.6524 eV  339.46 nm  f=0.0928  <S**2>=0.000
     129 ->130         0.68897

 Alpha  occ. eigenvalues --  -89.10726 -19.15197 -19.14483 -19.13713 -19.13591
 Alpha  occ. eigenvalues --  -19.12474 -14.41334 -14.40070 -14.36520 -10.32029
 Alpha  occ. eigenvalues --  -10.27165 -10.26473 -10.26448 -10.26095 -10.25744
 Alpha  occ. eigenvalues --  -10.24398 -10.23371 -10.22921 -10.22856 -10.22669
 Alpha  occ. eigenvalues --  -10.22506 -10.21644 -10.21557 -10.21420 -10.21344
 Alpha  occ. eigenvalues --  -10.21045 -10.21012 -10.20994 -10.20989 -10.20961
 Alpha  occ. eigenvalues --  -10.20952 -10.20694 -10.20632 -10.20423 -10.20349
 Alpha  occ. eigenvalues --   -8.13159  -6.09658  -6.09588  -6.09478  -1.10525
 Alpha  occ. eigenvalues --   -1.06501  -1.03885  -1.02634  -1.00445  -0.99620
 Alpha  occ. eigenvalues --   -0.96631  -0.93042  -0.87823  -0.87653  -0.86531
 Alpha  occ. eigenvalues --   -0.80775  -0.80207  -0.78227  -0.78201  -0.77569
 Alpha  occ. eigenvalues --   -0.76536  -0.75791  -0.73916  -0.72946  -0.71208
 Alpha  occ. eigenvalues --   -0.67097  -0.66739  -0.66205  -0.65366  -0.64324
 Alpha  occ. eigenvalues --   -0.61595  -0.61544  -0.60782  -0.59175  -0.57842
 Alpha  occ. eigenvalues --   -0.57072  -0.56243  -0.54639  -0.54368  -0.52398
 Alpha  occ. eigenvalues --   -0.51512  -0.50091  -0.49922  -0.49876  -0.49217
 Alpha  occ. eigenvalues --   -0.48904  -0.48462  -0.48328  -0.47540  -0.46690
 Alpha  occ. eigenvalues --   -0.46359  -0.45868  -0.45290  -0.45002  -0.44787
 Alpha  occ. eigenvalues --   -0.44375  -0.44083  -0.43821  -0.43521  -0.43305
 Alpha  occ. eigenvalues --   -0.42876  -0.41820  -0.41463  -0.41001  -0.40879
 Alpha  occ. eigenvalues --   -0.40480  -0.39896  -0.39721  -0.38717  -0.38345
 Alpha  occ. eigenvalues --   -0.38122  -0.37740  -0.37508  -0.37225  -0.36773
 Alpha  occ. eigenvalues --   -0.36695  -0.36001  -0.34279  -0.33301  -0.32977
 Alpha  occ. eigenvalues --   -0.32364  -0.31116  -0.29840  -0.29671  -0.28175
 Alpha  occ. eigenvalues --   -0.27699  -0.27142  -0.26888  -0.26771  -0.25726
 Alpha  occ. eigenvalues --   -0.25013  -0.24488  -0.23787  -0.22317
 Alpha virt. eigenvalues --   -0.07136  -0.04163  -0.03313  -0.02988  -0.01551
 Alpha virt. eigenvalues --    0.00008   0.01744   0.05365   0.05950   0.06522
 Alpha virt. eigenvalues --    0.07163   0.07913   0.09164   0.09249   0.09880

 Mulliken charges:
               1
     1  C   -0.567833
     2  C    0.161712
     3  C   -0.197484
     4  C   -0.141423
     5  C   -0.159047
     6  S    1.247511
     7  O   -0.550585
     8  O   -0.552688
     9  N   -0.537691
    10  C   -0.117484
    11  C   -0.065512
    12  O   -0.473776
    13  C   -0.025180
    14  C   -0.199048
    15  C   -0.167763
    16  C    0.283461
    17  N   -0.721517
    18  C    0.607454
    19  O   -0.499586
    20  C   -0.277382
    21  N   -0.659193
    22  C    0.298457
    23  C   -0.195043
    24  C   -0.131204
    25  C   -0.134077
    26  C   -0.177549
    27  C    0.040450
    28  C    0.376576
    29  O   -0.512753
    30  C    0.039126
    31  C   -0.177141
    32  C   -0.133899
    33  C   -0.129307
    34  C   -0.191864
    35  C    0.297432
    36  H    0.175811
    37  H    0.177950
    38  H    0.172181
    39  H    0.139150
    40  H    0.178891
    41  H    0.165146
    42  H    0.161767
    43  H    0.135434
    44  H    0.159411
    45  H    0.174549
    46  H    0.129129
    47  H    0.207549
    48  H    0.164157
    49  H    0.206704
    50  H    0.366119
    51  H    0.207410
    52  H    0.206639
    53  H    0.150826
    54  H    0.145748
    55  H    0.141447
    56  H    0.170992
    57  H    0.170930
    58  H    0.141958
    59  H    0.146330
    60  H    0.147621
 Sum of Mulliken charges =  -0.00000

 Dipole moment (field-independent basis, Debye):
    X=              1.2512    Y=             -2.2061    Z=              2.6059  Tot=              3.6364
 Quadrupole moment (field-independent basis, Debye-Ang):
   XX=           -240.0103   YY=           -201.2505   ZZ=           -209.6773
   XY=             21.1421   XZ=            -24.0561   YZ=              3.8973

 Normal termination of Gaussian 16 at Sat Nov  5 12:19:24 2022.
