 Gaussian 16, Revision B.01,
 Gaussian 16:  ES64L-G16RevB.01 20-Dec-2017

 -----------------------------
 #p b3lyp/6-31g(d) opt SCF=XQC
 -----------------------------

 ------------------------------
 Gaussian input prepared by ASE
 ------------------------------
 Symbolic Z-matrix:
 Charge =  0 Multiplicity = 1

 SCF Done:  E(RB3LYP) =  -1430.08485247     A.U. after   15 cycles
 SCF Done:  E(RB3LYP) =  -1430.09598557     A.U. after   14 cycles
 SCF Done:  E(RB3LYP) =  -1430.09719416     A.U. after   12 cycles
 SCF Done:  E(RB3LYP) =  -1430.09739135     A.U. after   12 cycles
 SCF Done:  E(RB3LYP) =  -1430.09743572     A.U. after   12 cycles
 SCF Done:  E(RB3LYP) =  -1430.09745094     A.U. after   11 cycles
 SCF Done:  E(RB3LYP) =  -1430.09745802     A.U. after   10 cycles
 SCF Done:  E(RB3LYP) =  -1430.09745942     A.U. after    8 cycles
 SCF Done:  E(RB3LYP) =  -1430.09745962     A.U. after    8 cycles
 SCF Done:  E(RB3LYP) =  -1430.09745972     A.U. after    7 cycles
 SCF Done:  E(RB3LYP) =  -1430.09746008     A.U. after    7 cycles
 SCF Done:  E(RB3LYP) =  -1430.09746027     A.U. after    8 cycles
 SCF Done:  E(RB3LYP) =  -1430.09746058     A.U. after    9 cycles
 SCF Done:  E(RB3LYP) =  -1430.09746097     A.U. after    9 cycles
 SCF Done:  E(RB3LYP) =  -1430.09746145     A.U. after    9 cycles
 SCF Done:  E(RB3LYP) =  -1430.09746221     A.U. after    9 cycles
 SCF Done:  E(RB3LYP) =  -1430.09746282     A.U. after    9 cycles
 SCF Done:  E(RB3LYP) =  -1430.09746318     A.U. after    9 cycles
 SCF Done:  E(RB3LYP) =  -1430.09746335     A.U. after    8 cycles
 SCF Done:  E(RB3LYP) =  -1430.09746337     A.U. after    7 cycles
 Optimization completed.
    -- Stationary point found.

                         Standard orientation:
 ---------------------------------------------------------------------
 Center     Atomic      Atomic             Coordinates (Angstroms)
 Number     Number       Type             X           Y           Z
 ---------------------------------------------------------------------
      1          6           0       -5.252171   -1.693542   -1.454422
      2          6           0       -4.268967   -1.352563   -0.358445
      3          6           0       -4.018493   -2.242064    0.692796
      4          6           0       -3.142436   -1.898444    1.720837
      5          6           0       -2.466413   -0.674450    1.734269
      6          6           0       -1.506019   -0.330831    2.849022
      7          6           0       -2.722336    0.219845    0.674860
      8          7           0       -2.098108    1.503647    0.659747
      9         16           0       -1.075831    2.025146   -0.594236
     10          8           0       -1.822886    1.901265   -1.844777
     11          8           0       -0.554735    3.304758   -0.108729
     12          6           0        0.295168    0.873050   -0.680202
     13          6           0        0.151339   -0.335196   -1.381601
     14          6           0        1.208067   -1.228038   -1.419581
     15          6           0        2.418529   -0.924031   -0.769128
     16          7           0        3.473737   -1.804527   -0.804304
     17          6           0        4.725389   -1.607304   -0.206924
     18          8           0        5.598252   -2.461275   -0.296921
     19          6           0        4.852952   -0.332273    0.493769
     20          6           0        3.853239    0.584886    0.569415
     21          6           0        4.050602    1.885817    1.304137
     22          6           0        2.574450    0.303348   -0.070912
     23          6           0        1.485879    1.190735   -0.038739
     24          6           0       -3.619631   -0.114300   -0.345837
     25          1           0       -6.264136   -1.351820   -1.199478
     26          1           0       -5.306947   -2.774767   -1.620020
     27          1           0       -4.978740   -1.216946   -2.401454
     28          1           0       -4.515521   -3.209050    0.711566
     29          1           0       -2.963631   -2.603583    2.529318
     30          1           0       -1.857338    0.515061    3.457415
     31          1           0       -0.511127   -0.068094    2.467288
     32          1           0       -1.383779   -1.179925    3.527410
     33          1           0       -1.709366    1.809994    1.546241
     34          1           0       -0.775214   -0.555641   -1.899210
     35          1           0        1.112614   -2.165855   -1.960336
     36          1           0        3.377050   -2.683592   -1.300325
     37          1           0        5.817033   -0.156669    0.959178
     38          1           0        3.907745    2.744877    0.637425
     39          1           0        5.057468    1.945678    1.724497
     40          1           0        3.332093    1.993354    2.126026
     41          1           0        1.569821    2.144613    0.469056
     42          1           0       -3.804070    0.610332   -1.131390
 ---------------------------------------------------------------------

 The electronic state is 1-A.
 Alpha  occ. eigenvalues --  -89.11955 -19.14868 -19.14855 -19.11962 -14.39756
 Alpha  occ. eigenvalues --  -14.37855 -10.30040 -10.27128 -10.23910 -10.23762
 Alpha  occ. eigenvalues --  -10.23560 -10.22924 -10.22785 -10.22783 -10.22216
 Alpha  occ. eigenvalues --  -10.20811 -10.20802 -10.20680 -10.20337 -10.20176
 Alpha  occ. eigenvalues --  -10.19656 -10.19166 -10.19008 -10.18779  -8.14422
 Alpha  occ. eigenvalues --   -6.10926  -6.10839  -6.10737  -1.11675  -1.04434
 Alpha  occ. eigenvalues --   -1.00871  -0.96965  -0.94255  -0.88383  -0.85666
 Alpha  occ. eigenvalues --   -0.84503  -0.79424  -0.78399  -0.77074  -0.74674
 Alpha  occ. eigenvalues --   -0.73632  -0.73020  -0.68679  -0.66583  -0.65724
 Alpha  occ. eigenvalues --   -0.63604  -0.62771  -0.60459  -0.59429  -0.57283
 Alpha  occ. eigenvalues --   -0.56233  -0.53825  -0.51842  -0.50743  -0.49682
 Alpha  occ. eigenvalues --   -0.48606  -0.48045  -0.47339  -0.46589  -0.46111
 Alpha  occ. eigenvalues --   -0.45205  -0.44275  -0.43874  -0.43497  -0.43410
 Alpha  occ. eigenvalues --   -0.43381  -0.42161  -0.41913  -0.41345  -0.40914
 Alpha  occ. eigenvalues --   -0.40560  -0.39571  -0.39314  -0.38413  -0.36913
 Alpha  occ. eigenvalues --   -0.36738  -0.36082  -0.35191  -0.33932  -0.33870
 Alpha  occ. eigenvalues --   -0.32367  -0.31902  -0.31563  -0.30935  -0.30218
 Alpha  occ. eigenvalues --   -0.26530  -0.26255  -0.24721  -0.23851  -0.22916
 Alpha virt. eigenvalues --   -0.06803  -0.04397  -0.01215  -0.00656  -0.00233
 Alpha virt. eigenvalues --    0.05428   0.06380   0.06818   0.08051   0.09113
 Alpha virt. eigenvalues --    0.09297   0.09863   0.10939   0.11406   0.11657

 Mulliken charges:
               1
     1  C   -0.529440
     2  C    0.160693
     3  C   -0.168383
     4  C   -0.200963
     5  C    0.170608
     6  C   -0.563737
     7  C    0.197693
     8  N   -0.752786
     9  S    1.207572
    10  O   -0.535136
    11  O   -0.537490
    12  C   -0.146523
    13  C   -0.142641
    14  C   -0.172672
    15  C    0.377527
    16  N   -0.764725
    17  C    0.629781
    18  O   -0.519990
    19  C   -0.311679
    20  C    0.218521
    21  C   -0.538633
    22  C    0.072966
    23  C   -0.252611
    24  C   -0.196754
    25  H    0.170341
    26  H    0.155640
    27  H    0.164445
    28  H    0.123658
    29  H    0.126103
    30  H    0.163174
    31  H    0.163909
    32  H    0.168464
    33  H    0.356147
    34  H    0.183727
    35  H    0.148073
    36  H    0.337993
    37  H    0.153847
    38  H    0.182411
    39  H    0.173327
    40  H    0.172315
    41  H    0.184486
    42  H    0.170739
 Sum of Mulliken charges =  -0.00000

 Dipole moment (field-independent basis, Debye):
    X=             -1.1432    Y=             -2.4534    Z=              2.3720  Tot=              3.5989
 Quadrupole moment (field-independent basis, Debye-Ang):
   XX=           -161.2914   YY=           -156.2175   ZZ=           -139.8005
   XY=             25.2078   XZ=              1.2972   YZ=             10.2752

 Normal termination of Gaussian 16 at Fri Nov  4 20:33:09 2022.
