 Gaussian 16, Revision B.01,
 Gaussian 16:  ES64L-G16RevB.01 20-Dec-2017

 -------------------------------------------------------------------
 #p b3lyp/6-31g(d) 6D 10F nosymm GFInput td=(50-50,nstate=2) SCF=XQC
 -------------------------------------------------------------------

 ------------------------------
 Gaussian input prepared by ASE
 ------------------------------
 Symbolic Z-matrix:
 Charge =  0 Multiplicity = 1

                          Input orientation:
 ---------------------------------------------------------------------
 Center     Atomic      Atomic             Coordinates (Angstroms)
 Number     Number       Type             X           Y           Z
 ---------------------------------------------------------------------
      1          6           0       -4.822871    2.008429    1.824040
      2          6           0       -4.025497    1.149010    0.870252
      3          6           0       -4.121019    1.323705   -0.515177
      4          6           0       -3.414162    0.496452   -1.386053
      5          6           0       -2.571280   -0.516593   -0.918467
      6          6           0       -1.799180   -1.389108   -1.880591
      7          6           0       -2.478739   -0.690968    0.477470
      8          7           0       -1.671339   -1.739763    1.012418
      9         16           0       -0.360655   -1.462016    2.058577
     10          8           0       -0.865970   -0.693243    3.194771
     11          8           0        0.250815   -2.784228    2.208650
     12          6           0        0.805704   -0.415235    1.187825
     13          6           0        0.612122    0.975521    1.159010
     14          6           0        1.504985    1.770908    0.462274
     15          6           0        2.601726    1.192433   -0.203497
     16          7           0        3.494499    1.975920   -0.895654
     17          6           0        4.624684    1.516901   -1.584404
     18          8           0        5.355259    2.303409   -2.173403
     19          6           0        4.813007    0.070253   -1.515919
     20          6           0        3.972019   -0.764592   -0.851010
     21          6           0        4.225547   -2.249691   -0.813681
     22          6           0        2.810607   -0.212260   -0.164981
     23          6           0        1.887137   -1.000746    0.541396
     24          6           0       -3.206110    0.123778    1.352533
     25          1           0       -5.799262    1.556269    2.043252
     26          1           0       -5.012405    3.001856    1.403740
     27          1           0       -4.303489    2.135804    2.779443
     28          1           0       -4.756600    2.108924   -0.917571
     29          1           0       -3.504299    0.648041   -2.459239
     30          1           0       -2.124149   -2.438999   -1.845598
     31          1           0       -0.721300   -1.373433   -1.674459
     32          1           0       -1.941744   -1.047379   -2.909673
     33          1           0       -1.415699   -2.471207    0.356309
     34          1           0       -0.221725    1.418865    1.691137
     35          1           0        1.369721    2.848810    0.432975
     36          1           0        3.358650    2.980157   -0.930201
     37          1           0        5.686204   -0.306011   -2.038267
     38          1           0        4.347451   -2.606694    0.216166
     39          1           0        5.130814   -2.503358   -1.370646
     40          1           0        3.389299   -2.808775   -1.251213
     41          1           0        2.020012   -2.074331    0.608806
     42          1           0       -3.122770   -0.056820    2.418667
 ---------------------------------------------------------------------

 SCF Done:  E(RB3LYP) =  -1430.09745324     A.U. after   15 cycles

 Excitation energies and oscillator strengths:

 Excited state symmetry could not be determined.
 Excited State   1:      Triplet-?Sym    2.9247 eV  423.92 nm  f=0.0000  <S**2>=2.000
      86 -> 91        -0.30195
      88 -> 91        -0.12808
      89 -> 91         0.51850
      90 -> 91        -0.29401
 This state for optimization and/or second-order correction.
 Total Energy, E(TD-HF/TD-DFT) =  -1429.98997321
 Copying the excited state density for this state as the 1-particle RhoCI density.

 Excited state symmetry could not be determined.
 Excited State   2:      Triplet-?Sym    3.3438 eV  370.79 nm  f=0.0000  <S**2>=2.000
      86 -> 91         0.41167
      86 -> 95        -0.11402
      89 -> 91         0.14472
      89 -> 92        -0.24142
      90 -> 91        -0.34745
      90 -> 92         0.27170

 Excited state symmetry could not be determined.
 Excited State   3:      Singlet-?Sym    3.8816 eV  319.42 nm  f=0.0226  <S**2>=0.000
      90 -> 91         0.69729

 Excited state symmetry could not be determined.
 Excited State   4:      Singlet-?Sym    4.1506 eV  298.71 nm  f=0.0879  <S**2>=0.000
      86 -> 92         0.13833
      89 -> 91         0.67219

 Alpha  occ. eigenvalues --  -89.11955 -19.14868 -19.14855 -19.11962 -14.39756
 Alpha  occ. eigenvalues --  -14.37855 -10.30040 -10.27128 -10.23910 -10.23761
 Alpha  occ. eigenvalues --  -10.23560 -10.22924 -10.22785 -10.22783 -10.22216
 Alpha  occ. eigenvalues --  -10.20811 -10.20802 -10.20680 -10.20337 -10.20176
 Alpha  occ. eigenvalues --  -10.19656 -10.19166 -10.19008 -10.18779  -8.14422
 Alpha  occ. eigenvalues --   -6.10926  -6.10839  -6.10737  -1.11675  -1.04434
 Alpha  occ. eigenvalues --   -1.00871  -0.96965  -0.94255  -0.88383  -0.85666
 Alpha  occ. eigenvalues --   -0.84503  -0.79424  -0.78399  -0.77074  -0.74674
 Alpha  occ. eigenvalues --   -0.73632  -0.73020  -0.68679  -0.66583  -0.65724
 Alpha  occ. eigenvalues --   -0.63604  -0.62771  -0.60459  -0.59429  -0.57283
 Alpha  occ. eigenvalues --   -0.56233  -0.53825  -0.51842  -0.50743  -0.49682
 Alpha  occ. eigenvalues --   -0.48606  -0.48045  -0.47339  -0.46589  -0.46111
 Alpha  occ. eigenvalues --   -0.45205  -0.44275  -0.43874  -0.43497  -0.43410
 Alpha  occ. eigenvalues --   -0.43381  -0.42161  -0.41913  -0.41345  -0.40914
 Alpha  occ. eigenvalues --   -0.40560  -0.39570  -0.39314  -0.38413  -0.36913
 Alpha  occ. eigenvalues --   -0.36738  -0.36082  -0.35191  -0.33932  -0.33870
 Alpha  occ. eigenvalues --   -0.32367  -0.31902  -0.31563  -0.30935  -0.30217
 Alpha  occ. eigenvalues --   -0.26530  -0.26255  -0.24721  -0.23851  -0.22916
 Alpha virt. eigenvalues --   -0.06803  -0.04396  -0.01215  -0.00656  -0.00233
 Alpha virt. eigenvalues --    0.05428   0.06380   0.06818   0.08051   0.09113
 Alpha virt. eigenvalues --    0.09297   0.09863   0.10939   0.11406   0.11657

 Mulliken charges:
               1
     1  C   -0.529440
     2  C    0.160688
     3  C   -0.168384
     4  C   -0.200967
     5  C    0.170633
     6  C   -0.563732
     7  C    0.197678
     8  N   -0.752818
     9  S    1.207665
    10  O   -0.535150
    11  O   -0.537500
    12  C   -0.146540
    13  C   -0.142642
    14  C   -0.172674
    15  C    0.377536
    16  N   -0.764733
    17  C    0.629791
    18  O   -0.519986
    19  C   -0.311694
    20  C    0.218542
    21  C   -0.538632
    22  C    0.072952
    23  C   -0.252631
    24  C   -0.196752
    25  H    0.170342
    26  H    0.155640
    27  H    0.164444
    28  H    0.123659
    29  H    0.126103
    30  H    0.163175
    31  H    0.163903
    32  H    0.168465
    33  H    0.356147
    34  H    0.183726
    35  H    0.148073
    36  H    0.337993
    37  H    0.153846
    38  H    0.182410
    39  H    0.173327
    40  H    0.172313
    41  H    0.184486
    42  H    0.170738
 Sum of Mulliken charges =  -0.00000

 Dipole moment (field-independent basis, Debye):
    X=             -1.9408    Y=              0.7223    Z=             -2.9434  Tot=              3.5989
 Quadrupole moment (field-independent basis, Debye-Ang):
   XX=           -154.8727   YY=           -143.1308   ZZ=           -161.8404
   XY=            -18.3710   XZ=             11.1202   YZ=             17.4164

 Normal termination of Gaussian 16 at Sat Nov  5 12:09:13 2022.
