 Gaussian 16, Revision B.01,
 Gaussian 16:  ES64L-G16RevB.01 20-Dec-2017

 -------------------------------------------------------------------
 #p b3lyp/6-31g(d) 6D 10F nosymm GFInput td=(50-50,nstate=2) SCF=XQC
 -------------------------------------------------------------------

 ------------------------------
 Gaussian input prepared by ASE
 ------------------------------
 Symbolic Z-matrix:
 Charge =  0 Multiplicity = 1

                          Input orientation:
 ---------------------------------------------------------------------
 Center     Atomic      Atomic             Coordinates (Angstroms)
 Number     Number       Type             X           Y           Z
 ---------------------------------------------------------------------
      1          6           0       -3.475759    3.481045   -0.789738
      2          6           0       -4.036358    2.092793   -1.129330
      3          6           0       -2.996209    0.950391   -1.096598
      4          6           0       -2.789520    0.178804    0.260734
      5          6           0       -4.044130   -0.702628    0.455998
      6          6           0       -2.732925    1.086441    1.524175
      7          6           0       -1.503456   -0.685222    0.166196
      8          6           0       -1.572557   -2.054308    0.211513
      9          6           0       -0.425560   -2.877467    0.145241
     10          6           0       -0.587669   -4.287751    0.200539
     11          6           0        0.490900   -5.135932    0.144474
     12          6           0        1.780385   -4.576200    0.029838
     13          6           0        1.963842   -3.210747   -0.025392
     14          6           0        0.873671   -2.283418    0.028653
     15          6           0        0.998893   -0.836676   -0.029056
     16          6           0        2.432638   -0.205046   -0.159793
     17          6           0        3.263600   -0.608807    1.098000
     18          6           0        3.064239   -0.691895   -1.500973
     19          6           0        2.498298    1.358499   -0.214207
     20          6           0        3.906495    1.973145   -0.335229
     21          6           0        3.839577    3.505166   -0.383128
     22          6           0       -0.188487   -0.099113    0.036189
     23          8           0       -0.100835    1.271317   -0.020034
     24          1           0       -3.077494    3.533069    0.229356
     25          1           0       -4.252966    4.249183   -0.874941
     26          1           0       -2.666513    3.754898   -1.478359
     27          1           0       -4.882092    1.864480   -0.468718
     28          1           0       -4.459396    2.135410   -2.141155
     29          1           0       -2.049772    1.346156   -1.486631
     30          1           0       -3.282769    0.183628   -1.826750
     31          1           0       -4.194917   -1.393917   -0.379431
     32          1           0       -3.989209   -1.284913    1.381660
     33          1           0       -4.934578   -0.069648    0.522897
     34          1           0       -3.656142    1.666307    1.624248
     35          1           0       -2.639565    0.453885    2.413505
     36          1           0       -1.895318    1.788809    1.556206
     37          1           0       -2.528287   -2.555122    0.307175
     38          1           0       -1.597612   -4.682341    0.289581
     39          1           0        0.357480   -6.213201    0.187490
     40          1           0        2.649689   -5.227306   -0.016204
     41          1           0        2.979911   -2.859524   -0.113102
     42          1           0        3.095464   -1.630026    1.436203
     43          1           0        4.337022   -0.492080    0.914860
     44          1           0        2.996459    0.047179    1.934997
     45          1           0        4.151715   -0.562654   -1.493883
     46          1           0        2.857178   -1.733693   -1.740564
     47          1           0        2.664285   -0.093612   -2.328243
     48          1           0        1.905310    1.717115   -1.060070
     49          1           0        2.031043    1.772727    0.683625
     50          1           0        4.413085    1.615208   -1.239698
     51          1           0        4.537158    1.675318    0.511119
     52          1           0        3.372476    3.910908    0.522873
     53          1           0        3.248221    3.850339   -1.240360
     54          1           0        4.839709    3.946047   -0.468790
     55          1           0       -0.988645    1.644979   -0.046944
 ---------------------------------------------------------------------

 SCF Done:  E(RB3LYP) =  -932.828178572     A.U. after   14 cycles

 Excitation energies and oscillator strengths:

 Excited state symmetry could not be determined.
 Excited State   1:      Triplet-?Sym    2.6674 eV  464.81 nm  f=0.0000  <S**2>=2.000
      84 -> 89         0.12578
      85 -> 87        -0.18116
      85 -> 88         0.13078
      86 -> 87         0.64501
      86 -> 88         0.12595
 This state for optimization and/or second-order correction.
 Total Energy, E(TD-HF/TD-DFT) =  -932.730152824
 Copying the excited state density for this state as the 1-particle RhoCI density.

 Excited state symmetry could not be determined.
 Excited State   2:      Triplet-?Sym    3.6683 eV  337.99 nm  f=0.0000  <S**2>=2.000
      85 -> 87         0.64360
      85 -> 88        -0.12545
      86 -> 87         0.20639
      86 -> 89         0.10478

 Excited state symmetry could not be determined.
 Excited State   3:      Singlet-?Sym    4.0479 eV  306.29 nm  f=0.0736  <S**2>=0.000
      85 -> 87         0.15130
      85 -> 88         0.15503
      86 -> 87         0.64974
      86 -> 88        -0.16274

 Excited state symmetry could not be determined.
 Excited State   4:      Singlet-?Sym    4.4321 eV  279.74 nm  f=0.0159  <S**2>=0.000
      85 -> 87         0.50285
      86 -> 87        -0.22614
      86 -> 88        -0.43351

 Alpha  occ. eigenvalues --  -19.16784 -10.24606 -10.21749 -10.19832 -10.19400
 Alpha  occ. eigenvalues --  -10.19329 -10.19135 -10.19031 -10.18874 -10.18514
 Alpha  occ. eigenvalues --  -10.18464 -10.18211 -10.18172 -10.18171 -10.18130
 Alpha  occ. eigenvalues --  -10.18102 -10.17938 -10.17739 -10.16651 -10.16369
 Alpha  occ. eigenvalues --  -10.16046 -10.16039 -10.15804  -1.05448  -0.86416
 Alpha  occ. eigenvalues --   -0.83618  -0.81328  -0.79736  -0.77031  -0.76116
 Alpha  occ. eigenvalues --   -0.73731  -0.72296  -0.70680  -0.69635  -0.68722
 Alpha  occ. eigenvalues --   -0.67546  -0.65810  -0.63060  -0.61336  -0.60219
 Alpha  occ. eigenvalues --   -0.59191  -0.57482  -0.55145  -0.54670  -0.52517
 Alpha  occ. eigenvalues --   -0.49988  -0.48877  -0.46992  -0.46385  -0.45277
 Alpha  occ. eigenvalues --   -0.45265  -0.44977  -0.44010  -0.42578  -0.42351
 Alpha  occ. eigenvalues --   -0.42177  -0.41942  -0.40843  -0.40509  -0.40154
 Alpha  occ. eigenvalues --   -0.39681  -0.39087  -0.38674  -0.38113  -0.37743
 Alpha  occ. eigenvalues --   -0.37066  -0.36498  -0.35984  -0.35861  -0.35215
 Alpha  occ. eigenvalues --   -0.35075  -0.34768  -0.34505  -0.34383  -0.33032
 Alpha  occ. eigenvalues --   -0.32843  -0.32620  -0.32307  -0.31365  -0.31039
 Alpha  occ. eigenvalues --   -0.29359  -0.29166  -0.28377  -0.26000  -0.22086
 Alpha  occ. eigenvalues --   -0.19549
 Alpha virt. eigenvalues --   -0.02877   0.00363   0.04021   0.06158   0.08855
 Alpha virt. eigenvalues --    0.09773   0.10145   0.10749   0.11762   0.11791
 Alpha virt. eigenvalues --    0.12544   0.12793   0.12971   0.13737   0.14002

 Mulliken charges:
               1
     1  C   -0.458784
     2  C   -0.254260
     3  C   -0.293709
     4  C   -0.023897
     5  C   -0.464193
     6  C   -0.467970
     7  C    0.172405
     8  C   -0.317567
     9  C    0.161364
    10  C   -0.191242
    11  C   -0.142848
    12  C   -0.135467
    13  C   -0.233372
    14  C    0.081458
    15  C    0.067865
    16  C    0.050252
    17  C   -0.469841
    18  C   -0.469299
    19  C   -0.241928
    20  C   -0.263145
    21  C   -0.439986
    22  C    0.174845
    23  O   -0.658725
    24  H    0.147393
    25  H    0.149311
    26  H    0.147049
    27  H    0.139399
    28  H    0.140829
    29  H    0.141253
    30  H    0.146357
    31  H    0.151219
    32  H    0.152459
    33  H    0.147945
    34  H    0.150703
    35  H    0.159158
    36  H    0.149742
    37  H    0.126671
    38  H    0.122962
    39  H    0.124686
    40  H    0.124562
    41  H    0.147622
    42  H    0.156909
    43  H    0.139942
    44  H    0.142823
    45  H    0.139905
    46  H    0.156758
    47  H    0.142274
    48  H    0.135072
    49  H    0.136814
    50  H    0.131651
    51  H    0.131925
    52  H    0.138925
    53  H    0.138400
    54  H    0.136764
    55  H    0.420557
 Sum of Mulliken charges =  -0.00000

 Dipole moment (field-independent basis, Debye):
    X=             -2.3856    Y=              0.5401    Z=             -0.0443  Tot=              2.4464
 Quadrupole moment (field-independent basis, Debye-Ang):
   XX=           -132.6026   YY=           -139.1305   ZZ=           -144.9670
   XY=             -3.5039   XZ=             -0.2305   YZ=             -0.5996

 Normal termination of Gaussian 16 at Sat Nov  5 12:12:36 2022.
