 Gaussian 16, Revision B.01,
 Gaussian 16:  ES64L-G16RevB.01 20-Dec-2017

 -----------------------------
 #p b3lyp/6-31g(d) opt SCF=XQC
 -----------------------------

 ------------------------------
 Gaussian input prepared by ASE
 ------------------------------
 Symbolic Z-matrix:
 Charge =  0 Multiplicity = 1

 SCF Done:  E(RB3LYP) =  -932.820872074     A.U. after   14 cycles
 SCF Done:  E(RB3LYP) =  -932.826015111     A.U. after   12 cycles
 SCF Done:  E(RB3LYP) =  -932.826341793     A.U. after   12 cycles
 SCF Done:  E(RB3LYP) =  -932.826305295     A.U. after   11 cycles
 SCF Done:  E(RB3LYP) =  -932.810597686     A.U. after   12 cycles
 SCF Done:  E(RB3LYP) =  -932.809065004     A.U. after   11 cycles
 SCF Done:  E(RB3LYP) =  -932.826784257     A.U. after    9 cycles
 SCF Done:  E(RB3LYP) =  -932.827381787     A.U. after   11 cycles
 SCF Done:  E(RB3LYP) =  -932.826343078     A.U. after   12 cycles
 SCF Done:  E(RB3LYP) =  -932.827837300     A.U. after   11 cycles
 SCF Done:  E(RB3LYP) =  -932.828148541     A.U. after   10 cycles
 SCF Done:  E(RB3LYP) =  -932.828176072     A.U. after    9 cycles
 SCF Done:  E(RB3LYP) =  -932.828176667     A.U. after    9 cycles
 SCF Done:  E(RB3LYP) =  -932.828179515     A.U. after    8 cycles
 SCF Done:  E(RB3LYP) =  -932.828179708     A.U. after    7 cycles
 SCF Done:  E(RB3LYP) =  -932.828180067     A.U. after    7 cycles
 SCF Done:  E(RB3LYP) =  -932.828180151     A.U. after    7 cycles
 SCF Done:  E(RB3LYP) =  -932.828180187     A.U. after    7 cycles
 SCF Done:  E(RB3LYP) =  -932.828180164     A.U. after    7 cycles
 SCF Done:  E(RB3LYP) =  -932.828180163     A.U. after    6 cycles
 Optimization completed.
    -- Stationary point found.

                         Standard orientation:
 ---------------------------------------------------------------------
 Center     Atomic      Atomic             Coordinates (Angstroms)
 Number     Number       Type             X           Y           Z
 ---------------------------------------------------------------------
      1          6           0       -4.752097    2.136520   -0.458306
      2          6           0       -4.708601    0.676893   -0.932050
      3          6           0       -3.295072    0.053972   -0.976391
      4          6           0       -2.774221   -0.687314    0.311873
      5          6           0       -3.562444   -2.014008    0.399519
      6          6           0       -3.070806    0.047981    1.651526
      7          6           0       -1.250187   -0.946027    0.171058
      8          6           0       -0.759294   -2.224407    0.093642
      9          6           0        0.621452   -2.504623   -0.018622
     10          6           0        1.044087   -3.858969   -0.091883
     11          6           0        2.372518   -4.190518   -0.197772
     12          6           0        3.323860   -3.149875   -0.232742
     13          6           0        2.938873   -1.827728   -0.162882
     14          6           0        1.567808   -1.428627   -0.052280
     15          6           0        1.096667   -0.055770    0.020950
     16          6           0        2.150641    1.110035   -0.020376
     17          6           0        3.092267    0.964685    1.215657
     18          6           0        2.905374    1.042743   -1.384399
     19          6           0        1.577861    2.564877    0.065080
     20          6           0        2.615479    3.704028    0.031339
     21          6           0        1.934290    5.076045    0.117441
     22          6           0       -0.286426    0.130305    0.123698
     23          8           0       -0.761058    1.418383    0.190800
     24          1           0       -4.393936    2.252880    0.570312
     25          1           0       -5.774639    2.529632   -0.493216
     26          1           0       -4.132819    2.774690   -1.101194
     27          1           0       -5.380070    0.067971   -0.313872
     28          1           0       -5.127569    0.636033   -1.945640
     29          1           0       -2.595223    0.831624   -1.308005
     30          1           0       -3.257913   -0.693999   -1.777841
     31          1           0       -3.433172   -2.628953   -0.496969
     32          1           0       -3.263251   -2.605347    1.271141
     33          1           0       -4.631682   -1.803380    0.501523
     34          1           0       -4.148054    0.194033    1.781118
     35          1           0       -2.716671   -0.570327    2.483412
     36          1           0       -2.588228    1.022775    1.764789
     37          1           0       -1.429499   -3.074919    0.122620
     38          1           0        0.281266   -4.634073   -0.061363
     39          1           0        2.686594   -5.229000   -0.253182
     40          1           0        4.381393   -3.387424   -0.316066
     41          1           0        3.724847   -1.089750   -0.195765
     42          1           0        3.356272   -0.063391    1.458351
     43          1           0        4.024081    1.520943    1.068349
     44          1           0        2.595076    1.378574    2.100949
     45          1           0        3.847775    1.598926   -1.340842
     46          1           0        3.133615    0.032281   -1.719800
     47          1           0        2.285611    1.500442   -2.164582
     48          1           0        0.878169    2.728110   -0.759243
     49          1           0        0.996277    2.672378    0.984980
     50          1           0        3.210186    3.664256   -0.889290
     51          1           0        3.325061    3.611307    0.862385
     52          1           0        1.356396    5.175146    1.044731
     53          1           0        1.241357    5.228722   -0.719354
     54          1           0        2.669476    5.889024    0.094150
     55          1           0       -1.724436    1.402452    0.176538
 ---------------------------------------------------------------------

 The electronic state is 1-A.
 Alpha  occ. eigenvalues --  -19.16784 -10.24606 -10.21749 -10.19832 -10.19400
 Alpha  occ. eigenvalues --  -10.19329 -10.19135 -10.19031 -10.18874 -10.18514
 Alpha  occ. eigenvalues --  -10.18464 -10.18211 -10.18171 -10.18171 -10.18130
 Alpha  occ. eigenvalues --  -10.18102 -10.17938 -10.17739 -10.16651 -10.16369
 Alpha  occ. eigenvalues --  -10.16047 -10.16039 -10.15804  -1.05448  -0.86415
 Alpha  occ. eigenvalues --   -0.83618  -0.81328  -0.79736  -0.77031  -0.76116
 Alpha  occ. eigenvalues --   -0.73731  -0.72296  -0.70680  -0.69635  -0.68722
 Alpha  occ. eigenvalues --   -0.67546  -0.65810  -0.63060  -0.61336  -0.60219
 Alpha  occ. eigenvalues --   -0.59191  -0.57482  -0.55145  -0.54670  -0.52517
 Alpha  occ. eigenvalues --   -0.49988  -0.48877  -0.46992  -0.46385  -0.45277
 Alpha  occ. eigenvalues --   -0.45265  -0.44977  -0.44010  -0.42578  -0.42351
 Alpha  occ. eigenvalues --   -0.42177  -0.41942  -0.40843  -0.40509  -0.40154
 Alpha  occ. eigenvalues --   -0.39681  -0.39087  -0.38674  -0.38113  -0.37743
 Alpha  occ. eigenvalues --   -0.37066  -0.36498  -0.35984  -0.35861  -0.35215
 Alpha  occ. eigenvalues --   -0.35075  -0.34768  -0.34505  -0.34383  -0.33032
 Alpha  occ. eigenvalues --   -0.32843  -0.32620  -0.32307  -0.31365  -0.31039
 Alpha  occ. eigenvalues --   -0.29359  -0.29166  -0.28377  -0.26000  -0.22086
 Alpha  occ. eigenvalues --   -0.19549
 Alpha virt. eigenvalues --   -0.02877   0.00363   0.04021   0.06158   0.08855
 Alpha virt. eigenvalues --    0.09773   0.10145   0.10749   0.11762   0.11791
 Alpha virt. eigenvalues --    0.12544   0.12793   0.12971   0.13738   0.14002

 Mulliken charges:
               1
     1  C   -0.458772
     2  C   -0.254289
     3  C   -0.293675
     4  C   -0.023886
     5  C   -0.464206
     6  C   -0.467940
     7  C    0.172363
     8  C   -0.317559
     9  C    0.161371
    10  C   -0.191245
    11  C   -0.142847
    12  C   -0.135464
    13  C   -0.233373
    14  C    0.081449
    15  C    0.067884
    16  C    0.050246
    17  C   -0.469853
    18  C   -0.469312
    19  C   -0.241931
    20  C   -0.263157
    21  C   -0.439989
    22  C    0.174862
    23  O   -0.658723
    24  H    0.147391
    25  H    0.149311
    26  H    0.147048
    27  H    0.139400
    28  H    0.140831
    29  H    0.141248
    30  H    0.146351
    31  H    0.151220
    32  H    0.152460
    33  H    0.147944
    34  H    0.150697
    35  H    0.159152
    36  H    0.149737
    37  H    0.126672
    38  H    0.122962
    39  H    0.124686
    40  H    0.124561
    41  H    0.147627
    42  H    0.156911
    43  H    0.139947
    44  H    0.142825
    45  H    0.139909
    46  H    0.156760
    47  H    0.142277
    48  H    0.135074
    49  H    0.136814
    50  H    0.131655
    51  H    0.131930
    52  H    0.138927
    53  H    0.138401
    54  H    0.136765
    55  H    0.420555
 Sum of Mulliken charges =  -0.00000

 Dipole moment (field-independent basis, Debye):
    X=             -2.4007    Y=             -0.4676    Z=             -0.0515  Tot=              2.4464
 Quadrupole moment (field-independent basis, Debye-Ang):
   XX=           -130.3377   YY=           -140.8548   ZZ=           -145.0557
   XY=             -0.5865   XZ=             -0.4014   YZ=             -0.3076

 1\1\GINC-NODE83\FOpt\RB3LYP\6-31G(d)\C22H32O1\WYKGROUP\04-Nov-2022\0\\
 #p b3lyp/6-31g(d) opt SCF=XQC\\Gaussian input prepared by ASE\\0,1\C,-
 3.4757587716,3.481044983,-0.7897384036\C,-4.036357718,2.0927927095,-1.
 1293301993\C,-2.9962093949,0.9503905125,-1.0965978432\C,-2.7895203519,
 0.1788042221,0.2607335589\C,-4.0441296519,-0.702627825,0.4559976143\C,
 -2.7329252456,1.0864408134,1.5241750052\C,-1.5034556009,-0.6852219103,
 0.166196173\C,-1.57255735,-2.0543083219,0.211513356\C,-0.4255603416,-2
 .8774669322,0.1452411511\C,-0.5876692341,-4.2877513863,0.20053906\C,0.

 Normal termination of Gaussian 16 at Fri Nov  4 20:38:39 2022.
