 Gaussian 16, Revision B.01,
 Gaussian 16:  ES64L-G16RevB.01 20-Dec-2017

 -----------------------------
 #p b3lyp/6-31g(d) opt SCF=XQC
 -----------------------------

 ------------------------------
 Gaussian input prepared by ASE
 ------------------------------
 Symbolic Z-matrix:
 Charge =  0 Multiplicity = 1

 SCF Done:  E(RB3LYP) =  -1545.79186456     A.U. after   15 cycles
 SCF Done:  E(RB3LYP) =  -1545.79958577     A.U. after   13 cycles
 SCF Done:  E(RB3LYP) =  -1545.80157482     A.U. after   13 cycles
 SCF Done:  E(RB3LYP) =  -1545.80235405     A.U. after   12 cycles
 SCF Done:  E(RB3LYP) =  -1545.80244099     A.U. after   11 cycles
 SCF Done:  E(RB3LYP) =  -1545.80254627     A.U. after   11 cycles
 SCF Done:  E(RB3LYP) =  -1545.80256847     A.U. after   10 cycles
 SCF Done:  E(RB3LYP) =  -1545.80257844     A.U. after   10 cycles
 SCF Done:  E(RB3LYP) =  -1545.80258092     A.U. after    9 cycles
 SCF Done:  E(RB3LYP) =  -1545.80258141     A.U. after    8 cycles
 SCF Done:  E(RB3LYP) =  -1545.80258149     A.U. after    7 cycles
 Optimization completed.
    -- Stationary point found.

                         Standard orientation:
 ---------------------------------------------------------------------
 Center     Atomic      Atomic             Coordinates (Angstroms)
 Number     Number       Type             X           Y           Z
 ---------------------------------------------------------------------
      1          6           0        5.714373    2.282494    0.947420
      2          6           0        4.495496    1.634770    0.294502
      3          7           0        4.796846    0.234543   -0.043129
      4         16           0        3.737571   -0.636056   -1.015923
      5          8           0        4.317324   -1.977987   -1.106756
      6          8           0        3.478157    0.196966   -2.190857
      7          6           0        2.187199   -0.792535   -0.123909
      8          6           0        1.949264   -1.926122    0.653437
      9          6           0        0.765957   -2.032628    1.381380
     10          6           0       -0.188719   -1.006866    1.327733
     11          8           0       -1.351337   -1.015493    2.025518
     12          6           0       -1.683558   -2.163644    2.797244
     13          6           0        0.038113    0.125634    0.514497
     14          6           0       -0.898607    1.306704    0.482981
     15          8           0       -0.477047    2.413469    0.815478
     16          7           0       -2.201330    1.134727    0.090461
     17          6           0       -2.871530    0.024309   -0.477234
     18          6           0       -2.352862   -1.086181   -1.145286
     19          6           0       -3.250917   -2.032111   -1.650930
     20          6           0       -4.630698   -1.867555   -1.515703
     21          6           0       -5.138642   -0.733033   -0.871594
     22          6           0       -4.258055    0.210306   -0.358830
     23          6           0       -4.534393    1.511323    0.359475
     24          6           0       -3.172188    2.247806    0.295698
     25          6           0       -3.090836    3.270128   -0.840687
     26          6           0        1.238639    0.231407   -0.184999
     27          1           0        5.977068    1.783334    1.888394
     28          1           0        5.501951    3.331824    1.177535
     29          1           0        6.580982    2.236960    0.281100
     30          1           0        4.255253    2.139863   -0.644360
     31          1           0        3.618986    1.718448    0.955362
     32          1           0        5.096948   -0.337532    0.743708
     33          1           0        2.681526   -2.726483    0.675240
     34          1           0        0.594172   -2.914736    1.986612
     35          1           0       -0.955058   -2.330343    3.600343
     36          1           0       -1.750911   -3.059149    2.167846
     37          1           0       -2.660860   -1.952097    3.232782
     38          1           0       -1.287577   -1.214362   -1.291063
     39          1           0       -2.859305   -2.900416   -2.173956
     40          1           0       -5.309983   -2.609744   -1.925093
     41          1           0       -6.212302   -0.586914   -0.780204
     42          1           0       -4.833977    1.328230    1.400501
     43          1           0       -5.330823    2.098451   -0.109912
     44          1           0       -2.917580    2.734015    1.239317
     45          1           0       -2.087045    3.698915   -0.890120
     46          1           0       -3.807554    4.081387   -0.667008
     47          1           0       -3.327518    2.803607   -1.803995
     48          1           0        1.418858    1.107886   -0.797815
 ---------------------------------------------------------------------

 The electronic state is 1-A.
 Alpha  occ. eigenvalues --  -89.10626 -19.20198 -19.13553 -19.13506 -19.11977
 Alpha  occ. eigenvalues --  -14.37648 -14.36236 -10.29690 -10.27786 -10.25830
 Alpha  occ. eigenvalues --  -10.23387 -10.23279 -10.22787 -10.22420 -10.21983
 Alpha  occ. eigenvalues --  -10.21818 -10.21673 -10.21273 -10.20044 -10.19882
 Alpha  occ. eigenvalues --  -10.19570 -10.19500 -10.19423 -10.19108 -10.18844
 Alpha  occ. eigenvalues --  -10.17721  -8.13092  -6.09576  -6.09515  -6.09423
 Alpha  occ. eigenvalues --   -1.10378  -1.08967  -1.04033  -0.99525  -0.95883
 Alpha  occ. eigenvalues --   -0.92034  -0.87991  -0.85097  -0.80751  -0.78724
 Alpha  occ. eigenvalues --   -0.77601  -0.75899  -0.75554  -0.74403  -0.72634
 Alpha  occ. eigenvalues --   -0.68688  -0.66609  -0.65726  -0.63378  -0.62700
 Alpha  occ. eigenvalues --   -0.61270  -0.59730  -0.59302  -0.56732  -0.55364
 Alpha  occ. eigenvalues --   -0.54165  -0.51366  -0.50109  -0.49318  -0.49000
 Alpha  occ. eigenvalues --   -0.48810  -0.48584  -0.48129  -0.47089  -0.46184
 Alpha  occ. eigenvalues --   -0.45681  -0.44667  -0.44380  -0.43891  -0.42930
 Alpha  occ. eigenvalues --   -0.42805  -0.42014  -0.41670  -0.40968  -0.40438
 Alpha  occ. eigenvalues --   -0.40120  -0.39578  -0.38487  -0.38256  -0.37815
 Alpha  occ. eigenvalues --   -0.37608  -0.36725  -0.36321  -0.35401  -0.35110
 Alpha  occ. eigenvalues --   -0.34748  -0.34402  -0.33836  -0.32825  -0.31016
 Alpha  occ. eigenvalues --   -0.29817  -0.29662  -0.29578  -0.28091  -0.27528
 Alpha  occ. eigenvalues --   -0.25387  -0.25161  -0.23935  -0.21300
 Alpha virt. eigenvalues --   -0.04282  -0.02738  -0.01008  -0.00301   0.04026
 Alpha virt. eigenvalues --    0.06224   0.08212   0.09115   0.09486   0.09716
 Alpha virt. eigenvalues --    0.10062   0.10294   0.10868   0.11359   0.12164

 Mulliken charges:
               1
     1  C   -0.456275
     2  C   -0.147294
     3  N   -0.650875
     4  S    1.208426
     5  O   -0.537286
     6  O   -0.546826
     7  C   -0.160878
     8  C   -0.154868
     9  C   -0.193881
    10  C    0.379301
    11  O   -0.504243
    12  C   -0.222054
    13  C   -0.002482
    14  C    0.526500
    15  O   -0.509810
    16  N   -0.560974
    17  C    0.350865
    18  C   -0.164091
    19  C   -0.151480
    20  C   -0.130267
    21  C   -0.209859
    22  C    0.093242
    23  C   -0.353634
    24  C    0.027403
    25  C   -0.448348
    26  C   -0.178168
    27  H    0.144218
    28  H    0.160221
    29  H    0.172818
    30  H    0.192016
    31  H    0.155214
    32  H    0.339561
    33  H    0.181219
    34  H    0.148010
    35  H    0.158726
    36  H    0.164657
    37  H    0.180237
    38  H    0.153563
    39  H    0.134546
    40  H    0.128829
    41  H    0.128773
    42  H    0.161714
    43  H    0.159280
    44  H    0.167740
    45  H    0.181914
    46  H    0.144994
    47  H    0.151525
    48  H    0.188082
 Sum of Mulliken charges =  -0.00000

 Dipole moment (field-independent basis, Debye):
    X=             -4.4838    Y=             -1.3199    Z=              5.2629  Tot=              7.0388
 Quadrupole moment (field-independent basis, Debye-Ang):
   XX=           -150.5544   YY=           -153.7475   ZZ=           -160.0357
   XY=              9.5188   XZ=             15.9327   YZ=             -9.7545

 Normal termination of Gaussian 16 at Fri Nov  4 21:06:13 2022.
