 Gaussian 16, Revision B.01,
 Gaussian 16:  ES64L-G16RevB.01 20-Dec-2017

 -------------------------------------------------------------------
 #p b3lyp/6-31g(d) 6D 10F nosymm GFInput td=(50-50,nstate=2) SCF=XQC
 -------------------------------------------------------------------

 ------------------------------
 Gaussian input prepared by ASE
 ------------------------------
 Symbolic Z-matrix:
 Charge =  0 Multiplicity = 1

                          Input orientation:
 ---------------------------------------------------------------------
 Center     Atomic      Atomic             Coordinates (Angstroms)
 Number     Number       Type             X           Y           Z
 ---------------------------------------------------------------------
      1          6           0       -5.979970   -0.488794   -2.352181
      2          6           0       -4.723190    0.136132   -1.750948
      3          7           0       -5.043055    0.743376   -0.449264
      4         16           0       -3.917726    1.737187    0.307245
      5          8           0       -4.539549    2.121779    1.576328
      6          8           0       -3.491387    2.714393   -0.695250
      7          6           0       -2.486889    0.728948    0.707230
      8          6           0       -2.387024    0.141499    1.968512
      9          6           0       -1.299765   -0.676424    2.269063
     10          6           0       -0.302711   -0.903488    1.309482
     11          8           0        0.771576   -1.706857    1.507381
     12          6           0        0.965055   -2.296129    2.787813
     13          6           0       -0.387519   -0.281877    0.043872
     14          6           0        0.595755   -0.555918   -1.065829
     15          8           0        0.186240   -1.031041   -2.124012
     16          7           0        1.926238   -0.277990   -0.883325
     17          6           0        2.609156    0.401982    0.153851
     18          6           0        2.123404    1.304733    1.101260
     19          6           0        3.032383    1.871294    2.001109
     20          6           0        4.393537    1.565584    1.946685
     21          6           0        4.872383    0.683189    0.970925
     22          6           0        3.979823    0.108281    0.075901
     23          6           0        4.227368   -0.851642   -1.065255
     24          6           0        2.913595   -0.775475   -1.883959
     25          6           0        3.005296    0.166540   -3.087009
     26          6           0       -1.495136    0.510129   -0.252196
     27          1           0       -6.368849   -1.295069   -1.717913
     28          1           0       -5.750968   -0.920036   -3.332364
     29          1           0       -6.766303    0.262251   -2.473338
     30          1           0       -4.356587    0.941651   -2.392069
     31          1           0       -3.924798   -0.617285   -1.667629
     32          1           0       -5.454611    0.104681    0.228329
     33          1           0       -3.150164    0.336979    2.714612
     34          1           0       -1.235360   -1.132478    3.249775
     35          1           0        0.143541   -2.976848    3.043166
     36          1           0        1.065678   -1.530238    3.566204
     37          1           0        1.894528   -2.861905    2.713368
     38          1           0        1.077159    1.581462    1.137386
     39          1           0        2.666482    2.576360    2.742639
     40          1           0        5.083020    2.025159    2.649021
     41          1           0        5.933886    0.455684    0.908456
     42          1           0        4.398584   -1.870094   -0.690490
     43          1           0        5.096108   -0.578341   -1.673482
     44          1           0        2.574067   -1.757706   -2.218003
     45          1           0        2.032659    0.244997   -3.578658
     46          1           0        3.731231   -0.220590   -3.811674
     47          1           0        3.330102    1.166476   -2.776764
     48          1           0       -1.567289    0.975477   -1.229172
 ---------------------------------------------------------------------

 SCF Done:  E(RB3LYP) =  -1545.80257763     A.U. after   15 cycles

 Excitation energies and oscillator strengths:

 Excited state symmetry could not be determined.
 Excited State   1:      Triplet-?Sym    3.2786 eV  378.16 nm  f=0.0000  <S**2>=2.000
      97 ->102         0.18060
      97 ->103        -0.10843
      99 ->100         0.52676
      99 ->102         0.23605
      99 ->103         0.30763
 This state for optimization and/or second-order correction.
 Total Energy, E(TD-HF/TD-DFT) =  -1545.68209043
 Copying the excited state density for this state as the 1-particle RhoCI density.

 Excited state symmetry could not be determined.
 Excited State   2:      Triplet-?Sym    3.4655 eV  357.77 nm  f=0.0000  <S**2>=2.000
      94 ->100        -0.21130
      94 ->101         0.12676
      96 ->100         0.11569
      96 ->101        -0.19642
      98 ->100         0.53104
      98 ->101         0.22375
      98 ->102        -0.12028

 Excited state symmetry could not be determined.
 Excited State   3:      Singlet-?Sym    4.0559 eV  305.69 nm  f=0.0803  <S**2>=0.000
      99 ->100         0.69795

 Excited state symmetry could not be determined.
 Excited State   4:      Singlet-?Sym    4.4076 eV  281.30 nm  f=0.0057  <S**2>=0.000
      99 ->101         0.69832

 Alpha  occ. eigenvalues --  -89.10626 -19.20198 -19.13552 -19.13506 -19.11976
 Alpha  occ. eigenvalues --  -14.37648 -14.36236 -10.29690 -10.27786 -10.25830
 Alpha  occ. eigenvalues --  -10.23387 -10.23279 -10.22787 -10.22420 -10.21983
 Alpha  occ. eigenvalues --  -10.21818 -10.21673 -10.21273 -10.20044 -10.19882
 Alpha  occ. eigenvalues --  -10.19570 -10.19500 -10.19423 -10.19108 -10.18844
 Alpha  occ. eigenvalues --  -10.17721  -8.13092  -6.09576  -6.09515  -6.09422
 Alpha  occ. eigenvalues --   -1.10378  -1.08967  -1.04033  -0.99525  -0.95883
 Alpha  occ. eigenvalues --   -0.92034  -0.87991  -0.85097  -0.80751  -0.78724
 Alpha  occ. eigenvalues --   -0.77601  -0.75899  -0.75554  -0.74403  -0.72634
 Alpha  occ. eigenvalues --   -0.68688  -0.66609  -0.65726  -0.63378  -0.62700
 Alpha  occ. eigenvalues --   -0.61270  -0.59730  -0.59302  -0.56732  -0.55364
 Alpha  occ. eigenvalues --   -0.54165  -0.51365  -0.50109  -0.49318  -0.49000
 Alpha  occ. eigenvalues --   -0.48810  -0.48584  -0.48129  -0.47089  -0.46184
 Alpha  occ. eigenvalues --   -0.45681  -0.44667  -0.44380  -0.43891  -0.42930
 Alpha  occ. eigenvalues --   -0.42805  -0.42014  -0.41670  -0.40968  -0.40438
 Alpha  occ. eigenvalues --   -0.40120  -0.39578  -0.38487  -0.38256  -0.37815
 Alpha  occ. eigenvalues --   -0.37608  -0.36725  -0.36321  -0.35401  -0.35110
 Alpha  occ. eigenvalues --   -0.34748  -0.34402  -0.33836  -0.32825  -0.31016
 Alpha  occ. eigenvalues --   -0.29817  -0.29662  -0.29578  -0.28091  -0.27528
 Alpha  occ. eigenvalues --   -0.25387  -0.25161  -0.23935  -0.21300
 Alpha virt. eigenvalues --   -0.04282  -0.02738  -0.01008  -0.00301   0.04026
 Alpha virt. eigenvalues --    0.06224   0.08212   0.09115   0.09486   0.09716
 Alpha virt. eigenvalues --    0.10063   0.10294   0.10868   0.11359   0.12164

 Mulliken charges:
               1
     1  C   -0.456276
     2  C   -0.147285
     3  N   -0.650877
     4  S    1.208429
     5  O   -0.537289
     6  O   -0.546824
     7  C   -0.160889
     8  C   -0.154863
     9  C   -0.193889
    10  C    0.379323
    11  O   -0.504251
    12  C   -0.222055
    13  C   -0.002487
    14  C    0.526499
    15  O   -0.509809
    16  N   -0.560962
    17  C    0.350888
    18  C   -0.164104
    19  C   -0.151481
    20  C   -0.130274
    21  C   -0.209844
    22  C    0.093199
    23  C   -0.353623
    24  C    0.027411
    25  C   -0.448354
    26  C   -0.178160
    27  H    0.144218
    28  H    0.160221
    29  H    0.172818
    30  H    0.192014
    31  H    0.155213
    32  H    0.339560
    33  H    0.181218
    34  H    0.148007
    35  H    0.158725
    36  H    0.164657
    37  H    0.180236
    38  H    0.153562
    39  H    0.134547
    40  H    0.128830
    41  H    0.128772
    42  H    0.161717
    43  H    0.159279
    44  H    0.167738
    45  H    0.181914
    46  H    0.144995
    47  H    0.151525
    48  H    0.188081
 Sum of Mulliken charges =  -0.00000

 Dipole moment (field-independent basis, Debye):
    X=              3.7963    Y=             -5.3907    Z=              2.4644  Tot=              7.0388
 Quadrupole moment (field-independent basis, Debye-Ang):
   XX=           -150.0403   YY=           -169.2846   ZZ=           -149.4417
   XY=             18.6744   XZ=              5.4392   YZ=             -7.5767

 Normal termination of Gaussian 16 at Sat Nov  5 12:19:30 2022.
