 Gaussian 16, Revision B.01,
 Gaussian 16:  ES64L-G16RevB.01 20-Dec-2017

 -------------------------------------------------------------------
 #p b3lyp/6-31g(d) 6D 10F nosymm GFInput td=(50-50,nstate=2) SCF=XQC
 -------------------------------------------------------------------

 ------------------------------
 Gaussian input prepared by ASE
 ------------------------------
 Symbolic Z-matrix:
 Charge =  0 Multiplicity = 1

                          Input orientation:
 ---------------------------------------------------------------------
 Center     Atomic      Atomic             Coordinates (Angstroms)
 Number     Number       Type             X           Y           Z
 ---------------------------------------------------------------------
      1          6           0       -7.075816   -2.484197   -0.274620
      2          6           0       -7.742173   -1.898853    0.718081
      3          6           0       -7.441536   -0.549883    1.326596
      4          7           0       -6.382632    0.202617    0.668262
      5          6           0       -6.481569    0.908954   -0.547431
      6          6           0       -7.574218    1.017288   -1.404617
      7          6           0       -7.415024    1.795956   -2.552247
      8          6           0       -6.203129    2.443855   -2.842269
      9          6           0       -5.111643    2.327533   -1.985021
     10          6           0       -5.250931    1.555835   -0.828932
     11          6           0       -4.372680    1.217402    0.268916
     12          7           0       -3.116067    1.526828    0.528822
     13          7           0       -2.591040    1.037242    1.667283
     14          6           0       -3.349227    0.284807    2.483462
     15         16           0       -2.653756   -0.340590    3.990345
     16          6           0       -1.052904    0.559139    4.130704
     17          6           0        0.136442   -0.104103    3.423534
     18          8           0        0.976000   -0.726693    4.057728
     19          7           0        0.147162    0.105615    2.068124
     20          6           0        1.060450   -0.363568    1.114501
     21          6           0        2.184961   -1.144485    1.434743
     22          6           0        3.041778   -1.565835    0.422079
     23          6           0        2.784408   -1.210421   -0.902662
     24         16           0        3.863539   -1.771834   -2.204299
     25          8           0        4.557947   -2.974444   -1.752669
     26          8           0        3.125296   -1.744641   -3.471132
     27          7           0        4.979081   -0.492292   -2.427705
     28          6           0        6.117203   -0.246117   -1.664959
     29          7           0        6.122401   -0.674685   -0.400672
     30          6           0        7.224071   -0.394220    0.311353
     31          6           0        7.248738   -0.890714    1.731780
     32          6           0        8.284403    0.323788   -0.247352
     33          6           0        8.164915    0.735880   -1.578008
     34          6           0        9.244931    1.517688   -2.277251
     35          7           0        7.073913    0.444173   -2.300417
     36          6           0        1.665597   -0.441455   -1.235022
     37          6           0        0.809484   -0.019961   -0.227890
     38          7           0       -4.631189   -0.086996    2.291495
     39          6           0       -5.124883    0.385816    1.163709
     40          1           0       -6.224899   -2.013374   -0.758802
     41          1           0       -7.360021   -3.467168   -0.637545
     42          1           0       -8.589090   -2.406817    1.179147
     43          1           0       -7.132997   -0.671577    2.371164
     44          1           0       -8.348180    0.070227    1.335169
     45          1           0       -8.508069    0.504289   -1.200958
     46          1           0       -8.250452    1.896995   -3.239126
     47          1           0       -6.117468    3.038387   -3.746666
     48          1           0       -4.169842    2.822285   -2.200585
     49          1           0       -0.830843    0.552179    5.199172
     50          1           0       -1.208770    1.588162    3.796463
     51          1           0       -0.666999    0.613732    1.711205
     52          1           0        2.368626   -1.413633    2.465256
     53          1           0        3.913181   -2.165863    0.653791
     54          1           0        5.048493   -0.223483   -3.404375
     55          1           0        7.198032   -1.985493    1.746916
     56          1           0        8.153588   -0.573616    2.257522
     57          1           0        6.372625   -0.521321    2.275846
     58          1           0        9.171722    0.553845    0.332507
     59          1           0        9.593246    0.971842   -3.161125
     60          1           0        8.848900    2.476775   -2.629382
     61          1           0       10.098228    1.707555   -1.620297
     62          1           0        1.465461   -0.193075   -2.271583
     63          1           0       -0.066776    0.574721   -0.474195
 ---------------------------------------------------------------------

 SCF Done:  E(RB3LYP) =  -2465.22881811     A.U. after   15 cycles

 Excitation energies and oscillator strengths:

 Excited state symmetry could not be determined.
 Excited State   1:      Triplet-?Sym    2.6922 eV  460.53 nm  f=0.0000  <S**2>=2.000
     139 ->147         0.15212
     140 ->147         0.21141
     145 ->147         0.61142
 This state for optimization and/or second-order correction.
 Total Energy, E(TD-HF/TD-DFT) =  -2465.12988233
 Copying the excited state density for this state as the 1-particle RhoCI density.

 Excited state symmetry could not be determined.
 Excited State   2:      Triplet-?Sym    2.7568 eV  449.74 nm  f=0.0000  <S**2>=2.000
     139 ->147        -0.59443
     139 ->148         0.11209
     140 ->147         0.31719

 Excited state symmetry could not be determined.
 Excited State   3:      Singlet-?Sym    3.1661 eV  391.59 nm  f=0.0009  <S**2>=0.000
     146 ->147         0.69663

 Excited state symmetry could not be determined.
 Excited State   4:      Singlet-?Sym    3.4521 eV  359.16 nm  f=0.0476  <S**2>=0.000
     139 ->147        -0.34015
     140 ->147         0.17988
     142 ->147         0.19176
     145 ->147         0.54947

 Alpha  occ. eigenvalues --  -89.10648 -88.90981 -19.13307 -19.13199 -19.12527
 Alpha  occ. eigenvalues --  -14.41946 -14.40112 -14.38814 -14.37385 -14.37035
 Alpha  occ. eigenvalues --  -14.36661 -14.32710 -14.32596 -10.30869 -10.29998
 Alpha  occ. eigenvalues --  -10.29997 -10.29164 -10.26229 -10.26076 -10.25494
 Alpha  occ. eigenvalues --  -10.24345 -10.24294 -10.24283 -10.23567 -10.22358
 Alpha  occ. eigenvalues --  -10.21984 -10.21910 -10.21906 -10.21763 -10.21207
 Alpha  occ. eigenvalues --  -10.21109 -10.20272 -10.20246 -10.19776 -10.19566
 Alpha  occ. eigenvalues --  -10.18994 -10.18807 -10.18627 -10.18576  -8.13092
 Alpha  occ. eigenvalues --   -7.97072  -6.09646  -6.09496  -6.09370  -5.93592
 Alpha  occ. eigenvalues --   -5.93168  -5.92572  -1.10154  -1.06502  -1.04273
 Alpha  occ. eigenvalues --   -1.02373  -0.99916  -0.99160  -0.95706  -0.94308
 Alpha  occ. eigenvalues --   -0.91066  -0.89178  -0.88210  -0.86750  -0.85692
 Alpha  occ. eigenvalues --   -0.82607  -0.80605  -0.79297  -0.78019  -0.77224
 Alpha  occ. eigenvalues --   -0.76281  -0.75302  -0.74331  -0.73860  -0.71421
 Alpha  occ. eigenvalues --   -0.70386  -0.69525  -0.68092  -0.65677  -0.64216
 Alpha  occ. eigenvalues --   -0.62998  -0.62625  -0.61985  -0.61229  -0.59095
 Alpha  occ. eigenvalues --   -0.58567  -0.56839  -0.56653  -0.55407  -0.54303
 Alpha  occ. eigenvalues --   -0.53646  -0.53173  -0.52844  -0.52162  -0.50289
 Alpha  occ. eigenvalues --   -0.50147  -0.49481  -0.48259  -0.47820  -0.47330
 Alpha  occ. eigenvalues --   -0.47217  -0.46937  -0.46451  -0.45850  -0.45548
 Alpha  occ. eigenvalues --   -0.45140  -0.44496  -0.44088  -0.43573  -0.43402
 Alpha  occ. eigenvalues --   -0.42899  -0.42638  -0.42214  -0.41928  -0.41483
 Alpha  occ. eigenvalues --   -0.41394  -0.40674  -0.40474  -0.40217  -0.39500
 Alpha  occ. eigenvalues --   -0.39337  -0.39111  -0.38973  -0.37871  -0.37712
 Alpha  occ. eigenvalues --   -0.37655  -0.37259  -0.35912  -0.35550  -0.35194
 Alpha  occ. eigenvalues --   -0.34329  -0.33867  -0.33094  -0.32360  -0.31469
 Alpha  occ. eigenvalues --   -0.31264  -0.30673  -0.30142  -0.29543  -0.29425
 Alpha  occ. eigenvalues --   -0.28762  -0.28436  -0.28109  -0.26147  -0.25830
 Alpha  occ. eigenvalues --   -0.25695  -0.24933  -0.24689  -0.23995  -0.23633
 Alpha  occ. eigenvalues --   -0.22179
 Alpha virt. eigenvalues --   -0.08827  -0.04860  -0.03403  -0.03090  -0.01075
 Alpha virt. eigenvalues --   -0.00438  -0.00248  -0.00202   0.00058   0.00835
 Alpha virt. eigenvalues --    0.03588   0.07025   0.07329   0.07723   0.08636

 Mulliken charges:
               1
     1  C   -0.322365
     2  C   -0.071068
     3  C   -0.199157
     4  N   -0.608227
     5  C    0.298454
     6  C   -0.172867
     7  C   -0.135842
     8  C   -0.141402
     9  C   -0.184252
    10  C    0.131135
    11  C    0.224610
    12  N   -0.367515
    13  N   -0.345677
    14  C    0.289323
    15  S    0.209950
    16  C   -0.545174
    17  C    0.603685
    18  O   -0.484641
    19  N   -0.734688
    20  C    0.363470
    21  C   -0.164354
    22  C   -0.133488
    23  C   -0.156109
    24  S    1.246409
    25  O   -0.515542
    26  O   -0.552778
    27  N   -0.779995
    28  C    0.659372
    29  N   -0.508286
    30  C    0.337765
    31  C   -0.516179
    32  C   -0.235502
    33  C    0.336422
    34  C   -0.511763
    35  N   -0.522829
    36  C   -0.143455
    37  C   -0.205375
    38  N   -0.520362
    39  C    0.572136
    40  H    0.154235
    41  H    0.156434
    42  H    0.144111
    43  H    0.207764
    44  H    0.172878
    45  H    0.150254
    46  H    0.144555
    47  H    0.143213
    48  H    0.161280
    49  H    0.216271
    50  H    0.213619
    51  H    0.400879
    52  H    0.190055
    53  H    0.183939
    54  H    0.371733
    55  H    0.184385
    56  H    0.154079
    57  H    0.181684
    58  H    0.132640
    59  H    0.179889
    60  H    0.177634
    61  H    0.154760
    62  H    0.174544
    63  H    0.155324
 Sum of Mulliken charges =  -0.00000

 Dipole moment (field-independent basis, Debye):
    X=             -7.3684    Y=              5.1341    Z=              0.7608  Tot=              9.0128
 Quadrupole moment (field-independent basis, Debye-Ang):
   XX=           -146.0353   YY=           -246.2587   ZZ=           -245.6887
   XY=             17.7617   XZ=             14.7412   YZ=             -8.6149

 Normal termination of Gaussian 16 at Sat Nov  5 12:22:39 2022.
