 Gaussian 16, Revision B.01,
 Gaussian 16:  ES64L-G16RevB.01 20-Dec-2017

 -----------------------------
 #p b3lyp/6-31g(d) opt SCF=XQC
 -----------------------------

 ------------------------------
 Gaussian input prepared by ASE
 ------------------------------
 Symbolic Z-matrix:
 Charge =  0 Multiplicity = 1

 SCF Done:  E(RB3LYP) =  -2465.20765774     A.U. after   15 cycles
 SCF Done:  E(RB3LYP) =  -2465.21853469     A.U. after   14 cycles
 SCF Done:  E(RB3LYP) =  -2465.21952601     A.U. after   16 cycles
 SCF Done:  E(RB3LYP) =  -2465.21995876     A.U. after   13 cycles
 SCF Done:  E(RB3LYP) =  -2465.22634133     A.U. after   14 cycles
 SCF Done:  E(RB3LYP) =  -2465.22758755     A.U. after   12 cycles
 SCF Done:  E(RB3LYP) =  -2465.22752410     A.U. after   13 cycles
 SCF Done:  E(RB3LYP) =  -2465.22800802     A.U. after   12 cycles
 SCF Done:  E(RB3LYP) =  -2465.22795104     A.U. after   13 cycles
 SCF Done:  E(RB3LYP) =  -2465.22824924     A.U. after   12 cycles
 SCF Done:  E(RB3LYP) =  -2465.22881203     A.U. after   10 cycles
 SCF Done:  E(RB3LYP) =  -2465.22881685     A.U. after    9 cycles
 SCF Done:  E(RB3LYP) =  -2465.22881792     A.U. after    9 cycles
 SCF Done:  E(RB3LYP) =  -2465.22881865     A.U. after    9 cycles
 SCF Done:  E(RB3LYP) =  -2465.22881889     A.U. after    7 cycles
 SCF Done:  E(RB3LYP) =  -2465.22881891     A.U. after    6 cycles
 SCF Done:  E(RB3LYP) =  -2465.22881899     A.U. after    7 cycles
 SCF Done:  E(RB3LYP) =  -2465.22881909     A.U. after    7 cycles
 SCF Done:  E(RB3LYP) =  -2465.22881912     A.U. after    7 cycles
 SCF Done:  E(RB3LYP) =  -2465.22881914     A.U. after    6 cycles
 Optimization completed.
    -- Stationary point found.

                         Standard orientation:
 ---------------------------------------------------------------------
 Center     Atomic      Atomic             Coordinates (Angstroms)
 Number     Number       Type             X           Y           Z
 ---------------------------------------------------------------------
      1          6           0       -6.845716   -0.817843    2.927270
      2          6           0       -7.654953    0.019862    2.282677
      3          6           0       -7.511927    0.481780    0.852093
      4          7           0       -6.437276   -0.153702    0.102276
      5          6           0       -6.445778   -1.452149   -0.445968
      6          6           0       -7.440905   -2.423687   -0.367075
      7          6           0       -7.205689   -3.637574   -1.015051
      8          6           0       -6.013554   -3.880788   -1.716648
      9          6           0       -5.019071   -2.908305   -1.787550
     10          6           0       -5.235941   -1.684905   -1.149021
     11          6           0       -4.465320   -0.468992   -1.011794
     12          7           0       -3.268148   -0.122467   -1.446620
     13          7           0       -2.842543    1.116265   -1.137034
     14          6           0       -3.636560    1.938345   -0.429307
     15         16           0       -3.074154    3.575163   -0.041975
     16          6           0       -1.560528    3.764914   -1.073902
     17          6           0       -0.259404    3.272394   -0.426580
     18          8           0        0.542869    4.062501    0.049622
     19          7           0       -0.111447    1.909687   -0.475257
     20          6           0        0.930791    1.121288    0.030503
     21          6           0        2.060851    1.650710    0.678258
     22          6           0        3.050564    0.792253    1.148022
     23          6           0        2.919815   -0.585989    0.972375
     24         16           0        4.171234   -1.689202    1.597547
     25          8           0        4.887453   -1.021303    2.680776
     26          8           0        3.578424   -3.018419    1.777454
     27          7           0        5.219496   -1.955879    0.270294
     28          6           0        6.247275   -1.117382   -0.151961
     29          7           0        6.139421    0.184522    0.122872
     30          6           0        7.134477    0.964924   -0.324511
     31          6           0        7.032944    2.431428   -0.002355
     32          6           0        8.201685    0.432231   -1.052038
     33          6           0        8.204658   -0.944820   -1.293836
     34          6           0        9.302901   -1.622184   -2.069490
     35          7           0        7.222064   -1.732962   -0.834930
     36          6           0        1.797530   -1.125282    0.337435
     37          6           0        0.809122   -0.272229   -0.131874
     38          7           0       -4.862394    1.664092    0.061236
     39          6           0       -5.257029    0.441214   -0.235443
     40          1           0       -5.978469   -1.267445    2.451973
     41          1           0       -7.023492   -1.081692    3.965296
     42          1           0       -8.513254    0.451728    2.797155
     43          1           0       -7.314376    1.559459    0.825407
     44          1           0       -8.452130    0.319365    0.307804
     45          1           0       -8.356432   -2.254108    0.189500
     46          1           0       -7.964226   -4.413754   -0.969044
     47          1           0       -5.866414   -4.839083   -2.205280
     48          1           0       -4.093153   -3.086525   -2.325277
     49          1           0       -1.458826    4.842897   -1.210254
     50          1           0       -1.744520    3.289895   -2.041064
     51          1           0       -0.911993    1.410166   -0.872796
     52          1           0        2.145681    2.720224    0.808928
     53          1           0        3.927767    1.185637    1.646852
     54          1           0        5.379662   -2.946258    0.113903
     55          1           0        7.051872    2.578630    1.083608
     56          1           0        7.851189    3.003222   -0.448717
     57          1           0        6.079633    2.832034   -0.363942
     58          1           0        9.002156    1.066556   -1.417246
     59          1           0        9.782071   -2.390088   -1.452058
     60          1           0        8.887265   -2.130712   -2.946605
     61          1           0       10.063652   -0.910226   -2.401349
     62          1           0        1.698384   -2.199847    0.229321
     63          1           0       -0.070927   -0.679840   -0.623314
 ---------------------------------------------------------------------

 The electronic state is 1-A.
 Alpha  occ. eigenvalues --  -89.10648 -88.90981 -19.13307 -19.13199 -19.12527
 Alpha  occ. eigenvalues --  -14.41946 -14.40112 -14.38814 -14.37385 -14.37035
 Alpha  occ. eigenvalues --  -14.36661 -14.32710 -14.32596 -10.30868 -10.29998
 Alpha  occ. eigenvalues --  -10.29997 -10.29164 -10.26229 -10.26076 -10.25494
 Alpha  occ. eigenvalues --  -10.24345 -10.24294 -10.24283 -10.23567 -10.22358
 Alpha  occ. eigenvalues --  -10.21984 -10.21910 -10.21906 -10.21763 -10.21207
 Alpha  occ. eigenvalues --  -10.21109 -10.20272 -10.20246 -10.19776 -10.19567
 Alpha  occ. eigenvalues --  -10.18994 -10.18807 -10.18627 -10.18576  -8.13092
 Alpha  occ. eigenvalues --   -7.97072  -6.09646  -6.09496  -6.09370  -5.93592
 Alpha  occ. eigenvalues --   -5.93168  -5.92572  -1.10154  -1.06502  -1.04273
 Alpha  occ. eigenvalues --   -1.02372  -0.99916  -0.99160  -0.95706  -0.94308
 Alpha  occ. eigenvalues --   -0.91066  -0.89178  -0.88210  -0.86750  -0.85692
 Alpha  occ. eigenvalues --   -0.82607  -0.80605  -0.79297  -0.78019  -0.77224
 Alpha  occ. eigenvalues --   -0.76281  -0.75302  -0.74331  -0.73860  -0.71421
 Alpha  occ. eigenvalues --   -0.70386  -0.69525  -0.68092  -0.65677  -0.64216
 Alpha  occ. eigenvalues --   -0.62998  -0.62625  -0.61985  -0.61229  -0.59095
 Alpha  occ. eigenvalues --   -0.58567  -0.56839  -0.56653  -0.55407  -0.54303
 Alpha  occ. eigenvalues --   -0.53646  -0.53173  -0.52844  -0.52162  -0.50289
 Alpha  occ. eigenvalues --   -0.50147  -0.49481  -0.48259  -0.47820  -0.47330
 Alpha  occ. eigenvalues --   -0.47217  -0.46937  -0.46451  -0.45850  -0.45548
 Alpha  occ. eigenvalues --   -0.45140  -0.44496  -0.44088  -0.43573  -0.43402
 Alpha  occ. eigenvalues --   -0.42899  -0.42638  -0.42214  -0.41928  -0.41483
 Alpha  occ. eigenvalues --   -0.41394  -0.40674  -0.40474  -0.40217  -0.39500
 Alpha  occ. eigenvalues --   -0.39336  -0.39111  -0.38973  -0.37871  -0.37712
 Alpha  occ. eigenvalues --   -0.37655  -0.37259  -0.35912  -0.35550  -0.35194
 Alpha  occ. eigenvalues --   -0.34329  -0.33867  -0.33094  -0.32360  -0.31469
 Alpha  occ. eigenvalues --   -0.31264  -0.30673  -0.30142  -0.29543  -0.29425
 Alpha  occ. eigenvalues --   -0.28762  -0.28436  -0.28109  -0.26147  -0.25830
 Alpha  occ. eigenvalues --   -0.25695  -0.24933  -0.24689  -0.23995  -0.23633
 Alpha  occ. eigenvalues --   -0.22180
 Alpha virt. eigenvalues --   -0.08827  -0.04860  -0.03403  -0.03090  -0.01075
 Alpha virt. eigenvalues --   -0.00438  -0.00248  -0.00202   0.00058   0.00835
 Alpha virt. eigenvalues --    0.03588   0.07025   0.07329   0.07723   0.08635

 Mulliken charges:
               1
     1  C   -0.322356
     2  C   -0.071086
     3  C   -0.199151
     4  N   -0.608235
     5  C    0.298443
     6  C   -0.172852
     7  C   -0.135843
     8  C   -0.141401
     9  C   -0.184257
    10  C    0.131131
    11  C    0.224597
    12  N   -0.367516
    13  N   -0.345678
    14  C    0.289310
    15  S    0.209960
    16  C   -0.545169
    17  C    0.603689
    18  O   -0.484642
    19  N   -0.734698
    20  C    0.363490
    21  C   -0.164369
    22  C   -0.133473
    23  C   -0.156118
    24  S    1.246433
    25  O   -0.515553
    26  O   -0.552774
    27  N   -0.779995
    28  C    0.659381
    29  N   -0.508289
    30  C    0.337761
    31  C   -0.516181
    32  C   -0.235503
    33  C    0.336420
    34  C   -0.511759
    35  N   -0.522839
    36  C   -0.143470
    37  C   -0.205365
    38  N   -0.520351
    39  C    0.572156
    40  H    0.154236
    41  H    0.156434
    42  H    0.144113
    43  H    0.207763
    44  H    0.172879
    45  H    0.150254
    46  H    0.144555
    47  H    0.143214
    48  H    0.161281
    49  H    0.216270
    50  H    0.213618
    51  H    0.400878
    52  H    0.190057
    53  H    0.183932
    54  H    0.371734
    55  H    0.184387
    56  H    0.154079
    57  H    0.181684
    58  H    0.132640
    59  H    0.179888
    60  H    0.177632
    61  H    0.154760
    62  H    0.174546
    63  H    0.155320
 Sum of Mulliken charges =  -0.00000

 Dipole moment (field-independent basis, Debye):
    X=             -7.7243    Y=             -0.6498    Z=             -4.5983  Tot=              9.0129
 Quadrupole moment (field-independent basis, Debye-Ang):
   XX=           -153.0395   YY=           -239.8144   ZZ=           -243.5823
   XY=             23.5300   XZ=            -26.7063   YZ=              5.1659

 Normal termination of Gaussian 16 at Fri Nov  4 22:55:57 2022.
