 Gaussian 16, Revision B.01,
 Gaussian 16:  ES64L-G16RevB.01 20-Dec-2017

 -----------------------------
 #p b3lyp/6-31g(d) opt SCF=XQC
 -----------------------------

 ------------------------------
 Gaussian input prepared by ASE
 ------------------------------
 Symbolic Z-matrix:
 Charge =  0 Multiplicity = 1

 SCF Done:  E(RB3LYP) =  -1314.10171843     A.U. after   14 cycles
 SCF Done:  E(RB3LYP) =  -1314.10725448     A.U. after   14 cycles
 SCF Done:  E(RB3LYP) =  -1314.11059421     A.U. after   13 cycles
 SCF Done:  E(RB3LYP) =  -1314.11091350     A.U. after   12 cycles
 SCF Done:  E(RB3LYP) =  -1314.11069758     A.U. after   12 cycles
 SCF Done:  E(RB3LYP) =  -1314.11188437     A.U. after   12 cycles
 SCF Done:  E(RB3LYP) =  -1314.11206122     A.U. after   11 cycles
 SCF Done:  E(RB3LYP) =  -1314.11217330     A.U. after   11 cycles
 SCF Done:  E(RB3LYP) =  -1314.11222251     A.U. after   10 cycles
 SCF Done:  E(RB3LYP) =  -1314.11226204     A.U. after   10 cycles
 SCF Done:  E(RB3LYP) =  -1314.11291213     A.U. after    9 cycles
 SCF Done:  E(RB3LYP) =  -1314.11291208     A.U. after    6 cycles
 SCF Done:  E(RB3LYP) =  -1314.11291249     A.U. after    9 cycles
 SCF Done:  E(RB3LYP) =  -1314.11291211     A.U. after    9 cycles
 SCF Done:  E(RB3LYP) =  -1314.11291209     A.U. after    6 cycles
 SCF Done:  E(RB3LYP) =  -1314.11291248     A.U. after    9 cycles
 SCF Done:  E(RB3LYP) =  -1314.11291206     A.U. after    9 cycles
 SCF Done:  E(RB3LYP) =  -1314.11291200     A.U. after    6 cycles
 SCF Done:  E(RB3LYP) =  -1314.11291247     A.U. after    9 cycles
 SCF Done:  E(RB3LYP) =  -1314.11291197     A.U. after    9 cycles
 Optimization completed.
    -- Stationary point found.

                         Standard orientation:
 ---------------------------------------------------------------------
 Center     Atomic      Atomic             Coordinates (Angstroms)
 Number     Number       Type             X           Y           Z
 ---------------------------------------------------------------------
      1          6           0        6.376335    2.434527    0.293824
      2          6           0        5.443436    1.434911   -0.399438
      3          6           0        4.611034    0.621866    0.603562
      4          6           0        3.606446   -0.393595    0.009318
      5          6           0        4.253676   -1.534884   -0.817378
      6          6           0        5.184124   -2.526341   -0.079520
      7          6           0        6.669502   -2.140568   -0.052261
      8          6           0        2.757477   -1.000231    1.162768
      9          8           0        1.617708   -0.181768    1.435654
     10          6           0        0.646690   -0.212502    0.386965
     11          6           0       -0.103565    1.130519    0.510523
     12          6           0       -0.822817    1.583516   -0.769608
     13          7           0       -1.593686    2.804430   -0.556195
     14          6           0       -2.862133    2.892546   -0.015349
     15          6           0       -3.144188    4.235106    0.048927
     16          7           0       -2.089434    4.978738   -0.431821
     17          6           0       -1.182516    4.089431   -0.779281
     18          6           0       -0.228731   -1.507801    0.526080
     19          6           0       -1.732554   -1.430160    0.295636
     20          6           0       -2.269303   -1.697502   -0.983905
     21          6           0       -1.358667   -1.980921   -2.167108
     22          6           0       -3.664656   -1.697580   -1.176670
     23          6           0       -4.238881   -2.065279   -2.532995
     24          6           0       -4.526679   -1.373808   -0.110050
     25          6           0       -6.021486   -1.259623   -0.351292
     26          6           0       -3.996158   -1.149043    1.174499
     27          6           0       -4.919441   -0.913653    2.356486
     28          6           0       -2.599826   -1.163341    1.377396
     29          6           0       -2.074466   -0.895525    2.778491
     30          8           0        1.316934   -0.311758   -0.875276
     31          6           0        2.583852    0.353744   -0.889897
     32          1           0        7.082549    1.921777    0.958580
     33          1           0        5.809854    3.149210    0.903143
     34          1           0        6.960988    3.006768   -0.435176
     35          1           0        6.040177    0.760552   -1.026646
     36          1           0        4.779652    1.980478   -1.084101
     37          1           0        4.038301    1.317940    1.234137
     38          1           0        5.290585    0.094745    1.286905
     39          1           0        3.419855   -2.098858   -1.256849
     40          1           0        4.798382   -1.103228   -1.668447
     41          1           0        5.100887   -3.502017   -0.575595
     42          1           0        4.829817   -2.691332    0.946909
     43          1           0        6.851596   -1.206593    0.488851
     44          1           0        7.057734   -2.013650   -1.070403
     45          1           0        7.265220   -2.922574    0.432839
     46          1           0        3.319850   -1.035476    2.099833
     47          1           0        2.442753   -2.023974    0.920105
     48          1           0        0.624434    1.895377    0.800129
     49          1           0       -0.825109    1.066794    1.328981
     50          1           0       -0.099742    1.778108   -1.565439
     51          1           0       -1.505642    0.813296   -1.131816
     52          1           0       -3.422796    2.007552    0.249423
     53          1           0       -4.049544    4.709091    0.404847
     54          1           0       -0.212220    4.308955   -1.207213
     55          1           0        0.208115   -2.252238   -0.142209
     56          1           0       -0.046822   -1.874188    1.537732
     57          1           0       -1.760413   -1.550029   -3.089011
     58          1           0       -0.359857   -1.564879   -2.032656
     59          1           0       -1.247236   -3.060827   -2.344735
     60          1           0       -3.607902   -2.791301   -3.051591
     61          1           0       -4.337024   -1.193178   -3.195981
     62          1           0       -5.230686   -2.514680   -2.443642
     63          1           0       -6.483458   -0.529979    0.318073
     64          1           0       -6.239744   -0.932766   -1.370791
     65          1           0       -6.544216   -2.215118   -0.199033
     66          1           0       -5.909335   -1.344737    2.194261
     67          1           0       -5.061106    0.156203    2.568565
     68          1           0       -4.522826   -1.365850    3.269589
     69          1           0       -1.006296   -0.680055    2.805659
     70          1           0       -2.247319   -1.753781    3.443388
     71          1           0       -2.581953   -0.039058    3.235305
     72          1           0        2.469209    1.395991   -0.563580
     73          1           0        2.896971    0.360702   -1.937582
 ---------------------------------------------------------------------

 The electronic state is 1-A.
 Alpha  occ. eigenvalues --  -19.16114 -19.15617 -14.37850 -14.29373 -10.29719
 Alpha  occ. eigenvalues --  -10.23717 -10.23485 -10.22715 -10.21965 -10.20149
 Alpha  occ. eigenvalues --  -10.19510 -10.18972 -10.18890 -10.18882 -10.18878
 Alpha  occ. eigenvalues --  -10.18817 -10.18798 -10.18773 -10.18707 -10.18696
 Alpha  occ. eigenvalues --  -10.18608 -10.18499 -10.18491 -10.18038 -10.18000
 Alpha  occ. eigenvalues --  -10.17983 -10.17980 -10.17953 -10.17905 -10.17822
 Alpha  occ. eigenvalues --  -10.17424  -1.07857  -1.00336  -0.99926  -0.87119
 Alpha  occ. eigenvalues --   -0.86137  -0.83816  -0.80044  -0.79229  -0.78047
 Alpha  occ. eigenvalues --   -0.77768  -0.75558  -0.73472  -0.72341  -0.72172
 Alpha  occ. eigenvalues --   -0.70809  -0.69595  -0.69352  -0.68557  -0.68106
 Alpha  occ. eigenvalues --   -0.65226  -0.64027  -0.63557  -0.61039  -0.59706
 Alpha  occ. eigenvalues --   -0.58057  -0.57667  -0.55889  -0.54971  -0.54660
 Alpha  occ. eigenvalues --   -0.53285  -0.52209  -0.51167  -0.50039  -0.49624
 Alpha  occ. eigenvalues --   -0.49058  -0.47429  -0.46261  -0.45473  -0.44643
 Alpha  occ. eigenvalues --   -0.44490  -0.43986  -0.43083  -0.42909  -0.42480
 Alpha  occ. eigenvalues --   -0.42262  -0.42003  -0.41587  -0.41520  -0.41196
 Alpha  occ. eigenvalues --   -0.41001  -0.40819  -0.40587  -0.39912  -0.39794
 Alpha  occ. eigenvalues --   -0.39616  -0.39288  -0.39023  -0.38645  -0.38339
 Alpha  occ. eigenvalues --   -0.38197  -0.37783  -0.37701  -0.37494  -0.37221
 Alpha  occ. eigenvalues --   -0.36890  -0.36542  -0.36038  -0.35529  -0.35138
 Alpha  occ. eigenvalues --   -0.34713  -0.34510  -0.33700  -0.33123  -0.32669
 Alpha  occ. eigenvalues --   -0.32203  -0.31781  -0.31577  -0.31237  -0.29404
 Alpha  occ. eigenvalues --   -0.27592  -0.25984  -0.24979  -0.24867  -0.22103
 Alpha  occ. eigenvalues --   -0.22004  -0.21109
 Alpha virt. eigenvalues --    0.00345   0.00436   0.04175   0.06864   0.07386
 Alpha virt. eigenvalues --    0.08359   0.08530   0.08784   0.08982   0.10112
 Alpha virt. eigenvalues --    0.10368   0.10492   0.11191   0.11650   0.12006

 Mulliken charges:
               1
     1  C   -0.443104
     2  C   -0.266038
     3  C   -0.287347
     4  C    0.093835
     5  C   -0.292227
     6  C   -0.263200
     7  C   -0.449046
     8  C   -0.058720
     9  O   -0.530752
    10  C    0.583500
    11  C   -0.313671
    12  C   -0.170954
    13  N   -0.367176
    14  C   -0.002367
    15  C   -0.042945
    16  N   -0.440215
    17  C    0.190704
    18  C   -0.434653
    19  C    0.060659
    20  C    0.059461
    21  C   -0.568068
    22  C    0.076235
    23  C   -0.543167
    24  C    0.075312
    25  C   -0.545308
    26  C    0.070637
    27  C   -0.542966
    28  C    0.067748
    29  C   -0.553731
    30  O   -0.526480
    31  C   -0.056610
    32  H    0.143306
    33  H    0.145995
    34  H    0.145009
    35  H    0.140321
    36  H    0.135486
    37  H    0.141928
    38  H    0.133539
    39  H    0.142511
    40  H    0.132519
    41  H    0.138268
    42  H    0.137271
    43  H    0.151786
    44  H    0.143964
    45  H    0.144452
    46  H    0.149297
    47  H    0.138004
    48  H    0.158042
    49  H    0.171699
    50  H    0.165347
    51  H    0.185337
    52  H    0.158155
    53  H    0.126693
    54  H    0.141809
    55  H    0.165367
    56  H    0.169279
    57  H    0.156257
    58  H    0.190420
    59  H    0.154894
    60  H    0.160076
    61  H    0.160005
    62  H    0.158393
    63  H    0.159916
    64  H    0.161076
    65  H    0.159177
    66  H    0.158752
    67  H    0.160298
    68  H    0.159032
    69  H    0.168733
    70  H    0.159662
    71  H    0.162223
    72  H    0.136147
    73  H    0.150208
 Sum of Mulliken charges =  -0.00000

 Dipole moment (field-independent basis, Debye):
    X=              2.1214    Y=             -4.7603    Z=             -0.1165  Tot=              5.2129
 Quadrupole moment (field-independent basis, Debye-Ang):
   XX=           -173.7281   YY=           -217.6618   ZZ=           -187.7671
   XY=             10.6873   XZ=             -3.8224   YZ=              0.8542

 Normal termination of Gaussian 16 at Fri Nov  4 22:37:03 2022.
