 Gaussian 16, Revision B.01,
 Gaussian 16:  ES64L-G16RevB.01 20-Dec-2017

 -------------------------------------------------------------------
 #p b3lyp/6-31g(d) 6D 10F nosymm GFInput td=(50-50,nstate=2) SCF=XQC
 -------------------------------------------------------------------

 ------------------------------
 Gaussian input prepared by ASE
 ------------------------------
 Symbolic Z-matrix:
 Charge =  0 Multiplicity = 1

                          Input orientation:
 ---------------------------------------------------------------------
 Center     Atomic      Atomic             Coordinates (Angstroms)
 Number     Number       Type             X           Y           Z
 ---------------------------------------------------------------------
      1          6           0        6.191652    1.819292    1.589173
      2          6           0        5.158148    1.638101    0.471504
      3          6           0        4.406100    0.303251    0.583496
      4          6           0        3.311007    0.032936   -0.475365
      5          6           0        3.829564   -0.051994   -1.934391
      6          6           0        4.796344   -1.204926   -2.293890
      7          6           0        6.289055   -0.890847   -2.123356
      8          6           0        2.565161   -1.281665   -0.108293
      9          8           0        1.488655   -1.016731    0.794129
     10          6           0        0.414092   -0.298864    0.182940
     11          6           0       -0.272481    0.443115    1.349104
     12          6           0       -1.103927    1.665711    0.930506
     13          7           0       -1.805941    2.258936    2.064383
     14          6           0       -3.007970    1.837359    2.599767
     15          6           0       -3.235262    2.649888    3.683413
     16          7           0       -2.210674    3.557360    3.836142
     17          6           0       -1.375783    3.289514    2.853640
     18          6           0       -0.486582   -1.298606   -0.625031
     19          6           0       -2.002568   -1.157617   -0.574776
     20          6           0       -2.677458   -0.395733   -1.555006
     21          6           0       -1.904179    0.363507   -2.620439
     22          6           0       -4.084418   -0.327916   -1.549306
     23          6           0       -4.807961    0.424332   -2.651651
     24          6           0       -4.820011   -0.970045   -0.533353
     25          6           0       -6.326885   -0.796533   -0.463284
     26          6           0       -4.152268   -1.763865    0.418492
     27          6           0       -4.939906   -2.554256    1.447987
     28          6           0       -2.743786   -1.848668    0.408382
     29          6           0       -2.067653   -2.702680    1.468714
     30          8           0        0.946622    0.626951   -0.771843
     31          6           0        2.227525    1.143174   -0.396363
     32          1           0        6.944547    1.021710    1.565480
     33          1           0        5.716164    1.794290    2.577216
     34          1           0        6.717376    2.776144    1.495536
     35          1           0        5.663266    1.704633   -0.500443
     36          1           0        4.446512    2.474513    0.503169
     37          1           0        3.925946    0.249694    1.571804
     38          1           0        5.133912   -0.519239    0.563455
     39          1           0        2.935822   -0.134838   -2.567494
     40          1           0        4.298115    0.903014   -2.209656
     41          1           0        4.628636   -1.472084   -3.345300
     42          1           0        4.544389   -2.107619   -1.721199
     43          1           0        6.558238   -0.679429   -1.083590
     44          1           0        6.574271   -0.017386   -2.722661
     45          1           0        6.904249   -1.734741   -2.456692
     46          1           0        3.219702   -1.981077    0.418961
     47          1           0        2.191837   -1.784496   -1.010388
     48          1           0        0.507550    0.764443    2.047075
     49          1           0       -0.907454   -0.256828    1.898146
     50          1           0       -0.460568    2.434115    0.494969
     51          1           0       -1.846733    1.398231    0.177260
     52          1           0       -3.568589    1.028203    2.154085
     53          1           0       -4.082096    2.640199    4.357052
     54          1           0       -0.447833    3.810116    2.651962
     55          1           0       -0.147075   -1.255719   -1.661624
     56          1           0       -0.214002   -2.291799   -0.264422
     57          1           0       -2.383793    1.318798   -2.853594
     58          1           0       -0.883032    0.589296   -2.312108
     59          1           0       -1.849110   -0.201387   -3.562792
     60          1           0       -4.259385    0.377003   -3.595584
     61          1           0       -4.943784    1.489126   -2.411841
     62          1           0       -5.800196    0.008119   -2.841014
     63          1           0       -6.691769   -0.851293    0.565165
     64          1           0       -6.637776    0.174746   -0.855477
     65          1           0       -6.863850   -1.564644   -1.038675
     66          1           0       -5.955578   -2.768397    1.109466
     67          1           0       -5.021820   -2.023630    2.407864
     68          1           0       -4.467038   -3.517101    1.659808
     69          1           0       -0.995572   -2.522989    1.549381
     70          1           0       -2.200539   -3.774970    1.265966
     71          1           0       -2.495334   -2.516623    2.459788
     72          1           0        2.183310    1.570997    0.614042
     73          1           0        2.430875    1.956421   -1.098513
 ---------------------------------------------------------------------

 SCF Done:  E(RB3LYP) =  -1314.11289214     A.U. after   14 cycles

 Excitation energies and oscillator strengths:

 Excited state symmetry could not be determined.
 Excited State   1:      Triplet-?Sym    3.4848 eV  355.78 nm  f=0.0000  <S**2>=2.000
     115 ->119         0.49069
     116 ->118         0.49044
 This state for optimization and/or second-order correction.
 Total Energy, E(TD-HF/TD-DFT) =  -1313.98482781
 Copying the excited state density for this state as the 1-particle RhoCI density.

 Excited state symmetry could not be determined.
 Excited State   2:      Triplet-?Sym    4.3242 eV  286.72 nm  f=0.0000  <S**2>=2.000
     117 ->120         0.66941

 Excited state symmetry could not be determined.
 Excited State   3:      Singlet-?Sym    4.9757 eV  249.18 nm  f=0.0001  <S**2>=0.000
     115 ->118        -0.49026
     116 ->119         0.49668

 Excited state symmetry could not be determined.
 Excited State   4:      Singlet-?Sym    5.3050 eV  233.71 nm  f=0.0010  <S**2>=0.000
     117 ->118         0.70132

 Alpha  occ. eigenvalues --  -19.16114 -19.15617 -14.37850 -14.29373 -10.29719
 Alpha  occ. eigenvalues --  -10.23717 -10.23486 -10.22714 -10.21965 -10.20149
 Alpha  occ. eigenvalues --  -10.19510 -10.18972 -10.18890 -10.18882 -10.18878
 Alpha  occ. eigenvalues --  -10.18817 -10.18798 -10.18772 -10.18707 -10.18696
 Alpha  occ. eigenvalues --  -10.18608 -10.18499 -10.18491 -10.18038 -10.18000
 Alpha  occ. eigenvalues --  -10.17983 -10.17980 -10.17953 -10.17905 -10.17822
 Alpha  occ. eigenvalues --  -10.17424  -1.07857  -1.00336  -0.99926  -0.87119
 Alpha  occ. eigenvalues --   -0.86137  -0.83816  -0.80044  -0.79229  -0.78047
 Alpha  occ. eigenvalues --   -0.77768  -0.75558  -0.73472  -0.72341  -0.72172
 Alpha  occ. eigenvalues --   -0.70809  -0.69595  -0.69352  -0.68557  -0.68106
 Alpha  occ. eigenvalues --   -0.65226  -0.64027  -0.63557  -0.61039  -0.59706
 Alpha  occ. eigenvalues --   -0.58057  -0.57668  -0.55889  -0.54971  -0.54660
 Alpha  occ. eigenvalues --   -0.53285  -0.52209  -0.51167  -0.50039  -0.49624
 Alpha  occ. eigenvalues --   -0.49058  -0.47429  -0.46261  -0.45473  -0.44643
 Alpha  occ. eigenvalues --   -0.44490  -0.43986  -0.43083  -0.42909  -0.42480
 Alpha  occ. eigenvalues --   -0.42262  -0.42003  -0.41587  -0.41520  -0.41196
 Alpha  occ. eigenvalues --   -0.41001  -0.40819  -0.40587  -0.39912  -0.39794
 Alpha  occ. eigenvalues --   -0.39616  -0.39288  -0.39023  -0.38645  -0.38339
 Alpha  occ. eigenvalues --   -0.38197  -0.37783  -0.37701  -0.37494  -0.37221
 Alpha  occ. eigenvalues --   -0.36890  -0.36542  -0.36038  -0.35529  -0.35138
 Alpha  occ. eigenvalues --   -0.34713  -0.34510  -0.33700  -0.33123  -0.32669
 Alpha  occ. eigenvalues --   -0.32203  -0.31781  -0.31577  -0.31236  -0.29404
 Alpha  occ. eigenvalues --   -0.27593  -0.25984  -0.24979  -0.24867  -0.22103
 Alpha  occ. eigenvalues --   -0.22004  -0.21109
 Alpha virt. eigenvalues --    0.00345   0.00436   0.04175   0.06864   0.07386
 Alpha virt. eigenvalues --    0.08359   0.08530   0.08784   0.08982   0.10112
 Alpha virt. eigenvalues --    0.10368   0.10492   0.11191   0.11650   0.12006

 Mulliken charges:
               1
     1  C   -0.443094
     2  C   -0.266028
     3  C   -0.287299
     4  C    0.093798
     5  C   -0.292214
     6  C   -0.263214
     7  C   -0.449039
     8  C   -0.058744
     9  O   -0.530745
    10  C    0.583479
    11  C   -0.313629
    12  C   -0.170955
    13  N   -0.367197
    14  C   -0.002363
    15  C   -0.042942
    16  N   -0.440224
    17  C    0.190719
    18  C   -0.434673
    19  C    0.060677
    20  C    0.059450
    21  C   -0.568071
    22  C    0.076228
    23  C   -0.543166
    24  C    0.075325
    25  C   -0.545311
    26  C    0.070629
    27  C   -0.542967
    28  C    0.067769
    29  C   -0.553737
    30  O   -0.526473
    31  C   -0.056610
    32  H    0.143302
    33  H    0.145992
    34  H    0.145006
    35  H    0.140313
    36  H    0.135481
    37  H    0.141923
    38  H    0.133531
    39  H    0.142513
    40  H    0.132520
    41  H    0.138268
    42  H    0.137272
    43  H    0.151788
    44  H    0.143963
    45  H    0.144451
    46  H    0.149300
    47  H    0.138011
    48  H    0.158034
    49  H    0.171694
    50  H    0.165345
    51  H    0.185338
    52  H    0.158155
    53  H    0.126693
    54  H    0.141813
    55  H    0.165370
    56  H    0.169276
    57  H    0.156256
    58  H    0.190424
    59  H    0.154893
    60  H    0.160075
    61  H    0.160004
    62  H    0.158392
    63  H    0.159917
    64  H    0.161077
    65  H    0.159177
    66  H    0.158751
    67  H    0.160298
    68  H    0.159032
    69  H    0.168736
    70  H    0.159660
    71  H    0.162224
    72  H    0.136146
    73  H    0.150209
 Sum of Mulliken charges =  -0.00000

 Dipole moment (field-independent basis, Debye):
    X=              1.9320    Y=             -2.9027    Z=             -3.8751  Tot=              5.2129
 Quadrupole moment (field-independent basis, Debye-Ang):
   XX=           -174.9843   YY=           -200.7756   ZZ=           -206.1578
   XY=             10.8875   XZ=              4.8872   YZ=            -16.3988

 Normal termination of Gaussian 16 at Sat Nov  5 12:26:31 2022.
