 Gaussian 16, Revision B.01,
 Gaussian 16:  ES64L-G16RevB.01 20-Dec-2017

 -----------------------------
 #p b3lyp/6-31g(d) opt SCF=XQC
 -----------------------------

 ------------------------------
 Gaussian input prepared by ASE
 ------------------------------
 Symbolic Z-matrix:
 Charge =  0 Multiplicity = 1

 SCF Done:  E(RB3LYP) =  -1662.59966239     A.U. after   15 cycles
 SCF Done:  E(RB3LYP) =  -1662.61128745     A.U. after   14 cycles
 SCF Done:  E(RB3LYP) =  -1662.61282788     A.U. after   12 cycles
 SCF Done:  E(RB3LYP) =  -1662.61337072     A.U. after   12 cycles
 SCF Done:  E(RB3LYP) =  -1662.61382120     A.U. after   12 cycles
 SCF Done:  E(RB3LYP) =  -1662.61428825     A.U. after   12 cycles
 SCF Done:  E(RB3LYP) =  -1662.61471407     A.U. after   12 cycles
 SCF Done:  E(RB3LYP) =  -1662.61515262     A.U. after   12 cycles
 SCF Done:  E(RB3LYP) =  -1662.61545015     A.U. after   14 cycles
 SCF Done:  E(RB3LYP) =  -1662.61560286     A.U. after   10 cycles
 SCF Done:  E(RB3LYP) =  -1662.61576938     A.U. after   10 cycles
 SCF Done:  E(RB3LYP) =  -1662.61577084     A.U. after   10 cycles
 SCF Done:  E(RB3LYP) =  -1662.61577219     A.U. after   10 cycles
 SCF Done:  E(RB3LYP) =  -1662.61577309     A.U. after    9 cycles
 SCF Done:  E(RB3LYP) =  -1662.61577355     A.U. after    8 cycles
 SCF Done:  E(RB3LYP) =  -1662.61577374     A.U. after    9 cycles
 SCF Done:  E(RB3LYP) =  -1662.61577383     A.U. after    7 cycles
 SCF Done:  E(RB3LYP) =  -1662.61577390     A.U. after    7 cycles
 SCF Done:  E(RB3LYP) =  -1662.61577392     A.U. after    7 cycles
 SCF Done:  E(RB3LYP) =  -1662.61577392     A.U. after    7 cycles
 Optimization completed.
    -- Stationary point found.

                         Standard orientation:
 ---------------------------------------------------------------------
 Center     Atomic      Atomic             Coordinates (Angstroms)
 Number     Number       Type             X           Y           Z
 ---------------------------------------------------------------------
      1          6           0        6.882496   -4.041532    1.582072
      2          8           0        5.869583   -4.125352    0.594955
      3          6           0        5.123099   -3.010554    0.331246
      4          6           0        5.316683   -1.777352    0.960585
      5          6           0        4.473539   -0.711846    0.615958
      6          8           0        4.566032    0.537639    1.162840
      7          6           0        5.538121    0.769630    2.168685
      8          6           0        3.465056   -0.858149   -0.345839
      9          7           0        2.639641    0.246814   -0.665983
     10          6           0        1.280366    0.249689   -0.488123
     11          8           0        0.627438   -0.714328   -0.130574
     12          6           0        0.566094    1.580209   -0.882796
     13          6           0        1.462699    2.800485   -1.065578
     14          6           0        2.010107    3.484971    0.031749
     15          6           0        2.844459    4.585633   -0.166985
     16          6           0        3.147680    5.019855   -1.459223
     17          6           0        2.610590    4.344751   -2.555972
     18          6           0        1.775708    3.243994   -2.358044
     19          6           0       -0.577559    1.814923    0.063282
     20          7           0       -0.444854    2.049726    1.393406
     21          7           0       -1.657650    2.212053    1.866340
     22          7           0       -2.475469    2.080786    0.826867
     23          6           0       -3.937121    2.116045    0.957354
     24          6           0       -4.538261    0.736029    0.917289
     25          6           0       -5.206563    0.118916    1.902891
     26          6           0       -5.469607    0.715458    3.265754
     27          6           0       -5.753900   -1.292894    1.761250
     28          6           0       -5.810071   -1.927218    0.356421
     29          6           0       -6.846972   -1.303986   -0.542616
     30          6           0       -7.843608   -1.908567   -1.208524
     31          6           0       -8.122902   -3.392156   -1.200753
     32          6           0       -8.796501   -1.104014   -2.062048
     33          7           0       -1.852350    1.829347   -0.321731
     34          6           0        3.322368   -2.099220   -0.997879
     35          8           0        2.382569   -2.148343   -1.975064
     36          6           0        2.066157   -3.407741   -2.545074
     37          6           0        4.134220   -3.178164   -0.643756
     38          1           0        7.334022   -5.034240    1.632930
     39          1           0        7.653886   -3.308045    1.310568
     40          1           0        6.468875   -3.781657    2.565723
     41          1           0        6.088030   -1.647141    1.705530
     42          1           0        5.415829    1.812850    2.465392
     43          1           0        5.375516    0.123561    3.040950
     44          1           0        6.557332    0.617718    1.789194
     45          1           0        3.095294    1.147243   -0.737068
     46          1           0        0.105727    1.353250   -1.851577
     47          1           0        1.764844    3.158729    1.037771
     48          1           0        3.255489    5.108102    0.693008
     49          1           0        3.796150    5.878895   -1.609834
     50          1           0        2.837264    4.674913   -3.566355
     51          1           0        1.359375    2.722513   -3.216956
     52          1           0       -4.301338    2.725652    0.123927
     53          1           0       -4.135472    2.646942    1.887521
     54          1           0       -4.382813    0.222779   -0.027745
     55          1           0       -4.944253    1.655280    3.447390
     56          1           0       -6.544324    0.893276    3.407792
     57          1           0       -5.163897    0.011394    4.050545
     58          1           0       -5.147973   -1.939107    2.415755
     59          1           0       -6.764918   -1.314209    2.194152
     60          1           0       -6.002793   -2.996931    0.484277
     61          1           0       -4.815853   -1.861873   -0.109378
     62          1           0       -6.767562   -0.221750   -0.647036
     63          1           0       -8.046610   -3.804731   -2.216620
     64          1           0       -9.149810   -3.591221   -0.863566
     65          1           0       -7.444154   -3.960703   -0.561014
     66          1           0       -9.834859   -1.229315   -1.723168
     67          1           0       -8.560110   -0.035431   -2.042721
     68          1           0       -8.770581   -1.438639   -3.108923
     69          1           0        2.918702   -3.830726   -3.093348
     70          1           0        1.247160   -3.220153   -3.241619
     71          1           0        1.736820   -4.120482   -1.779014
     72          1           0        4.038544   -4.147929   -1.113981
 ---------------------------------------------------------------------

 The electronic state is 1-A.
 Alpha  occ. eigenvalues --  -19.17905 -19.17460 -19.16804 -19.09551 -14.44599
 Alpha  occ. eigenvalues --  -14.39233 -14.36338 -14.34905 -14.34743 -10.27405
 Alpha  occ. eigenvalues --  -10.24685 -10.24525 -10.24342 -10.24188 -10.24096
 Alpha  occ. eigenvalues --  -10.23993 -10.23858 -10.23077 -10.20699 -10.20662
 Alpha  occ. eigenvalues --  -10.20241 -10.19834 -10.18923 -10.18875 -10.18841
 Alpha  occ. eigenvalues --  -10.18778 -10.18770 -10.18580 -10.18439 -10.18436
 Alpha  occ. eigenvalues --  -10.18349 -10.18203 -10.17827 -10.17620 -10.17451
 Alpha  occ. eigenvalues --  -10.17054 -10.17023  -1.13188  -1.06566  -1.06036
 Alpha  occ. eigenvalues --   -1.05707  -1.01606  -0.93682  -0.91503  -0.88764
 Alpha  occ. eigenvalues --   -0.85365  -0.83595  -0.82567  -0.80315  -0.78696
 Alpha  occ. eigenvalues --   -0.76197  -0.75593  -0.74819  -0.74152  -0.73737
 Alpha  occ. eigenvalues --   -0.71616  -0.70982  -0.69457  -0.68641  -0.68077
 Alpha  occ. eigenvalues --   -0.67736  -0.67075  -0.62864  -0.61798  -0.60646
 Alpha  occ. eigenvalues --   -0.60266  -0.59688  -0.59117  -0.58343  -0.56128
 Alpha  occ. eigenvalues --   -0.54499  -0.52997  -0.52551  -0.51882  -0.51208
 Alpha  occ. eigenvalues --   -0.50697  -0.50180  -0.49230  -0.48767  -0.48626
 Alpha  occ. eigenvalues --   -0.47105  -0.46784  -0.46557  -0.46453  -0.46067
 Alpha  occ. eigenvalues --   -0.45897  -0.45707  -0.45214  -0.44592  -0.43866
 Alpha  occ. eigenvalues --   -0.43335  -0.42793  -0.42469  -0.42442  -0.42031
 Alpha  occ. eigenvalues --   -0.41849  -0.41497  -0.40730  -0.40154  -0.39790
 Alpha  occ. eigenvalues --   -0.39097  -0.38919  -0.38886  -0.38239  -0.37963
 Alpha  occ. eigenvalues --   -0.37853  -0.37470  -0.36747  -0.36429  -0.35993
 Alpha  occ. eigenvalues --   -0.35377  -0.35198  -0.34598  -0.34407  -0.34300
 Alpha  occ. eigenvalues --   -0.34071  -0.33708  -0.33399  -0.33044  -0.32606
 Alpha  occ. eigenvalues --   -0.32279  -0.31639  -0.30074  -0.29905  -0.27632
 Alpha  occ. eigenvalues --   -0.27254  -0.26981  -0.25880  -0.25352  -0.24697
 Alpha  occ. eigenvalues --   -0.24464  -0.22679  -0.22547  -0.21215  -0.19226
 Alpha virt. eigenvalues --   -0.01222  -0.00541   0.00180   0.01510   0.01924
 Alpha virt. eigenvalues --    0.02691   0.03356   0.04661   0.05244   0.08696
 Alpha virt. eigenvalues --    0.09408   0.09671   0.09770   0.10078   0.10998

 Mulliken charges:
               1
     1  C   -0.211254
     2  O   -0.513463
     3  C    0.393247
     4  C   -0.295381
     5  C    0.362250
     6  O   -0.521358
     7  C   -0.211885
     8  C    0.209777
     9  N   -0.713217
    10  C    0.648329
    11  O   -0.505182
    12  C   -0.356832
    13  C    0.101012
    14  C   -0.169031
    15  C   -0.133533
    16  C   -0.127378
    17  C   -0.129525
    18  C   -0.173904
    19  C    0.534384
    20  N   -0.362035
    21  N   -0.050978
    22  N   -0.052887
    23  C   -0.201492
    24  C   -0.165683
    25  C    0.188247
    26  C   -0.521895
    27  C   -0.320562
    28  C   -0.324225
    29  C   -0.154656
    30  C    0.183550
    31  C   -0.512929
    32  C   -0.504762
    33  N   -0.340926
    34  C    0.388446
    35  O   -0.506412
    36  C   -0.210913
    37  C   -0.276443
    38  H    0.169032
    39  H    0.148537
    40  H    0.151590
    41  H    0.130332
    42  H    0.171932
    43  H    0.156258
    44  H    0.150118
    45  H    0.350181
    46  H    0.191825
    47  H    0.176110
    48  H    0.131115
    49  H    0.129233
    50  H    0.130893
    51  H    0.133218
    52  H    0.183138
    53  H    0.185151
    54  H    0.152271
    55  H    0.161370
    56  H    0.160043
    57  H    0.164101
    58  H    0.154215
    59  H    0.145624
    60  H    0.139510
    61  H    0.159956
    62  H    0.115312
    63  H    0.153218
    64  H    0.150084
    65  H    0.154200
    66  H    0.147245
    67  H    0.150225
    68  H    0.148898
    69  H    0.146758
    70  H    0.169458
    71  H    0.160652
    72  H    0.137692
 Sum of Mulliken charges =  -0.00000

 Dipole moment (field-independent basis, Debye):
    X=              1.3365    Y=             -0.0593    Z=              0.1304  Tot=              1.3441
 Quadrupole moment (field-independent basis, Debye-Ang):
   XX=           -164.4642   YY=           -202.9649   ZZ=           -205.5312
   XY=              1.9709   XZ=              8.3795   YZ=             -1.6356

 Normal termination of Gaussian 16 at Fri Nov  4 21:53:18 2022.
