 Gaussian 16, Revision B.01,
 Gaussian 16:  ES64L-G16RevB.01 20-Dec-2017

 -------------------------------------------------------------------
 #p b3lyp/6-31g(d) 6D 10F nosymm GFInput td=(50-50,nstate=2) SCF=XQC
 -------------------------------------------------------------------

 ------------------------------
 Gaussian input prepared by ASE
 ------------------------------
 Symbolic Z-matrix:
 Charge =  0 Multiplicity = 1

                          Input orientation:
 ---------------------------------------------------------------------
 Center     Atomic      Atomic             Coordinates (Angstroms)
 Number     Number       Type             X           Y           Z
 ---------------------------------------------------------------------
      1          6           0       -7.738606    3.041260    1.693927
      2          8           0       -6.689637    3.350290    0.793048
      3          6           0       -5.847136    2.345752    0.404908
      4          6           0       -5.973917    1.018062    0.823828
      5          6           0       -5.035153    0.081584    0.369191
      6          8           0       -5.056090   -1.242084    0.710236
      7          6           0       -6.053780   -1.697191    1.609123
      8          6           0       -3.996651    0.447842   -0.497333
      9          7           0       -3.073637   -0.532603   -0.934959
     10          6           0       -1.728207   -0.469368   -0.679833
     11          8           0       -1.169834    0.468806   -0.139895
     12          6           0       -0.894817   -1.667883   -1.232334
     13          6           0       -1.684226   -2.903018   -1.653833
     14          6           0       -2.228173   -3.788855   -0.709524
     15          6           0       -2.964124   -4.899334   -1.124621
     16          6           0       -3.171118   -5.143484   -2.484002
     17          6           0       -2.636746   -4.267695   -3.429796
     18          6           0       -1.900236   -3.156958   -3.015449
     19          6           0        0.217500   -1.969553   -0.268051
     20          7           0        0.040565   -2.420577    0.999721
     21          7           0        1.238532   -2.571258    1.512615
     22          7           0        2.092011   -2.220730    0.555918
     23          6           0        3.544154   -2.174796    0.765362
     24          6           0        4.037471   -0.767530    0.974310
     25          6           0        4.608350   -0.269394    2.081028
     26          6           0        4.852079   -1.054465    3.348589
     27          6           0        5.050431    1.181537    2.191532
     28          6           0        5.123646    2.032592    0.907237
     29          6           0        6.247267    1.632927   -0.014496
     30          6           0        7.224344    2.402908   -0.519159
     31          6           0        7.386836    3.882307   -0.266024
     32          6           0        8.276238    1.811623   -1.428947
     33          7           0        1.506364   -1.834447   -0.574825
     34          6           0       -3.920091    1.783349   -0.940429
     35          8           0       -2.941707    2.051563   -1.841180
     36          6           0       -2.697454    3.404178   -2.190301
     37          6           0       -4.829186    2.733727   -0.472507
     38          1           0       -8.267800    3.979684    1.870691
     39          1           0       -8.436939    2.308315    1.267449
     40          1           0       -7.353117    2.658257    2.648335
     41          1           0       -6.767243    0.718419    1.492949
     42          1           0       -5.864995   -2.763207    1.747935
     43          1           0       -5.983378   -1.187646    2.578711
     44          1           0       -7.062584   -1.558141    1.198194
     45          1           0       -3.454068   -1.439818   -1.170924
     46          1           0       -0.408092   -1.259072   -2.125619
     47          1           0       -2.056944   -3.609770    0.347489
     48          1           0       -3.373601   -5.578569   -0.381334
     49          1           0       -3.743014   -6.010709   -2.803380
     50          1           0       -2.788952   -4.448661   -4.490620
     51          1           0       -1.485452   -2.478499   -3.757510
     52          1           0        3.993715   -2.618055   -0.129228
     53          1           0        3.738859   -2.831200    1.612492
     54          1           0        3.887567   -0.123180    0.112323
     55          1           0        4.393322   -2.045317    3.351682
     56          1           0        5.929422   -1.177595    3.524602
     57          1           0        4.455746   -0.506415    4.213241
     58          1           0        4.365795    1.672421    2.901055
     59          1           0        6.035085    1.204086    2.681391
     60          1           0        5.226394    3.079332    1.209816
     61          1           0        4.160701    1.973048    0.379126
     62          1           0        6.257223    0.577998   -0.289213
     63          1           0        7.326939    4.444196   -1.208743
     64          1           0        8.378039    4.096185    0.157810
     65          1           0        6.636417    4.293983    0.412654
     66          1           0        9.284495    1.953371   -1.014154
     67          1           0        8.122940    0.739671   -1.588768
     68          1           0        8.274028    2.305134   -2.411309
     69          1           0       -3.553349    3.848493   -2.716022
     70          1           0       -1.834277    3.386444   -2.857931
     71          1           0       -2.461162    4.007759   -1.305334
     72          1           0       -4.786977    3.769970   -0.780937
 ---------------------------------------------------------------------

 SCF Done:  E(RB3LYP) =  -1662.61577306     A.U. after   15 cycles

 Excitation energies and oscillator strengths:

 Excited state symmetry could not be determined.
 Excited State   1:      Triplet-?Sym    3.5749 eV  346.82 nm  f=0.0000  <S**2>=2.000
     134 ->141        -0.27595
     135 ->137        -0.19627
     135 ->139         0.57312
     135 ->144         0.12077
 This state for optimization and/or second-order correction.
 Total Energy, E(TD-HF/TD-DFT) =  -1662.48439880
 Copying the excited state density for this state as the 1-particle RhoCI density.

 Excited state symmetry could not be determined.
 Excited State   2:      Triplet-?Sym    3.7100 eV  334.19 nm  f=0.0000  <S**2>=2.000
     126 ->137        -0.10081
     128 ->137        -0.14455
     129 ->137         0.27342
     129 ->138        -0.17130
     130 ->136        -0.13701
     130 ->137         0.10603
     130 ->138         0.34821
     131 ->138        -0.12032
     133 ->137        -0.37694

 Excited state symmetry could not be determined.
 Excited State   3:      Singlet-?Sym    4.4459 eV  278.87 nm  f=0.0030  <S**2>=0.000
     135 ->136         0.70177

 Excited state symmetry could not be determined.
 Excited State   4:      Singlet-?Sym    4.5387 eV  273.17 nm  f=0.0486  <S**2>=0.000
     135 ->137         0.70367

 Alpha  occ. eigenvalues --  -19.17905 -19.17460 -19.16804 -19.09551 -14.44599
 Alpha  occ. eigenvalues --  -14.39233 -14.36338 -14.34905 -14.34743 -10.27405
 Alpha  occ. eigenvalues --  -10.24685 -10.24525 -10.24342 -10.24188 -10.24096
 Alpha  occ. eigenvalues --  -10.23993 -10.23858 -10.23077 -10.20699 -10.20662
 Alpha  occ. eigenvalues --  -10.20241 -10.19834 -10.18923 -10.18875 -10.18841
 Alpha  occ. eigenvalues --  -10.18778 -10.18770 -10.18580 -10.18439 -10.18436
 Alpha  occ. eigenvalues --  -10.18349 -10.18203 -10.17827 -10.17620 -10.17451
 Alpha  occ. eigenvalues --  -10.17054 -10.17023  -1.13188  -1.06566  -1.06036
 Alpha  occ. eigenvalues --   -1.05707  -1.01606  -0.93682  -0.91503  -0.88764
 Alpha  occ. eigenvalues --   -0.85365  -0.83595  -0.82567  -0.80315  -0.78696
 Alpha  occ. eigenvalues --   -0.76197  -0.75593  -0.74819  -0.74152  -0.73737
 Alpha  occ. eigenvalues --   -0.71616  -0.70982  -0.69457  -0.68641  -0.68077
 Alpha  occ. eigenvalues --   -0.67736  -0.67076  -0.62864  -0.61798  -0.60646
 Alpha  occ. eigenvalues --   -0.60266  -0.59688  -0.59117  -0.58343  -0.56128
 Alpha  occ. eigenvalues --   -0.54499  -0.52997  -0.52551  -0.51882  -0.51208
 Alpha  occ. eigenvalues --   -0.50697  -0.50180  -0.49230  -0.48767  -0.48626
 Alpha  occ. eigenvalues --   -0.47105  -0.46784  -0.46557  -0.46453  -0.46067
 Alpha  occ. eigenvalues --   -0.45897  -0.45707  -0.45214  -0.44592  -0.43866
 Alpha  occ. eigenvalues --   -0.43335  -0.42793  -0.42469  -0.42442  -0.42031
 Alpha  occ. eigenvalues --   -0.41849  -0.41496  -0.40730  -0.40154  -0.39790
 Alpha  occ. eigenvalues --   -0.39097  -0.38919  -0.38886  -0.38239  -0.37963
 Alpha  occ. eigenvalues --   -0.37853  -0.37470  -0.36747  -0.36429  -0.35993
 Alpha  occ. eigenvalues --   -0.35377  -0.35198  -0.34598  -0.34407  -0.34300
 Alpha  occ. eigenvalues --   -0.34071  -0.33708  -0.33399  -0.33044  -0.32606
 Alpha  occ. eigenvalues --   -0.32279  -0.31639  -0.30074  -0.29905  -0.27632
 Alpha  occ. eigenvalues --   -0.27254  -0.26981  -0.25880  -0.25352  -0.24697
 Alpha  occ. eigenvalues --   -0.24464  -0.22679  -0.22547  -0.21215  -0.19226
 Alpha virt. eigenvalues --   -0.01222  -0.00540   0.00180   0.01510   0.01924
 Alpha virt. eigenvalues --    0.02691   0.03356   0.04661   0.05244   0.08696
 Alpha virt. eigenvalues --    0.09408   0.09671   0.09770   0.10078   0.10998

 Mulliken charges:
               1
     1  C   -0.211254
     2  O   -0.513463
     3  C    0.393250
     4  C   -0.295383
     5  C    0.362251
     6  O   -0.521364
     7  C   -0.211884
     8  C    0.209792
     9  N   -0.713203
    10  C    0.648316
    11  O   -0.505182
    12  C   -0.356804
    13  C    0.100992
    14  C   -0.169008
    15  C   -0.133537
    16  C   -0.127371
    17  C   -0.129538
    18  C   -0.173893
    19  C    0.534354
    20  N   -0.362019
    21  N   -0.050981
    22  N   -0.052886
    23  C   -0.201480
    24  C   -0.165695
    25  C    0.188254
    26  C   -0.521896
    27  C   -0.320560
    28  C   -0.324229
    29  C   -0.154651
    30  C    0.183548
    31  C   -0.512928
    32  C   -0.504762
    33  N   -0.340937
    34  C    0.388433
    35  O   -0.506409
    36  C   -0.210911
    37  C   -0.276443
    38  H    0.169032
    39  H    0.148537
    40  H    0.151589
    41  H    0.130332
    42  H    0.171929
    43  H    0.156259
    44  H    0.150119
    45  H    0.350180
    46  H    0.191825
    47  H    0.176099
    48  H    0.131115
    49  H    0.129233
    50  H    0.130893
    51  H    0.133219
    52  H    0.183137
    53  H    0.185150
    54  H    0.152270
    55  H    0.161372
    56  H    0.160044
    57  H    0.164101
    58  H    0.154215
    59  H    0.145623
    60  H    0.139512
    61  H    0.159957
    62  H    0.115310
    63  H    0.153217
    64  H    0.150084
    65  H    0.154200
    66  H    0.147245
    67  H    0.150225
    68  H    0.148898
    69  H    0.146757
    70  H    0.169458
    71  H    0.160651
    72  H    0.137692
 Sum of Mulliken charges =  -0.00000

 Dipole moment (field-independent basis, Debye):
    X=             -1.3417    Y=             -0.0548    Z=              0.0591  Tot=              1.3441
 Quadrupole moment (field-independent basis, Debye-Ang):
   XX=           -162.9606   YY=           -202.8783   ZZ=           -205.7780
   XY=              6.1646   XZ=             -5.5851   YZ=              1.7397

 Normal termination of Gaussian 16 at Sat Nov  5 12:29:33 2022.
