 Gaussian 16, Revision B.01,
 Gaussian 16:  ES64L-G16RevB.01 20-Dec-2017

 -----------------------------
 #p b3lyp/6-31g(d) opt SCF=XQC
 -----------------------------

 ------------------------------
 Gaussian input prepared by ASE
 ------------------------------
 Symbolic Z-matrix:
 Charge =  0 Multiplicity = 1

 SCF Done:  E(RB3LYP) =  -1168.36131829     A.U. after   15 cycles
 SCF Done:  E(RB3LYP) =  -1168.36674328     A.U. after   12 cycles
 SCF Done:  E(RB3LYP) =  -1168.36706143     A.U. after   12 cycles
 SCF Done:  E(RB3LYP) =  -1168.36716595     A.U. after   13 cycles
 SCF Done:  E(RB3LYP) =  -1168.36734216     A.U. after   11 cycles
 SCF Done:  E(RB3LYP) =  -1168.36741207     A.U. after   11 cycles
 SCF Done:  E(RB3LYP) =  -1168.36748552     A.U. after   12 cycles
 SCF Done:  E(RB3LYP) =  -1168.36753949     A.U. after   11 cycles
 SCF Done:  E(RB3LYP) =  -1168.36758416     A.U. after   11 cycles
 SCF Done:  E(RB3LYP) =  -1168.36758974     A.U. after   10 cycles
 SCF Done:  E(RB3LYP) =  -1168.36759213     A.U. after    9 cycles
 SCF Done:  E(RB3LYP) =  -1168.36759232     A.U. after   10 cycles
 SCF Done:  E(RB3LYP) =  -1168.36759491     A.U. after   10 cycles
 SCF Done:  E(RB3LYP) =  -1168.36759508     A.U. after    7 cycles
 SCF Done:  E(RB3LYP) =  -1168.36759511     A.U. after    7 cycles
 Optimization completed.
    -- Stationary point found.

                         Standard orientation:
 ---------------------------------------------------------------------
 Center     Atomic      Atomic             Coordinates (Angstroms)
 Number     Number       Type             X           Y           Z
 ---------------------------------------------------------------------
      1          8           0       -7.698625    0.002130   -1.944477
      2          6           0       -7.361989    0.103609   -0.781132
      3          8           0       -8.258494    0.384962    0.202063
      4          6           0       -5.975142   -0.056795   -0.276517
      5          6           0       -5.650732    0.070753    1.080607
      6          6           0       -4.332092   -0.092737    1.497707
      7          6           0       -3.313812   -0.387148    0.580267
      8          6           0       -1.876091   -0.523651    1.025190
      9          6           0       -1.078554    0.781632    0.801402
     10          7           0        0.327011    0.663271    1.163801
     11          6           0        1.233329    0.075444    0.319932
     12          8           0        0.921406   -0.341488   -0.785793
     13          6           0        2.675889    0.043006    0.858196
     14          6           0        3.507851    1.204786    0.319759
     15          6           0        3.271704    2.570590    0.411226
     16          6           0        4.195075    3.456054   -0.157117
     17          6           0        5.335503    2.972106   -0.806049
     18          6           0        5.573084    1.598793   -0.901437
     19          6           0        4.652882    0.713358   -0.338037
     20          6           0        4.634399   -0.754228   -0.282520
     21          6           0        5.536173   -1.699702   -0.773996
     22          6           0        5.265163   -3.055281   -0.576837
     23          6           0        4.110542   -3.461318    0.100861
     24          6           0        3.207223   -2.514571    0.596176
     25          6           0        3.475103   -1.165408    0.403086
     26          6           0       -3.651188   -0.513058   -0.776914
     27          6           0       -4.964543   -0.350411   -1.202706
     28          1           0       -9.119697    0.466020   -0.247663
     29          1           0       -6.430039    0.293224    1.801167
     30          1           0       -4.089247    0.002280    2.553753
     31          1           0       -1.377195   -1.316607    0.458139
     32          1           0       -1.831550   -0.796489    2.086839
     33          1           0       -1.123748    1.056596   -0.255474
     34          1           0       -1.516117    1.600570    1.381912
     35          1           0        0.604936    0.875896    2.111135
     36          1           0        2.647437    0.083731    1.957919
     37          1           0        2.381398    2.950426    0.906461
     38          1           0        4.022461    4.527030   -0.095269
     39          1           0        6.043392    3.671555   -1.242668
     40          1           0        6.460080    1.230021   -1.409999
     41          1           0        6.433494   -1.391088   -1.304095
     42          1           0        5.957144   -3.802682   -0.955765
     43          1           0        3.912033   -4.520287    0.241523
     44          1           0        2.307131   -2.836101    1.114268
     45          1           0       -2.873211   -0.745883   -1.500178
     46          1           0       -5.230745   -0.450881   -2.249836
 ---------------------------------------------------------------------

 The electronic state is 1-A.
 Alpha  occ. eigenvalues --  -19.19435 -19.13486 -19.11481 -14.36887 -10.31926
 Alpha  occ. eigenvalues --  -10.29179 -10.23166 -10.21372 -10.21015 -10.20588
 Alpha  occ. eigenvalues --  -10.20249 -10.19923 -10.19914 -10.19865 -10.19773
 Alpha  occ. eigenvalues --  -10.19569 -10.19525 -10.19501 -10.19365 -10.19333
 Alpha  occ. eigenvalues --  -10.19207 -10.19172 -10.19131 -10.19070 -10.19018
 Alpha  occ. eigenvalues --  -10.18967 -10.18916  -1.10189  -1.03560  -1.00979
 Alpha  occ. eigenvalues --   -0.92765  -0.88808  -0.86815  -0.84340  -0.80611
 Alpha  occ. eigenvalues --   -0.79721  -0.76910  -0.75395  -0.74453  -0.74263
 Alpha  occ. eigenvalues --   -0.71401  -0.70440  -0.66875  -0.63622  -0.62911
 Alpha  occ. eigenvalues --   -0.61606  -0.59609  -0.58556  -0.58151  -0.57897
 Alpha  occ. eigenvalues --   -0.57556  -0.52775  -0.52648  -0.50665  -0.49390
 Alpha  occ. eigenvalues --   -0.48794  -0.48492  -0.47454  -0.46762  -0.46067
 Alpha  occ. eigenvalues --   -0.45162  -0.44710  -0.44460  -0.44276  -0.43452
 Alpha  occ. eigenvalues --   -0.43076  -0.42593  -0.42149  -0.42062  -0.40978
 Alpha  occ. eigenvalues --   -0.40662  -0.40231  -0.39236  -0.38180  -0.37257
 Alpha  occ. eigenvalues --   -0.36403  -0.36159  -0.35731  -0.35456  -0.35169
 Alpha  occ. eigenvalues --   -0.34932  -0.34318  -0.33332  -0.32972  -0.31636
 Alpha  occ. eigenvalues --   -0.28236  -0.27496  -0.26801  -0.26067  -0.25960
 Alpha  occ. eigenvalues --   -0.24872  -0.24771  -0.24013  -0.21526
 Alpha virt. eigenvalues --   -0.04710  -0.03101  -0.01556  -0.00886   0.00606
 Alpha virt. eigenvalues --    0.02379   0.04184   0.05643   0.06419   0.07623
 Alpha virt. eigenvalues --    0.09634   0.09792   0.10173   0.12049   0.12142

 Mulliken charges:
               1
     1  O   -0.475002
     2  C    0.535623
     3  O   -0.585176
     4  C    0.069789
     5  C   -0.159700
     6  C   -0.190541
     7  C    0.173372
     8  C   -0.352017
     9  C   -0.126679
    10  N   -0.599906
    11  C    0.631807
    12  O   -0.510635
    13  C   -0.393687
    14  C    0.123811
    15  C   -0.190350
    16  C   -0.130732
    17  C   -0.134525
    18  C   -0.189362
    19  C    0.088587
    20  C    0.077850
    21  C   -0.191646
    22  C   -0.133294
    23  C   -0.133281
    24  C   -0.180163
    25  C    0.143217
    26  C   -0.191698
    27  C   -0.155442
    28  H    0.411095
    29  H    0.159499
    30  H    0.126685
    31  H    0.180377
    32  H    0.136854
    33  H    0.187376
    34  H    0.147626
    35  H    0.324000
    36  H    0.157614
    37  H    0.122789
    38  H    0.129150
    39  H    0.130498
    40  H    0.131957
    41  H    0.130589
    42  H    0.129652
    43  H    0.129149
    44  H    0.125680
    45  H    0.152406
    46  H    0.166781
 Sum of Mulliken charges =  -0.00000

 Dipole moment (field-independent basis, Debye):
    X=              1.2314    Y=              1.1412    Z=              4.6458  Tot=              4.9398
 Quadrupole moment (field-independent basis, Debye-Ang):
   XX=           -148.7370   YY=           -145.3106   ZZ=           -153.6001
   XY=             -2.6962   XZ=            -15.2458   YZ=              0.8071

 Normal termination of Gaussian 16 at Fri Nov  4 21:09:19 2022.
