 Gaussian 16, Revision B.01,
 Gaussian 16:  ES64L-G16RevB.01 20-Dec-2017

 -------------------------------------------------------------------
 #p b3lyp/6-31g(d) 6D 10F nosymm GFInput td=(50-50,nstate=2) SCF=XQC
 -------------------------------------------------------------------

 ------------------------------
 Gaussian input prepared by ASE
 ------------------------------
 Symbolic Z-matrix:
 Charge =  0 Multiplicity = 1

                          Input orientation:
 ---------------------------------------------------------------------
 Center     Atomic      Atomic             Coordinates (Angstroms)
 Number     Number       Type             X           Y           Z
 ---------------------------------------------------------------------
      1          8           0        8.133333   -0.048347   -0.833099
      2          6           0        7.641054    0.418177    0.175370
      3          8           0        8.403522    0.793961    1.236964
      4          6           0        6.189382    0.639058    0.393475
      5          6           0        5.683130    1.184046    1.580907
      6          6           0        4.311131    1.371332    1.729412
      7          6           0        3.418202    1.025038    0.705680
      8          6           0        1.926198    1.188707    0.881093
      9          6           0        1.248077   -0.135274    1.301969
     10          7           0       -0.199315   -0.025208    1.419848
     11          6           0       -1.009633   -0.070410    0.315126
     12          8           0       -0.568820   -0.242366   -0.811759
     13          6           0       -2.513500    0.051913    0.623638
     14          6           0       -3.189375   -1.315281    0.699680
     15          6           0       -2.887523   -2.400143    1.513014
     16          6           0       -3.665951   -3.559148    1.410896
     17          6           0       -4.729137   -3.622273    0.504505
     18          6           0       -5.032297   -2.533213   -0.316210
     19          6           0       -4.256293   -1.377156   -0.218552
     20          6           0       -4.333592   -0.098730   -0.937500
     21          6           0       -5.210987    0.340915   -1.930252
     22          6           0       -5.052282    1.628151   -2.447699
     23          6           0       -4.032326    2.464415   -1.981180
     24          6           0       -3.153876    2.025845   -0.984369
     25          6           0       -3.310452    0.746537   -0.466545
     26          6           0        3.937369    0.480250   -0.479768
     27          6           0        5.305336    0.288575   -0.636559
     28          1           0        9.323301    0.602830    0.976255
     29          1           0        6.363709    1.460915    2.378513
     30          1           0        3.926419    1.800215    2.652065
     31          1           0        1.466723    1.510449   -0.059432
     32          1           0        1.714641    1.958015    1.634040
     33          1           0        1.459727   -0.903869    0.554238
     34          1           0        1.646592   -0.479900    2.261933
     35          1           0       -0.596174    0.243702    2.308715
     36          1           0       -2.639639    0.583241    1.579482
     37          1           0       -2.055777   -2.358402    2.212038
     38          1           0       -3.440257   -4.416448    2.039156
     39          1           0       -5.324547   -4.528804    0.436236
     40          1           0       -5.858213   -2.590760   -1.020440
     41          1           0       -6.003580   -0.304842   -2.299340
     42          1           0       -5.726607    1.983206   -3.222460
     43          1           0       -3.919487    3.461511   -2.397922
     44          1           0       -2.357606    2.676791   -0.631961
     45          1           0        3.257872    0.210967   -1.284962
     46          1           0        5.711529   -0.128190   -1.552393
 ---------------------------------------------------------------------

 SCF Done:  E(RB3LYP) =  -1168.36759384     A.U. after   15 cycles

 Excitation energies and oscillator strengths:

 Excited state symmetry could not be determined.
 Excited State   1:      Triplet-?Sym    3.0623 eV  404.87 nm  f=0.0000  <S**2>=2.000
      86 ->101        -0.13911
      91 -> 97        -0.13960
      92 -> 97         0.11382
      93 -> 99         0.13330
      94 -> 96         0.63621
 This state for optimization and/or second-order correction.
 Total Energy, E(TD-HF/TD-DFT) =  -1168.25505596
 Copying the excited state density for this state as the 1-particle RhoCI density.

 Excited state symmetry could not be determined.
 Excited State   2:      Triplet-?Sym    3.4472 eV  359.66 nm  f=0.0000  <S**2>=2.000
      88 -> 95        -0.27637
      89 -> 95         0.18058
      90 -> 98        -0.30678
      91 -> 95         0.32494
      92 -> 95         0.42156

 Excited state symmetry could not be determined.
 Excited State   3:      Singlet-?Sym    4.2806 eV  289.64 nm  f=0.0000  <S**2>=0.000
      94 -> 95         0.70654

 Excited state symmetry could not be determined.
 Excited State   4:      Singlet-?Sym    4.6157 eV  268.61 nm  f=0.0025  <S**2>=0.000
      91 -> 96         0.21521
      92 -> 96        -0.18163
      94 -> 97         0.62933

 Alpha  occ. eigenvalues --  -19.19435 -19.13486 -19.11481 -14.36887 -10.31926
 Alpha  occ. eigenvalues --  -10.29179 -10.23166 -10.21372 -10.21015 -10.20588
 Alpha  occ. eigenvalues --  -10.20249 -10.19923 -10.19914 -10.19865 -10.19773
 Alpha  occ. eigenvalues --  -10.19569 -10.19525 -10.19501 -10.19365 -10.19333
 Alpha  occ. eigenvalues --  -10.19207 -10.19172 -10.19131 -10.19069 -10.19018
 Alpha  occ. eigenvalues --  -10.18967 -10.18916  -1.10189  -1.03560  -1.00979
 Alpha  occ. eigenvalues --   -0.92765  -0.88808  -0.86815  -0.84340  -0.80611
 Alpha  occ. eigenvalues --   -0.79721  -0.76910  -0.75395  -0.74453  -0.74263
 Alpha  occ. eigenvalues --   -0.71401  -0.70440  -0.66875  -0.63622  -0.62911
 Alpha  occ. eigenvalues --   -0.61606  -0.59609  -0.58556  -0.58151  -0.57897
 Alpha  occ. eigenvalues --   -0.57556  -0.52775  -0.52648  -0.50665  -0.49390
 Alpha  occ. eigenvalues --   -0.48794  -0.48493  -0.47454  -0.46762  -0.46067
 Alpha  occ. eigenvalues --   -0.45162  -0.44710  -0.44460  -0.44276  -0.43452
 Alpha  occ. eigenvalues --   -0.43076  -0.42593  -0.42149  -0.42062  -0.40978
 Alpha  occ. eigenvalues --   -0.40662  -0.40231  -0.39236  -0.38180  -0.37257
 Alpha  occ. eigenvalues --   -0.36403  -0.36159  -0.35731  -0.35456  -0.35169
 Alpha  occ. eigenvalues --   -0.34932  -0.34317  -0.33332  -0.32972  -0.31636
 Alpha  occ. eigenvalues --   -0.28236  -0.27496  -0.26801  -0.26067  -0.25960
 Alpha  occ. eigenvalues --   -0.24872  -0.24771  -0.24013  -0.21526
 Alpha virt. eigenvalues --   -0.04710  -0.03101  -0.01556  -0.00886   0.00605
 Alpha virt. eigenvalues --    0.02379   0.04184   0.05643   0.06419   0.07623
 Alpha virt. eigenvalues --    0.09634   0.09792   0.10173   0.12049   0.12141

 Mulliken charges:
               1
     1  O   -0.475003
     2  C    0.535623
     3  O   -0.585175
     4  C    0.069787
     5  C   -0.159690
     6  C   -0.190554
     7  C    0.173378
     8  C   -0.352016
     9  C   -0.126683
    10  N   -0.599904
    11  C    0.631801
    12  O   -0.510628
    13  C   -0.393679
    14  C    0.123802
    15  C   -0.190345
    16  C   -0.130734
    17  C   -0.134529
    18  C   -0.189352
    19  C    0.088585
    20  C    0.077875
    21  C   -0.191654
    22  C   -0.133299
    23  C   -0.133275
    24  C   -0.180161
    25  C    0.143198
    26  C   -0.191692
    27  C   -0.155447
    28  H    0.411095
    29  H    0.159498
    30  H    0.126687
    31  H    0.180377
    32  H    0.136853
    33  H    0.187375
    34  H    0.147627
    35  H    0.323999
    36  H    0.157613
    37  H    0.122787
    38  H    0.129151
    39  H    0.130498
    40  H    0.131956
    41  H    0.130589
    42  H    0.129652
    43  H    0.129148
    44  H    0.125678
    45  H    0.152404
    46  H    0.166781
 Sum of Mulliken charges =  -0.00000

 Dipole moment (field-independent basis, Debye):
    X=             -1.8103    Y=              1.2515    Z=              4.4225  Tot=              4.9398
 Quadrupole moment (field-independent basis, Debye-Ang):
   XX=           -153.7160   YY=           -146.8953   ZZ=           -146.9520
   XY=              5.8303   XZ=             15.5462   YZ=             -1.6283

 Normal termination of Gaussian 16 at Sat Nov  5 12:27:03 2022.
