 Gaussian 16, Revision B.01,
 Gaussian 16:  ES64L-G16RevB.01 20-Dec-2017

 -----------------------------
 #p b3lyp/6-31g(d) opt SCF=XQC
 -----------------------------

 ------------------------------
 Gaussian input prepared by ASE
 ------------------------------
 Symbolic Z-matrix:
 Charge =  0 Multiplicity = 1

 SCF Done:  E(RB3LYP) =  -1496.84071632     A.U. after   16 cycles
 SCF Done:  E(RB3LYP) =  -1496.85002058     A.U. after   13 cycles
 SCF Done:  E(RB3LYP) =  -1496.85089122     A.U. after   13 cycles
 SCF Done:  E(RB3LYP) =  -1496.85164359     A.U. after   12 cycles
 SCF Done:  E(RB3LYP) =  -1496.85169767     A.U. after   12 cycles
 SCF Done:  E(RB3LYP) =  -1496.85176894     A.U. after   11 cycles
 SCF Done:  E(RB3LYP) =  -1496.85178587     A.U. after   10 cycles
 SCF Done:  E(RB3LYP) =  -1496.85179320     A.U. after   10 cycles
 SCF Done:  E(RB3LYP) =  -1496.85179457     A.U. after    8 cycles
 SCF Done:  E(RB3LYP) =  -1496.85179559     A.U. after    8 cycles
 SCF Done:  E(RB3LYP) =  -1496.85179587     A.U. after    7 cycles
 SCF Done:  E(RB3LYP) =  -1496.85179602     A.U. after    7 cycles
 Optimization completed.
    -- Stationary point found.

                         Standard orientation:
 ---------------------------------------------------------------------
 Center     Atomic      Atomic             Coordinates (Angstroms)
 Number     Number       Type             X           Y           Z
 ---------------------------------------------------------------------
      1          6           0        2.797713    0.355568    2.380042
      2          6           0        1.422815   -0.321345    2.433212
      3          6           0        0.738741   -0.819405    1.128073
      4          6           0       -0.547042   -1.567556    1.605494
      5          8           0       -0.569879   -2.422923    2.472186
      6          6           0       -1.716965   -1.044655    0.879820
      7          6           0       -3.031989   -1.488586    0.994909
      8          6           0       -3.990601   -0.870527    0.192281
      9          8           0       -5.267503   -1.328463    0.322412
     10          6           0       -6.285305   -0.772754   -0.494674
     11          6           0       -3.622497    0.164537   -0.691002
     12          6           0       -2.291080    0.592189   -0.777772
     13          8           0       -1.866445    1.583806   -1.608686
     14          6           0       -2.805733    2.205855   -2.473407
     15          6           0       -1.318652   -0.019574    0.028711
     16          6           0        0.182037    0.288423    0.096593
     17          6           0        0.359241    1.754324    0.541871
     18          6           0        1.229403    2.654400   -0.086374
     19          6           0        1.335002    3.980691    0.340738
     20          6           0        0.570186    4.443436    1.409177
     21          6           0       -0.310538    3.564329    2.041056
     22          6           0       -0.417739    2.244430    1.606843
     23          6           0        0.806896   -0.020940   -1.321729
     24          6           0        0.333847   -1.431075   -1.681904
     25          8           0       -0.325376   -1.743650   -2.641275
     26          8           0        0.745928   -2.355417   -0.770991
     27          6           0        1.626202   -1.837129    0.303940
     28          6           0        2.067595   -3.075922    1.070029
     29          6           0        2.763856   -1.116706   -0.406588
     30          6           0        4.124173   -1.413347   -0.327029
     31          6           0        5.030365   -0.716301   -1.130867
     32          6           0        4.577065    0.255690   -2.025226
     33          6           0        3.213173    0.543052   -2.116444
     34          6           0        2.313712   -0.131187   -1.291172
     35          1           0        3.036438    0.740010    3.378758
     36          1           0        2.823794    1.199344    1.686144
     37          1           0        3.595546   -0.335016    2.096760
     38          1           0        0.724246    0.366406    2.920285
     39          1           0        1.473496   -1.193001    3.094823
     40          1           0       -3.302010   -2.291804    1.670871
     41          1           0       -7.201947   -1.301663   -0.228077
     42          1           0       -6.076416   -0.926924   -1.561481
     43          1           0       -6.419519    0.300161   -0.301799
     44          1           0       -4.374022    0.628606   -1.314367
     45          1           0       -3.598139    2.711763   -1.906795
     46          1           0       -3.253634    1.480969   -3.164751
     47          1           0       -2.240767    2.946910   -3.040914
     48          1           0        1.844536    2.331624   -0.915200
     49          1           0        2.021171    4.650794   -0.170958
     50          1           0        0.653438    5.474565    1.741867
     51          1           0       -0.924678    3.906081    2.870227
     52          1           0       -1.132030    1.589144    2.096195
     53          1           0        0.434275    0.679056   -2.068108
     54          1           0        2.758548   -2.809387    1.874856
     55          1           0        1.211758   -3.585130    1.512011
     56          1           0        2.575774   -3.760060    0.384257
     57          1           0        4.485123   -2.184249    0.346647
     58          1           0        6.090720   -0.944756   -1.068878
     59          1           0        5.283932    0.781050   -2.661555
     60          1           0        2.853265    1.279179   -2.831586
 ---------------------------------------------------------------------

 The electronic state is 1-A.
 Alpha  occ. eigenvalues --  -19.19106 -19.18527 -19.17887 -19.13828 -19.12285
 Alpha  occ. eigenvalues --  -10.30431 -10.26994 -10.26632 -10.26284 -10.25990
 Alpha  occ. eigenvalues --  -10.25066 -10.24833 -10.22990 -10.21607 -10.20824
 Alpha  occ. eigenvalues --  -10.20423 -10.20237 -10.20166 -10.19970 -10.19903
 Alpha  occ. eigenvalues --  -10.19866 -10.19830 -10.19828 -10.19690 -10.19589
 Alpha  occ. eigenvalues --  -10.19101 -10.19076 -10.18996 -10.18867 -10.18802
 Alpha  occ. eigenvalues --  -10.18783 -10.18457 -10.17639 -10.16828  -1.08793
 Alpha  occ. eigenvalues --   -1.07723  -1.07169  -1.03724  -1.00826  -0.88962
 Alpha  occ. eigenvalues --   -0.87000  -0.85400  -0.83104  -0.80597  -0.78817
 Alpha  occ. eigenvalues --   -0.77306  -0.76363  -0.75437  -0.74417  -0.74048
 Alpha  occ. eigenvalues --   -0.72767  -0.72515  -0.70089  -0.68935  -0.65605
 Alpha  occ. eigenvalues --   -0.64608  -0.63308  -0.61182  -0.60526  -0.60234
 Alpha  occ. eigenvalues --   -0.59580  -0.58411  -0.56894  -0.56280  -0.53945
 Alpha  occ. eigenvalues --   -0.52637  -0.52158  -0.50778  -0.50357  -0.49616
 Alpha  occ. eigenvalues --   -0.48982  -0.48379  -0.48018  -0.47708  -0.47412
 Alpha  occ. eigenvalues --   -0.46252  -0.45420  -0.45327  -0.44844  -0.44506
 Alpha  occ. eigenvalues --   -0.43880  -0.43451  -0.43185  -0.42961  -0.42641
 Alpha  occ. eigenvalues --   -0.42016  -0.41412  -0.41165  -0.40468  -0.40149
 Alpha  occ. eigenvalues --   -0.39479  -0.39173  -0.38760  -0.38288  -0.38062
 Alpha  occ. eigenvalues --   -0.37573  -0.36937  -0.36568  -0.36357  -0.35724
 Alpha  occ. eigenvalues --   -0.35445  -0.35094  -0.34936  -0.34479  -0.34354
 Alpha  occ. eigenvalues --   -0.34102  -0.33808  -0.33268  -0.32341  -0.31402
 Alpha  occ. eigenvalues --   -0.30158  -0.28280  -0.26864  -0.25567  -0.25010
 Alpha  occ. eigenvalues --   -0.24955  -0.24695  -0.23848  -0.23687  -0.21463
 Alpha virt. eigenvalues --   -0.05532  -0.01877  -0.01379  -0.00647  -0.00146
 Alpha virt. eigenvalues --    0.00460   0.03623   0.05304   0.07933   0.08777
 Alpha virt. eigenvalues --    0.09423   0.09597   0.09952   0.10784   0.11564

 Mulliken charges:
               1
     1  C   -0.463895
     2  C   -0.279439
     3  C   -0.035720
     4  C    0.400622
     5  O   -0.491994
     6  C    0.098711
     7  C   -0.227125
     8  C    0.396029
     9  O   -0.508351
    10  C   -0.216392
    11  C   -0.271707
    12  C    0.369944
    13  O   -0.515931
    14  C   -0.217962
    15  C   -0.015509
    16  C   -0.084964
    17  C    0.190674
    18  C   -0.184511
    19  C   -0.137076
    20  C   -0.128235
    21  C   -0.133905
    22  C   -0.190398
    23  C   -0.294995
    24  C    0.625838
    25  O   -0.467832
    26  O   -0.481600
    27  C    0.196706
    28  C   -0.491451
    29  C    0.144971
    30  C   -0.196588
    31  C   -0.132530
    32  C   -0.128100
    33  C   -0.195398
    34  C    0.127004
    35  H    0.143298
    36  H    0.166166
    37  H    0.146870
    38  H    0.148446
    39  H    0.166961
    40  H    0.159987
    41  H    0.176004
    42  H    0.156649
    43  H    0.150327
    44  H    0.140397
    45  H    0.153716
    46  H    0.162824
    47  H    0.175896
    48  H    0.132850
    49  H    0.128315
    50  H    0.128780
    51  H    0.130505
    52  H    0.138822
    53  H    0.171805
    54  H    0.154439
    55  H    0.200789
    56  H    0.163315
    57  H    0.137700
    58  H    0.134555
    59  H    0.134567
    60  H    0.137124
 Sum of Mulliken charges =  -0.00000

 Dipole moment (field-independent basis, Debye):
    X=             -0.7889    Y=              5.3362    Z=             -1.0191  Tot=              5.4896
 Quadrupole moment (field-independent basis, Debye-Ang):
   XX=           -158.2293   YY=           -197.4813   ZZ=           -199.7759
   XY=             -9.8342   XZ=              6.4897   YZ=             -7.2725

 1\1\GINC-NODE03\FOpt\RB3LYP\6-31G(d)\C29H26O5\WYKGROUP\04-Nov-2022\0\\
 #p b3lyp/6-31g(d) opt SCF=XQC\\Gaussian input prepared by ASE\\0,1\C,-
 2.5523097332,-1.3043046828,-2.1155777068\C,-1.3600833932,-1.9514911821
 ,-1.4006449672\C,-0.83477033,-1.3676193018,-0.0580540895\C,0.265102006
 2,-2.3706624769,0.4163761653\O,0.119357686,-3.5778910408,0.4848408852\
 C,1.503723651,-1.6337063574,0.7188002599\C,2.6905505699,-2.1711180176,
 1.2109785433\C,3.7423088892,-1.2882533347,1.4549027228\O,4.8892380029,
 -1.841215229,1.9406047134\C,5.9845791423,-0.9947792814,2.2506620546\C,

 Normal termination of Gaussian 16 at Fri Nov  4 21:34:19 2022.
