 Gaussian 16, Revision B.01,
 Gaussian 16:  ES64L-G16RevB.01 20-Dec-2017

 -------------------------------------------------------------------
 #p b3lyp/6-31g(d) 6D 10F nosymm GFInput td=(50-50,nstate=2) SCF=XQC
 -------------------------------------------------------------------

 ------------------------------
 Gaussian input prepared by ASE
 ------------------------------
 Symbolic Z-matrix:
 Charge =  0 Multiplicity = 1

                          Input orientation:
 ---------------------------------------------------------------------
 Center     Atomic      Atomic             Coordinates (Angstroms)
 Number     Number       Type             X           Y           Z
 ---------------------------------------------------------------------
      1          6           0       -2.552310   -1.304305   -2.115578
      2          6           0       -1.360083   -1.951491   -1.400645
      3          6           0       -0.834770   -1.367619   -0.058054
      4          6           0        0.265102   -2.370662    0.416376
      5          8           0        0.119358   -3.577891    0.484841
      6          6           0        1.503724   -1.633706    0.718800
      7          6           0        2.690551   -2.171118    1.210979
      8          6           0        3.742309   -1.288253    1.454903
      9          8           0        4.889238   -1.841215    1.940605
     10          6           0        5.984579   -0.994779    2.250662
     11          6           0        3.590726    0.090168    1.201870
     12          6           0        2.385005    0.597767    0.700207
     13          8           0        2.169974    1.915827    0.434655
     14          6           0        3.202270    2.850740    0.712594
     15          6           0        1.321260   -0.282244    0.446609
     16          6           0       -0.072191    0.052932   -0.098815
     17          6           0        0.089713    0.676236   -1.500177
     18          6           0       -0.575020    1.838357   -1.912021
     19          6           0       -0.374589    2.377019   -3.185714
     20          6           0        0.499208    1.766998   -4.082927
     21          6           0        1.178959    0.614211   -3.686950
     22          6           0        0.981332    0.084821   -2.413037
     23          6           0       -0.784115    1.008617    0.939271
     24          6           0       -0.643192    0.319167    2.298235
     25          8           0       -0.092754    0.762881    3.274353
     26          8           0       -1.227144   -0.910818    2.309055
     27          6           0       -1.944853   -1.282515    1.065787
     28          6           0       -2.630369   -2.600341    1.397046
     29          6           0       -2.912074   -0.139270    0.790847
     30          6           0       -4.301978   -0.217714    0.708385
     31          6           0       -5.050951    0.952057    0.553831
     32          6           0       -4.415882    2.194797    0.504698
     33          6           0       -3.024824    2.275685    0.602243
     34          6           0       -2.276856    1.105120    0.724809
     35          1           0       -2.675937   -1.784918   -3.093302
     36          1           0       -2.408106   -0.235033   -2.288772
     37          1           0       -3.489629   -1.430970   -1.568695
     38          1           0       -0.515236   -1.968544   -2.096478
     39          1           0       -1.586071   -3.004450   -1.199928
     40          1           0        2.792712   -3.231631    1.410651
     41          1           0        6.767882   -1.651108    2.633702
     42          1           0        5.721021   -0.258650    3.021461
     43          1           0        6.357168   -0.471079    1.360001
     44          1           0        4.410894    0.764754    1.404334
     45          1           0        4.100354    2.645160    0.115868
     46          1           0        3.462062    2.854083    1.778675
     47          1           0        2.801434    3.826508    0.433989
     48          1           0       -1.266151    2.337497   -1.246646
     49          1           0       -0.907923    3.280375   -3.470674
     50          1           0        0.653924    2.185450   -5.073786
     51          1           0        1.873323    0.127083   -4.366694
     52          1           0        1.544816   -0.795668   -2.119265
     53          1           0       -0.284222    1.975285    0.979028
     54          1           0       -3.225659   -2.952404    0.549765
     55          1           0       -1.897751   -3.369292    1.640112
     56          1           0       -3.293601   -2.454433    2.254605
     57          1           0       -4.807918   -1.176150    0.770339
     58          1           0       -6.133756    0.892707    0.487528
     59          1           0       -5.004394    3.102559    0.403716
     60          1           0       -2.528587    3.243415    0.592723
 ---------------------------------------------------------------------

 SCF Done:  E(RB3LYP) =  -1496.85178277     A.U. after   15 cycles

 Excitation energies and oscillator strengths:

 Excited state symmetry could not be determined.
 Excited State   1:      Triplet-?Sym    2.9797 eV  416.10 nm  f=0.0000  <S**2>=2.000
     119 ->121         0.11729
     120 ->121         0.67830
 This state for optimization and/or second-order correction.
 Total Energy, E(TD-HF/TD-DFT) =  -1496.74228156
 Copying the excited state density for this state as the 1-particle RhoCI density.

 Excited state symmetry could not be determined.
 Excited State   2:      Triplet-?Sym    3.1778 eV  390.16 nm  f=0.0000  <S**2>=2.000
     114 ->121         0.17650
     116 ->121         0.16208
     117 ->121        -0.21288
     118 ->121         0.54980
     119 ->121        -0.24263

 Excited state symmetry could not be determined.
 Excited State   3:      Singlet-?Sym    3.6286 eV  341.69 nm  f=0.0058  <S**2>=0.000
     114 ->121         0.15900
     116 ->121         0.14764
     117 ->121        -0.18488
     118 ->121         0.54271
     119 ->121        -0.24823
     120 ->121        -0.20855

 Excited state symmetry could not be determined.
 Excited State   4:      Singlet-?Sym    3.7781 eV  328.17 nm  f=0.0482  <S**2>=0.000
     118 ->121         0.15696
     119 ->121        -0.10542
     120 ->121         0.66219

 Alpha  occ. eigenvalues --  -19.19106 -19.18527 -19.17887 -19.13828 -19.12285
 Alpha  occ. eigenvalues --  -10.30431 -10.26994 -10.26632 -10.26284 -10.25989
 Alpha  occ. eigenvalues --  -10.25066 -10.24833 -10.22990 -10.21606 -10.20824
 Alpha  occ. eigenvalues --  -10.20423 -10.20237 -10.20166 -10.19970 -10.19903
 Alpha  occ. eigenvalues --  -10.19866 -10.19830 -10.19828 -10.19690 -10.19589
 Alpha  occ. eigenvalues --  -10.19101 -10.19076 -10.18996 -10.18866 -10.18802
 Alpha  occ. eigenvalues --  -10.18783 -10.18456 -10.17639 -10.16828  -1.08793
 Alpha  occ. eigenvalues --   -1.07722  -1.07169  -1.03724  -1.00826  -0.88962
 Alpha  occ. eigenvalues --   -0.87000  -0.85400  -0.83104  -0.80597  -0.78817
 Alpha  occ. eigenvalues --   -0.77306  -0.76363  -0.75437  -0.74417  -0.74048
 Alpha  occ. eigenvalues --   -0.72767  -0.72515  -0.70089  -0.68935  -0.65605
 Alpha  occ. eigenvalues --   -0.64608  -0.63308  -0.61182  -0.60526  -0.60234
 Alpha  occ. eigenvalues --   -0.59580  -0.58411  -0.56894  -0.56280  -0.53945
 Alpha  occ. eigenvalues --   -0.52637  -0.52158  -0.50778  -0.50357  -0.49616
 Alpha  occ. eigenvalues --   -0.48982  -0.48379  -0.48018  -0.47708  -0.47412
 Alpha  occ. eigenvalues --   -0.46252  -0.45420  -0.45327  -0.44844  -0.44506
 Alpha  occ. eigenvalues --   -0.43880  -0.43451  -0.43185  -0.42961  -0.42641
 Alpha  occ. eigenvalues --   -0.42016  -0.41412  -0.41165  -0.40468  -0.40149
 Alpha  occ. eigenvalues --   -0.39479  -0.39173  -0.38760  -0.38288  -0.38062
 Alpha  occ. eigenvalues --   -0.37573  -0.36937  -0.36568  -0.36357  -0.35724
 Alpha  occ. eigenvalues --   -0.35445  -0.35094  -0.34936  -0.34479  -0.34354
 Alpha  occ. eigenvalues --   -0.34102  -0.33808  -0.33268  -0.32341  -0.31402
 Alpha  occ. eigenvalues --   -0.30158  -0.28280  -0.26864  -0.25567  -0.25010
 Alpha  occ. eigenvalues --   -0.24955  -0.24695  -0.23848  -0.23687  -0.21463
 Alpha virt. eigenvalues --   -0.05531  -0.01877  -0.01379  -0.00646  -0.00146
 Alpha virt. eigenvalues --    0.00460   0.03623   0.05304   0.07933   0.08777
 Alpha virt. eigenvalues --    0.09424   0.09597   0.09952   0.10784   0.11564

 Mulliken charges:
               1
     1  C   -0.463885
     2  C   -0.279453
     3  C   -0.035636
     4  C    0.400599
     5  O   -0.491986
     6  C    0.098690
     7  C   -0.227104
     8  C    0.396015
     9  O   -0.508351
    10  C   -0.216393
    11  C   -0.271675
    12  C    0.369978
    13  O   -0.515947
    14  C   -0.217957
    15  C   -0.015579
    16  C   -0.084973
    17  C    0.190744
    18  C   -0.184544
    19  C   -0.137075
    20  C   -0.128232
    21  C   -0.133906
    22  C   -0.190411
    23  C   -0.294948
    24  C    0.625795
    25  O   -0.467826
    26  O   -0.481589
    27  C    0.196685
    28  C   -0.491468
    29  C    0.144932
    30  C   -0.196594
    31  C   -0.132517
    32  C   -0.128103
    33  C   -0.195411
    34  C    0.127021
    35  H    0.143296
    36  H    0.166163
    37  H    0.146868
    38  H    0.148447
    39  H    0.166959
    40  H    0.159988
    41  H    0.176005
    42  H    0.156650
    43  H    0.150327
    44  H    0.140393
    45  H    0.153720
    46  H    0.162822
    47  H    0.175895
    48  H    0.132850
    49  H    0.128314
    50  H    0.128779
    51  H    0.130505
    52  H    0.138819
    53  H    0.171805
    54  H    0.154442
    55  H    0.200793
    56  H    0.163319
    57  H    0.137699
    58  H    0.134556
    59  H    0.134567
    60  H    0.137123
 Sum of Mulliken charges =  -0.00000

 Dipole moment (field-independent basis, Debye):
    X=              1.9234    Y=              4.0886    Z=             -3.1174  Tot=              5.4895
 Quadrupole moment (field-independent basis, Debye-Ang):
   XX=           -156.1659   YY=           -194.6153   ZZ=           -206.5286
   XY=              6.9975   XZ=              5.9350   YZ=              0.4821

 Normal termination of Gaussian 16 at Sat Nov  5 12:32:00 2022.
