 Gaussian 16, Revision B.01,
 Gaussian 16:  ES64L-G16RevB.01 20-Dec-2017

 -----------------------------
 #p b3lyp/6-31g(d) opt SCF=XQC
 -----------------------------

 ------------------------------
 Gaussian input prepared by ASE
 ------------------------------
 Symbolic Z-matrix:
 Charge =  0 Multiplicity = 1

 SCF Done:  E(RB3LYP) =  -1159.61348959     A.U. after   17 cycles
 SCF Done:  E(RB3LYP) =  -1159.61838214     A.U. after   12 cycles
 SCF Done:  E(RB3LYP) =  -1159.62010642     A.U. after   13 cycles
 SCF Done:  E(RB3LYP) =  -1159.62012862     A.U. after   12 cycles
 SCF Done:  E(RB3LYP) =  -1159.62063925     A.U. after   12 cycles
 SCF Done:  E(RB3LYP) =  -1159.62069445     A.U. after   11 cycles
 SCF Done:  E(RB3LYP) =  -1159.62070198     A.U. after   11 cycles
 SCF Done:  E(RB3LYP) =  -1159.62073634     A.U. after   10 cycles
 SCF Done:  E(RB3LYP) =  -1159.62073759     A.U. after    8 cycles
 SCF Done:  E(RB3LYP) =  -1159.62073963     A.U. after    8 cycles
 SCF Done:  E(RB3LYP) =  -1159.62077414     A.U. after    9 cycles
 SCF Done:  E(RB3LYP) =  -1159.62077489     A.U. after    9 cycles
 SCF Done:  E(RB3LYP) =  -1159.62077517     A.U. after    8 cycles
 SCF Done:  E(RB3LYP) =  -1159.62077553     A.U. after    8 cycles
 SCF Done:  E(RB3LYP) =  -1159.62077577     A.U. after    9 cycles
 SCF Done:  E(RB3LYP) =  -1159.62077597     A.U. after    9 cycles
 SCF Done:  E(RB3LYP) =  -1159.62077623     A.U. after    9 cycles
 SCF Done:  E(RB3LYP) =  -1159.62077651     A.U. after    9 cycles
 SCF Done:  E(RB3LYP) =  -1159.62077662     A.U. after    9 cycles
 SCF Done:  E(RB3LYP) =  -1159.62077666     A.U. after    7 cycles
 Optimization completed.
    -- Stationary point found.

                         Standard orientation:
 ---------------------------------------------------------------------
 Center     Atomic      Atomic             Coordinates (Angstroms)
 Number     Number       Type             X           Y           Z
 ---------------------------------------------------------------------
      1          6           0        7.404952    1.159970   -0.013239
      2          6           0        6.267558    0.164878   -0.004253
      3          6           0        6.520826   -1.214971    0.008174
      4          6           0        5.463804   -2.120714    0.016851
      5          6           0        4.134806   -1.693208    0.013471
      6          6           0        3.868906   -0.317445    0.001030
      7          7           0        2.586475    0.277588   -0.003984
      8          6           0        1.344557   -0.250097    0.001977
      9          7           0        1.221326   -1.592234    0.014070
     10          6           0       -0.008272   -2.086390    0.019494
     11          7           0       -1.163803   -1.438584    0.013081
     12          6           0       -1.118815   -0.091173    0.001155
     13          7           0       -2.281948    0.594878   -0.005945
     14          6           0       -3.637040    0.182370   -0.002136
     15          6           0       -4.055719   -1.155191   -0.026340
     16          6           0       -5.415535   -1.484857   -0.025348
     17          6           0       -5.841265   -2.935358   -0.020950
     18          6           0       -6.358543   -0.454617   -0.006532
     19          6           0       -5.943404    0.876019    0.016712
     20          6           0       -4.593729    1.228871    0.019778
     21          6           0       -4.189478    2.685061    0.041178
     22          6           0        0.162671    0.591156   -0.003760
     23          7           0        0.256669    2.006950   -0.013189
     24          8           0       -0.781685    2.706346   -0.012703
     25          8           0        1.375472    2.567535   -0.021739
     26          6           0        4.941885    0.593952   -0.007692
     27          1           0        8.046853    1.022589   -0.892072
     28          1           0        8.042628    1.043206    0.871677
     29          1           0        7.037745    2.190781   -0.026068
     30          1           0        7.546979   -1.574832    0.010982
     31          1           0        5.669544   -3.187936    0.026426
     32          1           0        3.319712   -2.400072    0.020144
     33          1           0        2.574926    1.296310   -0.013510
     34          1           0       -0.078320   -3.173620    0.030428
     35          1           0       -2.125362    1.600640   -0.010696
     36          1           0       -3.308820   -1.934839   -0.045266
     37          1           0       -6.862126   -3.053270   -0.399007
     38          1           0       -5.817738   -3.353712    0.994179
     39          1           0       -5.177414   -3.549966   -0.638531
     40          1           0       -7.420223   -0.689124   -0.011332
     41          1           0       -6.687502    1.668826    0.029180
     42          1           0       -5.075498    3.325316    0.062709
     43          1           0       -3.582175    2.937677    0.920524
     44          1           0       -3.602877    2.969819   -0.842577
     45          1           0        4.729350    1.661432   -0.017311
 ---------------------------------------------------------------------

 The electronic state is 1-A.
 Alpha  occ. eigenvalues --  -19.18192 -19.18185 -14.57586 -14.38751 -14.38618
 Alpha  occ. eigenvalues --  -14.33763 -14.33732 -10.30603 -10.30593 -10.27287
 Alpha  occ. eigenvalues --  -10.26332 -10.24182 -10.23779 -10.20264 -10.20073
 Alpha  occ. eigenvalues --  -10.19530 -10.19376 -10.19201 -10.18932 -10.18823
 Alpha  occ. eigenvalues --  -10.18771 -10.18720 -10.18512 -10.18383 -10.18229
 Alpha  occ. eigenvalues --  -10.18005  -1.22056  -1.04541  -1.01966  -0.98679
 Alpha  occ. eigenvalues --   -0.95343  -0.88796  -0.86321  -0.85111  -0.83966
 Alpha  occ. eigenvalues --   -0.78758  -0.77390  -0.75630  -0.75049  -0.72250
 Alpha  occ. eigenvalues --   -0.71718  -0.69087  -0.67273  -0.65600  -0.65174
 Alpha  occ. eigenvalues --   -0.62558  -0.61484  -0.59079  -0.58698  -0.56855
 Alpha  occ. eigenvalues --   -0.55314  -0.54289  -0.53515  -0.52410  -0.51457
 Alpha  occ. eigenvalues --   -0.51130  -0.49328  -0.47894  -0.46807  -0.46277
 Alpha  occ. eigenvalues --   -0.45846  -0.45436  -0.44185  -0.43500  -0.42759
 Alpha  occ. eigenvalues --   -0.42475  -0.42363  -0.41501  -0.41288  -0.41107
 Alpha  occ. eigenvalues --   -0.40304  -0.39677  -0.38944  -0.37791  -0.37604
 Alpha  occ. eigenvalues --   -0.36092  -0.35342  -0.34776  -0.34760  -0.34276
 Alpha  occ. eigenvalues --   -0.33445  -0.32779  -0.31398  -0.29971  -0.29740
 Alpha  occ. eigenvalues --   -0.28770  -0.28627  -0.26264  -0.24709  -0.23866
 Alpha  occ. eigenvalues --   -0.21983  -0.21644
 Alpha virt. eigenvalues --   -0.09485  -0.03477  -0.01397   0.00024   0.00213
 Alpha virt. eigenvalues --    0.01233   0.03254   0.08835   0.09940   0.10520
 Alpha virt. eigenvalues --    0.11580   0.11999   0.12437   0.12650   0.12967

 Mulliken charges:
               1
     1  C   -0.532995
     2  C    0.182927
     3  C   -0.173119
     4  C   -0.142928
     5  C   -0.145466
     6  C    0.370007
     7  N   -0.787950
     8  C    0.570540
     9  N   -0.518667
    10  C    0.194382
    11  N   -0.517178
    12  C    0.582714
    13  N   -0.809278
    14  C    0.288429
    15  C   -0.200736
    16  C    0.164955
    17  C   -0.527791
    18  C   -0.171532
    19  C   -0.196394
    20  C    0.131604
    21  C   -0.560616
    22  C    0.198742
    23  N    0.339931
    24  O   -0.466970
    25  O   -0.460086
    26  C   -0.275915
    27  H    0.165452
    28  H    0.165545
    29  H    0.157972
    30  H    0.123758
    31  H    0.133146
    32  H    0.177791
    33  H    0.403443
    34  H    0.158345
    35  H    0.426257
    36  H    0.175201
    37  H    0.154333
    38  H    0.165931
    39  H    0.160300
    40  H    0.121175
    41  H    0.124614
    42  H    0.164627
    43  H    0.174531
    44  H    0.174898
    45  H    0.136075
 Sum of Mulliken charges =  -0.00000

 Dipole moment (field-independent basis, Debye):
    X=              0.2032    Y=             -1.3051    Z=              0.0407  Tot=              1.3214
 Quadrupole moment (field-independent basis, Debye-Ang):
   XX=           -123.7493   YY=           -149.3703   ZZ=           -153.6287
   XY=             -0.4236   XZ=             -0.2210   YZ=              0.0290

 Normal termination of Gaussian 16 at Fri Nov  4 21:25:58 2022.
