 Gaussian 16, Revision B.01,
 Gaussian 16:  ES64L-G16RevB.01 20-Dec-2017

 -------------------------------------------------------------------
 #p b3lyp/6-31g(d) 6D 10F nosymm GFInput td=(50-50,nstate=2) SCF=XQC
 -------------------------------------------------------------------

 ------------------------------
 Gaussian input prepared by ASE
 ------------------------------
 Symbolic Z-matrix:
 Charge =  0 Multiplicity = 1

                          Input orientation:
 ---------------------------------------------------------------------
 Center     Atomic      Atomic             Coordinates (Angstroms)
 Number     Number       Type             X           Y           Z
 ---------------------------------------------------------------------
      1          6           0        7.475666    0.001567   -1.001815
      2          6           0        6.317426   -0.319635   -0.085702
      3          6           0        6.537711   -0.886977    1.178370
      4          6           0        5.461793   -1.177437    2.012503
      5          6           0        4.145828   -0.917945    1.625325
      6          6           0        3.912840   -0.351439    0.365020
      7          7           0        2.647266   -0.028330   -0.175944
      8          6           0        1.395790   -0.155026    0.312526
      9          7           0        1.241300   -0.682242    1.543315
     10          6           0        0.002890   -0.796597    2.000911
     11          7           0       -1.134884   -0.461728    1.410760
     12          6           0       -1.058325    0.072998    0.175491
     13          7           0       -2.202808    0.423319   -0.449834
     14          6           0       -3.564569    0.349093   -0.067017
     15          6           0       -4.015997   -0.189646    1.145798
     16          6           0       -5.380654   -0.232395    1.451843
     17          6           0       -5.840054   -0.790592    2.779467
     18          6           0       -6.295610    0.267006    0.522075
     19          6           0       -5.847940    0.802287   -0.684796
     20          6           0       -4.492591    0.858847   -1.010322
     21          6           0       -4.052880    1.444292   -2.332545
     22          6           0        0.236415    0.260974   -0.453885
     23          7           0        0.363674    0.822552   -1.750739
     24          8           0       -0.655513    1.176906   -2.385581
     25          8           0        1.492940    0.968485   -2.269885
     26          6           0        5.004812   -0.059780   -0.474347
     27          1           0        8.058169   -0.897677   -1.236990
     28          1           0        8.164157    0.717657   -0.536478
     29          1           0        7.133275    0.434024   -1.946976
     30          1           0        7.553097   -1.099279    1.504585
     31          1           0        5.641999   -1.616928    2.990131
     32          1           0        3.315960   -1.145372    2.276228
     33          1           0        2.659656    0.378526   -1.109932
     34          1           0       -0.092475   -1.224627    2.998303
     35          1           0       -2.022672    0.818049   -1.370615
     36          1           0       -3.290692   -0.574059    1.847387
     37          1           0       -6.884995   -1.114992    2.736424
     38          1           0       -5.763502   -0.037773    3.575371
     39          1           0       -5.230881   -1.647615    3.086497
     40          1           0       -7.360866    0.237867    0.737856
     41          1           0       -6.570535    1.185988   -1.401044
     42          1           0       -4.920187    1.783591   -2.905325
     43          1           0       -3.386156    2.307720   -2.206638
     44          1           0       -3.515705    0.716117   -2.954973
     45          1           0        4.817830    0.380228   -1.452206
 ---------------------------------------------------------------------

 SCF Done:  E(RB3LYP) =  -1159.62077783     A.U. after   18 cycles

 Excitation energies and oscillator strengths:

 Excited state symmetry could not be determined.
 Excited State   1:      Triplet-?Sym    2.2120 eV  560.51 nm  f=0.0000  <S**2>=2.000
      87 -> 93        -0.10583
      91 -> 93         0.32224
      92 -> 93         0.59858
 This state for optimization and/or second-order correction.
 Total Energy, E(TD-HF/TD-DFT) =  -1159.53948832
 Copying the excited state density for this state as the 1-particle RhoCI density.

 Excited state symmetry could not be determined.
 Excited State   2:      Triplet-?Sym    2.4268 eV  510.89 nm  f=0.0000  <S**2>=2.000
      91 -> 93         0.59580
      92 -> 93        -0.31638

 Excited state symmetry could not be determined.
 Excited State   3:      Singlet-?Sym    2.8572 eV  433.94 nm  f=0.3247  <S**2>=0.000
      91 -> 93        -0.47694
      92 -> 93         0.51756

 Excited state symmetry could not be determined.
 Excited State   4:      Singlet-?Sym    3.0670 eV  404.25 nm  f=0.0536  <S**2>=0.000
      91 -> 93         0.51686
      92 -> 93         0.47808

 Alpha  occ. eigenvalues --  -19.18192 -19.18185 -14.57586 -14.38751 -14.38618
 Alpha  occ. eigenvalues --  -14.33763 -14.33732 -10.30603 -10.30593 -10.27287
 Alpha  occ. eigenvalues --  -10.26332 -10.24182 -10.23779 -10.20264 -10.20073
 Alpha  occ. eigenvalues --  -10.19530 -10.19376 -10.19201 -10.18932 -10.18823
 Alpha  occ. eigenvalues --  -10.18771 -10.18720 -10.18512 -10.18383 -10.18229
 Alpha  occ. eigenvalues --  -10.18004  -1.22056  -1.04541  -1.01966  -0.98679
 Alpha  occ. eigenvalues --   -0.95343  -0.88796  -0.86321  -0.85111  -0.83966
 Alpha  occ. eigenvalues --   -0.78758  -0.77390  -0.75630  -0.75049  -0.72250
 Alpha  occ. eigenvalues --   -0.71718  -0.69087  -0.67273  -0.65600  -0.65174
 Alpha  occ. eigenvalues --   -0.62558  -0.61484  -0.59079  -0.58698  -0.56855
 Alpha  occ. eigenvalues --   -0.55314  -0.54289  -0.53516  -0.52410  -0.51457
 Alpha  occ. eigenvalues --   -0.51130  -0.49328  -0.47894  -0.46807  -0.46277
 Alpha  occ. eigenvalues --   -0.45846  -0.45436  -0.44185  -0.43500  -0.42759
 Alpha  occ. eigenvalues --   -0.42475  -0.42363  -0.41501  -0.41288  -0.41107
 Alpha  occ. eigenvalues --   -0.40304  -0.39677  -0.38944  -0.37791  -0.37604
 Alpha  occ. eigenvalues --   -0.36092  -0.35342  -0.34776  -0.34760  -0.34276
 Alpha  occ. eigenvalues --   -0.33445  -0.32779  -0.31398  -0.29971  -0.29741
 Alpha  occ. eigenvalues --   -0.28770  -0.28627  -0.26264  -0.24709  -0.23866
 Alpha  occ. eigenvalues --   -0.21983  -0.21644
 Alpha virt. eigenvalues --   -0.09485  -0.03477  -0.01397   0.00024   0.00213
 Alpha virt. eigenvalues --    0.01233   0.03254   0.08835   0.09940   0.10520
 Alpha virt. eigenvalues --    0.11580   0.11999   0.12437   0.12650   0.12967

 Mulliken charges:
               1
     1  C   -0.532995
     2  C    0.182905
     3  C   -0.173098
     4  C   -0.142937
     5  C   -0.145463
     6  C    0.370020
     7  N   -0.787956
     8  C    0.570542
     9  N   -0.518672
    10  C    0.194393
    11  N   -0.517179
    12  C    0.582711
    13  N   -0.809278
    14  C    0.288411
    15  C   -0.200716
    16  C    0.164948
    17  C   -0.527790
    18  C   -0.171534
    19  C   -0.196392
    20  C    0.131611
    21  C   -0.560618
    22  C    0.198730
    23  N    0.339941
    24  O   -0.466971
    25  O   -0.460087
    26  C   -0.275912
    27  H    0.165452
    28  H    0.165544
    29  H    0.157972
    30  H    0.123757
    31  H    0.133147
    32  H    0.177787
    33  H    0.403443
    34  H    0.158346
    35  H    0.426258
    36  H    0.175199
    37  H    0.154333
    38  H    0.165931
    39  H    0.160300
    40  H    0.121174
    41  H    0.124613
    42  H    0.164627
    43  H    0.174531
    44  H    0.174897
    45  H    0.136075
 Sum of Mulliken charges =  -0.00000

 Dipole moment (field-independent basis, Debye):
    X=              0.1739    Y=             -0.5078    Z=              1.2075  Tot=              1.3214
 Quadrupole moment (field-independent basis, Debye-Ang):
   XX=           -123.9064   YY=           -152.7540   ZZ=           -149.8895
   XY=             -2.3384   XZ=              0.1874   YZ=             -1.6171

 Normal termination of Gaussian 16 at Sat Nov  5 12:19:58 2022.
