 Gaussian 16, Revision B.01,
 Gaussian 16:  ES64L-G16RevB.01 20-Dec-2017

 -----------------------------
 #p b3lyp/6-31g(d) opt SCF=XQC
 -----------------------------

 ------------------------------
 Gaussian input prepared by ASE
 ------------------------------
 Symbolic Z-matrix:
 Charge =  0 Multiplicity = 1

 SCF Done:  E(RB3LYP) =  -1958.42357272     A.U. after   16 cycles
 SCF Done:  E(RB3LYP) =  -1958.43228348     A.U. after   16 cycles
 SCF Done:  E(RB3LYP) =  -1958.42238311     A.U. after   15 cycles
 SCF Done:  E(RB3LYP) =  -1958.42728547     A.U. after   15 cycles
 SCF Done:  E(RB3LYP) =  -1958.43508904     A.U. after   11 cycles
 SCF Done:  E(RB3LYP) =  -1958.43744752     A.U. after   14 cycles
 SCF Done:  E(RB3LYP) =  -1958.43432491     A.U. after   15 cycles
 SCF Done:  E(RB3LYP) =  -1958.43927004     A.U. after   14 cycles
 SCF Done:  E(RB3LYP) =  -1958.43976291     A.U. after   13 cycles
 SCF Done:  E(RB3LYP) =  -1958.44004085     A.U. after   15 cycles
 SCF Done:  E(RB3LYP) =  -1958.44104684     A.U. after   12 cycles
 SCF Done:  E(RB3LYP) =  -1958.44109988     A.U. after   13 cycles
 SCF Done:  E(RB3LYP) =  -1958.44111673     A.U. after   11 cycles
 SCF Done:  E(RB3LYP) =  -1958.44113081     A.U. after   11 cycles
 SCF Done:  E(RB3LYP) =  -1958.44114424     A.U. after   12 cycles
 SCF Done:  E(RB3LYP) =  -1958.44114612     A.U. after   11 cycles
 SCF Done:  E(RB3LYP) =  -1958.44114671     A.U. after    8 cycles
 SCF Done:  E(RB3LYP) =  -1958.44114719     A.U. after    8 cycles
 SCF Done:  E(RB3LYP) =  -1958.44114728     A.U. after    7 cycles
 SCF Done:  E(RB3LYP) =  -1958.44114732     A.U. after    7 cycles
 Optimization completed.
    -- Stationary point found.

                         Standard orientation:
 ---------------------------------------------------------------------
 Center     Atomic      Atomic             Coordinates (Angstroms)
 Number     Number       Type             X           Y           Z
 ---------------------------------------------------------------------
      1          6           0       -0.488475   -0.752030   -2.237889
      2          6           0        0.216974   -0.544174   -0.926003
      3          7           0       -0.186922    0.229413    0.029758
      4          7           0       -1.461618    0.808088   -0.111228
      5          6           0       -1.655148    2.174441    0.184152
      6          6           0       -0.565932    3.172202    0.159818
      7          6           0       -0.817212    4.425262   -0.432888
      8          6           0        0.143359    5.429305   -0.426262
      9          6           0        1.375065    5.172187    0.172056
     10          7           0        2.400713    6.224956    0.176914
     11          8           0        3.481173    5.968406    0.708193
     12          8           0        2.117418    7.301197   -0.350002
     13          6           0        1.660283    3.942488    0.761782
     14          6           0        0.689345    2.946846    0.755566
     15          6           0       -2.951912    2.477912    0.418674
     16         16           0       -4.011888    1.083830    0.369081
     17          6           0       -2.606680    0.008818    0.013786
     18          7           0       -2.607170   -1.257818   -0.108565
     19          6           0       -3.789319   -2.007641    0.102817
     20          6           0       -4.690959   -2.234087   -0.959624
     21          6           0       -4.443725   -1.642527   -2.327207
     22          6           0       -5.811820   -3.037751   -0.724289
     23          6           0       -6.037592   -3.615444    0.523216
     24          6           0       -5.128857   -3.397344    1.557227
     25          6           0       -3.996321   -2.600171    1.367653
     26          6           0       -3.006766   -2.374686    2.484919
     27          6           0        1.506712   -1.239644   -0.675701
     28          6           0        2.077165   -1.241592    0.611504
     29          6           0        3.288931   -1.868881    0.862273
     30          6           0        3.959337   -2.542038   -0.168814
     31          7           0        5.191599   -3.189548    0.081865
     32          6           0        5.582317   -3.829843    1.251484
     33          6           0        6.853118   -4.281873    1.018148
     34          7           0        7.273730   -3.933562   -0.249275
     35          6           0        6.263607   -3.289581   -0.780748
     36          6           0        3.394606   -2.573711   -1.448180
     37          6           0        2.188779   -1.924125   -1.694859
     38          1           0       -1.297555   -0.032212   -2.361155
     39          1           0       -0.914849   -1.758683   -2.285656
     40          1           0        0.212373   -0.632406   -3.070043
     41          1           0       -1.769437    4.602010   -0.922320
     42          1           0       -0.039039    6.393225   -0.884873
     43          1           0        2.627817    3.783515    1.221716
     44          1           0        0.896987    1.989026    1.213663
     45          1           0       -3.344760    3.460001    0.636445
     46          1           0       -4.459928   -0.545685   -2.312111
     47          1           0       -5.208298   -1.974568   -3.036324
     48          1           0       -3.464675   -1.941776   -2.719969
     49          1           0       -6.511566   -3.213851   -1.538130
     50          1           0       -6.911841   -4.239867    0.686007
     51          1           0       -5.293870   -3.853819    2.530560
     52          1           0       -3.024294   -1.336229    2.840406
     53          1           0       -3.229076   -3.021567    3.339356
     54          1           0       -1.982088   -2.574904    2.151857
     55          1           0        1.551472   -0.741103    1.416038
     56          1           0        3.726219   -1.830296    1.854747
     57          1           0        4.912425   -3.935406    2.090608
     58          1           0        7.491083   -4.843554    1.686995
     59          1           0        6.246781   -2.833910   -1.761197
     60          1           0        3.884295   -3.127021   -2.242717
     61          1           0        1.777692   -1.973624   -2.696679
 ---------------------------------------------------------------------

 The electronic state is 1-A.
 Alpha  occ. eigenvalues --  -88.92064 -19.18266 -19.18259 -14.57395 -14.42908
 Alpha  occ. eigenvalues --  -14.41096 -14.38299 -14.32701 -14.31979 -10.30479
 Alpha  occ. eigenvalues --  -10.27078 -10.26435 -10.26173 -10.25801 -10.24619
 Alpha  occ. eigenvalues --  -10.24134 -10.23448 -10.22566 -10.22543 -10.22439
 Alpha  occ. eigenvalues --  -10.22388 -10.22281 -10.22192 -10.21978 -10.21914
 Alpha  occ. eigenvalues --  -10.21868 -10.21785 -10.21726 -10.20606 -10.20557
 Alpha  occ. eigenvalues --  -10.19231 -10.19069 -10.18226 -10.18096 -10.18044
 Alpha  occ. eigenvalues --  -10.17987 -10.17753  -7.98170  -5.94611  -5.94273
 Alpha  occ. eigenvalues --   -5.93753  -1.22556  -1.05270  -1.05109  -1.02921
 Alpha  occ. eigenvalues --   -0.94502  -0.91897  -0.91079  -0.89624  -0.86811
 Alpha  occ. eigenvalues --   -0.84582  -0.82621  -0.81841  -0.78002  -0.77977
 Alpha  occ. eigenvalues --   -0.77704  -0.77475  -0.76410  -0.74998  -0.74325
 Alpha  occ. eigenvalues --   -0.73920  -0.69912  -0.68375  -0.67404  -0.67146
 Alpha  occ. eigenvalues --   -0.64885  -0.64492  -0.62771  -0.62050  -0.60701
 Alpha  occ. eigenvalues --   -0.59379  -0.58779  -0.58561  -0.57139  -0.56968
 Alpha  occ. eigenvalues --   -0.56410  -0.54673  -0.53514  -0.53338  -0.51577
 Alpha  occ. eigenvalues --   -0.50864  -0.50566  -0.49676  -0.48219  -0.48064
 Alpha  occ. eigenvalues --   -0.47654  -0.47340  -0.46820  -0.46684  -0.45955
 Alpha  occ. eigenvalues --   -0.45700  -0.45523  -0.45312  -0.44735  -0.44281
 Alpha  occ. eigenvalues --   -0.43699  -0.43273  -0.42100  -0.42008  -0.41595
 Alpha  occ. eigenvalues --   -0.41499  -0.40954  -0.40761  -0.40021  -0.39838
 Alpha  occ. eigenvalues --   -0.39714  -0.39461  -0.38755  -0.37757  -0.37460
 Alpha  occ. eigenvalues --   -0.37125  -0.36991  -0.35354  -0.34943  -0.34666
 Alpha  occ. eigenvalues --   -0.33963  -0.33326  -0.32133  -0.31160  -0.30951
 Alpha  occ. eigenvalues --   -0.30602  -0.29853  -0.29271  -0.28919  -0.28268
 Alpha  occ. eigenvalues --   -0.28063  -0.27393  -0.26719  -0.25185  -0.23473
 Alpha  occ. eigenvalues --   -0.23323  -0.21704  -0.20622
 Alpha virt. eigenvalues --   -0.09565  -0.07419  -0.03148  -0.03005  -0.02638
 Alpha virt. eigenvalues --   -0.00973  -0.00028   0.00479   0.00948   0.01954
 Alpha virt. eigenvalues --    0.03508   0.04491   0.05874   0.07110   0.07411

 Mulliken charges:
               1
     1  C   -0.528756
     2  C    0.355678
     3  N   -0.353455
     4  N   -0.405382
     5  C    0.331976
     6  C    0.108325
     7  C   -0.182691
     8  C   -0.155860
     9  C    0.282699
    10  N    0.377582
    11  O   -0.394152
    12  O   -0.395272
    13  C   -0.160698
    14  C   -0.163328
    15  C   -0.427709
    16  S    0.235371
    17  C    0.323179
    18  N   -0.537829
    19  C    0.078169
    20  C    0.186244
    21  C   -0.536583
    22  C   -0.209438
    23  C   -0.114136
    24  C   -0.208695
    25  C    0.184620
    26  C   -0.528124
    27  C    0.109967
    28  C   -0.172601
    29  C   -0.159488
    30  C    0.325014
    31  N   -0.498910
    32  C    0.011234
    33  C   -0.039444
    34  N   -0.431423
    35  C    0.200942
    36  C   -0.165658
    37  C   -0.200552
    38  H    0.186360
    39  H    0.204907
    40  H    0.167449
    41  H    0.152297
    42  H    0.185612
    43  H    0.185498
    44  H    0.181162
    45  H    0.187781
    46  H    0.163732
    47  H    0.151572
    48  H    0.159633
    49  H    0.119006
    50  H    0.123033
    51  H    0.119772
    52  H    0.161737
    53  H    0.147863
    54  H    0.167369
    55  H    0.169448
    56  H    0.154342
    57  H    0.163306
    58  H    0.143952
    59  H    0.163365
    60  H    0.155561
    61  H    0.144422
 Sum of Mulliken charges =  -0.00000

 Dipole moment (field-independent basis, Debye):
    X=             -4.4450    Y=             -1.7276    Z=             -0.8737  Tot=              4.8483
 Quadrupole moment (field-independent basis, Debye-Ang):
   XX=           -257.1987   YY=           -253.4489   ZZ=           -203.2985
   XY=            -14.8022   XZ=              5.7702   YZ=             -4.0947

 Normal termination of Gaussian 16 at Fri Nov  4 22:02:44 2022.
