 Gaussian 16, Revision B.01,
 Gaussian 16:  ES64L-G16RevB.01 20-Dec-2017

 -------------------------------------------------------------------
 #p b3lyp/6-31g(d) 6D 10F nosymm GFInput td=(50-50,nstate=2) SCF=XQC
 -------------------------------------------------------------------

 ------------------------------
 Gaussian input prepared by ASE
 ------------------------------
 Symbolic Z-matrix:
 Charge =  0 Multiplicity = 1

                          Input orientation:
 ---------------------------------------------------------------------
 Center     Atomic      Atomic             Coordinates (Angstroms)
 Number     Number       Type             X           Y           Z
 ---------------------------------------------------------------------
      1          6           0       -0.524404    0.016324   -2.146887
      2          6           0        0.215544    0.266257   -0.861618
      3          7           0       -0.332286    0.509628    0.285423
      4          7           0       -1.731493    0.385326    0.365172
      5          6           0       -2.492949    1.371438    1.028036
      6          6           0       -2.027890    2.759806    1.224675
      7          6           0       -2.940577    3.810330    1.005583
      8          6           0       -2.584215    5.132858    1.239610
      9          6           0       -1.294361    5.408243    1.688648
     10          7           0       -0.905122    6.804659    1.931174
     11          8           0        0.242121    7.018862    2.322862
     12          8           0       -1.750417    7.676878    1.728942
     13          6           0       -0.363919    4.394969    1.909638
     14          6           0       -0.733136    3.074199    1.678757
     15          6           0       -3.715653    0.925611    1.395359
     16         16           0       -3.981028   -0.764772    1.018987
     17          6           0       -2.321048   -0.885956    0.321652
     18          7           0       -1.744143   -1.922488   -0.138913
     19          6           0       -2.374042   -3.189230   -0.084292
     20          6           0       -3.231172   -3.606098   -1.125715
     21          6           0       -3.535725   -2.695848   -2.291924
     22          6           0       -3.778504   -4.892327   -1.065459
     23          6           0       -3.482908   -5.754709   -0.011944
     24          6           0       -2.620664   -5.335249    0.999556
     25          6           0       -2.052198   -4.058314    0.981007
     26          6           0       -1.109109   -3.609776    2.070843
     27          6           0        1.702014    0.276968   -0.868568
     28          6           0        2.420208    0.288463    0.342375
     29          6           0        3.807179    0.317136    0.357921
     30          6           0        4.524620    0.307674   -0.846618
     31          7           0        5.938839    0.329691   -0.837577
     32          6           0        6.782975   -0.259379    0.095738
     33          6           0        8.053674    0.048585   -0.309472
     34          7           0        8.031327    0.820575   -1.453207
     35          6           0        6.761693    0.966611   -1.743420
     36          6           0        3.828627    0.269192   -2.059389
     37          6           0        2.436961    0.261330   -2.065239
     38          1           0       -1.585022    0.240225   -2.033303
     39          1           0       -0.425258   -1.031663   -2.445754
     40          1           0       -0.120672    0.644785   -2.946897
     41          1           0       -3.932032    3.584659    0.626628
     42          1           0       -3.277352    5.947012    1.068004
     43          1           0        0.627214    4.649485    2.264338
     44          1           0       -0.021165    2.277934    1.850359
     45          1           0       -4.481200    1.505935    1.888728
     46          1           0       -4.065505   -1.787333   -1.979694
     47          1           0       -4.162922   -3.207458   -3.028503
     48          1           0       -2.617064   -2.372306   -2.795644
     49          1           0       -4.441670   -5.218422   -1.863497
     50          1           0       -3.914582   -6.751507    0.015742
     51          1           0       -2.377695   -6.007328    1.819465
     52          1           0       -1.553069   -2.823099    2.694629
     53          1           0       -0.846377   -4.445059    2.727511
     54          1           0       -0.187427   -3.192957    1.649241
     55          1           0        1.869869    0.273781    1.275665
     56          1           0        4.339779    0.358338    1.302565
     57          1           0        6.400555   -0.861997    0.904833
     58          1           0        8.986892   -0.244283    0.152236
     59          1           0        6.360787    1.548299   -2.562024
     60          1           0        4.374574    0.219393   -2.995711
     61          1           0        1.930521    0.226102   -3.023030
 ---------------------------------------------------------------------

 SCF Done:  E(RB3LYP) =  -1958.44114661     A.U. after   16 cycles

 Excitation energies and oscillator strengths:

 Excited state symmetry could not be determined.
 Excited State   1:      Triplet-?Sym    2.2002 eV  563.51 nm  f=0.0000  <S**2>=2.000
     133 ->134         0.63388
     133 ->135        -0.15928
     133 ->138        -0.17482
 This state for optimization and/or second-order correction.
 Total Energy, E(TD-HF/TD-DFT) =  -1958.36028966
 Copying the excited state density for this state as the 1-particle RhoCI density.

 Excited state symmetry could not be determined.
 Excited State   2:      Triplet-?Sym    2.5521 eV  485.82 nm  f=0.0000  <S**2>=2.000
     129 ->135         0.21912
     130 ->135        -0.12654
     133 ->134         0.15710
     133 ->135         0.60404

 Excited state symmetry could not be determined.
 Excited State   3:      Singlet-?Sym    2.6127 eV  474.54 nm  f=0.1043  <S**2>=0.000
     133 ->134         0.70355

 Excited state symmetry could not be determined.
 Excited State   4:      Singlet-?Sym    2.9288 eV  423.33 nm  f=0.0890  <S**2>=0.000
     132 ->134         0.15147
     133 ->135         0.68187

 Alpha  occ. eigenvalues --  -88.92064 -19.18266 -19.18259 -14.57395 -14.42908
 Alpha  occ. eigenvalues --  -14.41096 -14.38300 -14.32701 -14.31979 -10.30479
 Alpha  occ. eigenvalues --  -10.27078 -10.26435 -10.26173 -10.25801 -10.24619
 Alpha  occ. eigenvalues --  -10.24134 -10.23448 -10.22566 -10.22543 -10.22439
 Alpha  occ. eigenvalues --  -10.22388 -10.22282 -10.22192 -10.21978 -10.21914
 Alpha  occ. eigenvalues --  -10.21868 -10.21785 -10.21726 -10.20606 -10.20557
 Alpha  occ. eigenvalues --  -10.19231 -10.19069 -10.18226 -10.18096 -10.18044
 Alpha  occ. eigenvalues --  -10.17987 -10.17753  -7.98171  -5.94611  -5.94274
 Alpha  occ. eigenvalues --   -5.93754  -1.22556  -1.05270  -1.05109  -1.02921
 Alpha  occ. eigenvalues --   -0.94502  -0.91898  -0.91080  -0.89624  -0.86811
 Alpha  occ. eigenvalues --   -0.84582  -0.82621  -0.81841  -0.78002  -0.77977
 Alpha  occ. eigenvalues --   -0.77704  -0.77475  -0.76410  -0.74998  -0.74325
 Alpha  occ. eigenvalues --   -0.73920  -0.69912  -0.68375  -0.67404  -0.67146
 Alpha  occ. eigenvalues --   -0.64885  -0.64492  -0.62771  -0.62050  -0.60701
 Alpha  occ. eigenvalues --   -0.59379  -0.58779  -0.58561  -0.57139  -0.56968
 Alpha  occ. eigenvalues --   -0.56410  -0.54673  -0.53514  -0.53338  -0.51577
 Alpha  occ. eigenvalues --   -0.50864  -0.50566  -0.49676  -0.48219  -0.48064
 Alpha  occ. eigenvalues --   -0.47654  -0.47340  -0.46820  -0.46684  -0.45955
 Alpha  occ. eigenvalues --   -0.45700  -0.45523  -0.45312  -0.44735  -0.44281
 Alpha  occ. eigenvalues --   -0.43699  -0.43273  -0.42100  -0.42008  -0.41595
 Alpha  occ. eigenvalues --   -0.41499  -0.40954  -0.40761  -0.40021  -0.39838
 Alpha  occ. eigenvalues --   -0.39714  -0.39461  -0.38755  -0.37757  -0.37461
 Alpha  occ. eigenvalues --   -0.37125  -0.36991  -0.35354  -0.34943  -0.34666
 Alpha  occ. eigenvalues --   -0.33963  -0.33326  -0.32133  -0.31160  -0.30951
 Alpha  occ. eigenvalues --   -0.30602  -0.29853  -0.29271  -0.28919  -0.28268
 Alpha  occ. eigenvalues --   -0.28063  -0.27393  -0.26719  -0.25185  -0.23473
 Alpha  occ. eigenvalues --   -0.23323  -0.21704  -0.20622
 Alpha virt. eigenvalues --   -0.09565  -0.07419  -0.03148  -0.03005  -0.02638
 Alpha virt. eigenvalues --   -0.00973  -0.00028   0.00479   0.00948   0.01954
 Alpha virt. eigenvalues --    0.03508   0.04491   0.05874   0.07110   0.07411

 Mulliken charges:
               1
     1  C   -0.528743
     2  C    0.355643
     3  N   -0.353449
     4  N   -0.405392
     5  C    0.331985
     6  C    0.108338
     7  C   -0.182686
     8  C   -0.155862
     9  C    0.282701
    10  N    0.377579
    11  O   -0.394153
    12  O   -0.395270
    13  C   -0.160696
    14  C   -0.163339
    15  C   -0.427719
    16  S    0.235357
    17  C    0.323216
    18  N   -0.537831
    19  C    0.078112
    20  C    0.186280
    21  C   -0.536587
    22  C   -0.209441
    23  C   -0.114139
    24  C   -0.208693
    25  C    0.184636
    26  C   -0.528119
    27  C    0.109981
    28  C   -0.172599
    29  C   -0.159491
    30  C    0.325021
    31  N   -0.498907
    32  C    0.011237
    33  C   -0.039446
    34  N   -0.431422
    35  C    0.200939
    36  C   -0.165661
    37  C   -0.200562
    38  H    0.186360
    39  H    0.204906
    40  H    0.167447
    41  H    0.152297
    42  H    0.185612
    43  H    0.185496
    44  H    0.181164
    45  H    0.187782
    46  H    0.163734
    47  H    0.151572
    48  H    0.159633
    49  H    0.119006
    50  H    0.123034
    51  H    0.119772
    52  H    0.161736
    53  H    0.147862
    54  H    0.167369
    55  H    0.169448
    56  H    0.154344
    57  H    0.163305
    58  H    0.143952
    59  H    0.163365
    60  H    0.155563
    61  H    0.144423
 Sum of Mulliken charges =  -0.00000

 Dipole moment (field-independent basis, Debye):
    X=             -3.1753    Y=             -3.4934    Z=             -1.1034  Tot=              4.8481
 Quadrupole moment (field-independent basis, Debye-Ang):
   XX=           -239.7922   YY=           -267.2790   ZZ=           -209.7732
   XY=            -13.3452   XZ=             10.6733   YZ=            -12.9201

 Normal termination of Gaussian 16 at Sat Nov  5 12:30:27 2022.
