 Gaussian 16, Revision B.01,
 Gaussian 16:  ES64L-G16RevB.01 20-Dec-2017

 -----------------------------
 #p b3lyp/6-31g(d) opt SCF=XQC
 -----------------------------

 ------------------------------
 Gaussian input prepared by ASE
 ------------------------------
 Symbolic Z-matrix:
 Charge =  0 Multiplicity = 1

 SCF Done:  E(RB3LYP) =  -2060.99278576     A.U. after   15 cycles
 SCF Done:  E(RB3LYP) =  -2061.00063382     A.U. after   14 cycles
 SCF Done:  E(RB3LYP) =  -2061.00533592     A.U. after   14 cycles
 SCF Done:  E(RB3LYP) =  -2061.00725013     A.U. after   12 cycles
 SCF Done:  E(RB3LYP) =  -2061.00853977     A.U. after   12 cycles
 SCF Done:  E(RB3LYP) =  -2061.00946779     A.U. after   12 cycles
 SCF Done:  E(RB3LYP) =  -2061.01007885     A.U. after   12 cycles
 SCF Done:  E(RB3LYP) =  -2061.01069884     A.U. after   12 cycles
 SCF Done:  E(RB3LYP) =  -2061.01094788     A.U. after   11 cycles
 SCF Done:  E(RB3LYP) =  -2061.01107923     A.U. after   11 cycles
 SCF Done:  E(RB3LYP) =  -2061.01179083     A.U. after   10 cycles
 SCF Done:  E(RB3LYP) =  -2061.01179162     A.U. after    9 cycles
 SCF Done:  E(RB3LYP) =  -2061.01179027     A.U. after   10 cycles
 SCF Done:  E(RB3LYP) =  -2061.01179229     A.U. after   10 cycles
 SCF Done:  E(RB3LYP) =  -2061.01179257     A.U. after    9 cycles
 SCF Done:  E(RB3LYP) =  -2061.01179273     A.U. after    8 cycles
 SCF Done:  E(RB3LYP) =  -2061.01179278     A.U. after    7 cycles
 SCF Done:  E(RB3LYP) =  -2061.01179280     A.U. after    6 cycles
 SCF Done:  E(RB3LYP) =  -2061.01179282     A.U. after    6 cycles
 SCF Done:  E(RB3LYP) =  -2061.01179283     A.U. after    6 cycles
 Optimization completed.
    -- Stationary point found.

                         Standard orientation:
 ---------------------------------------------------------------------
 Center     Atomic      Atomic             Coordinates (Angstroms)
 Number     Number       Type             X           Y           Z
 ---------------------------------------------------------------------
      1          8           0        8.639475   -0.919064   -1.603579
      2          6           0        9.125984   -0.341665   -0.634796
      3          7           0        8.703722    0.904610   -0.250172
      4          6           0        7.697361    1.630064   -1.012976
      5          6           0        6.275949    1.249798   -0.596766
      6          8           0        5.386260    2.043790   -1.359821
      7          6           0        4.023196    1.750963   -1.121346
      8          6           0        3.197634    2.641434   -2.049990
      9          8           0        1.803520    2.422477   -1.891777
     10          6           0        1.191343    3.191789   -0.863884
     11          6           0       -0.265833    2.763451   -0.779902
     12          7           0       -0.357650    1.351954   -0.469092
     13          6           0       -1.330668    0.768159    0.276371
     14          7           0       -2.218224    1.569439    0.900028
     15          6           0       -3.124559    0.903067    1.633225
     16          7           0       -4.046533    1.623573    2.331581
     17          6           0       -4.213827    3.066001    2.263057
     18          6           0       -5.338752    3.518584    1.345234
     19          6           0       -6.457349    4.184581    1.857185
     20          6           0       -7.489754    4.598029    1.010513
     21          6           0       -7.420678    4.350482   -0.359201
     22          6           0       -6.300291    3.686672   -0.851402
     23          9           0       -6.219992    3.447668   -2.178774
     24          6           0       -5.262532    3.267610   -0.031975
     25          7           0       -3.220448   -0.433518    1.760939
     26          6           0       -2.273775   -1.111895    1.088410
     27          7           0       -2.265112   -2.469647    1.180084
     28          6           0       -3.284078   -3.274938    1.839570
     29          6           0       -4.307624   -3.877469    0.892182
     30          6           0       -4.349145   -5.256430    0.677372
     31          6           0       -5.276985   -5.849240   -0.201448
     32          6           0       -6.146133   -4.997915   -0.850113
     33          6           0       -6.112963   -3.618582   -0.642207
     34          6           0       -5.214348   -3.026781    0.218098
     35          8           0       -7.104621   -3.018698   -1.384440
     36          6           0       -7.646518   -4.052439   -2.211297
     37          8           0       -7.155404   -5.309308   -1.731249
     38          7           0       -1.303504   -0.574467    0.326757
     39          6           0       10.221731   -0.959721    0.189403
     40          6           0       10.494927   -0.593508    1.514999
     41          6           0       11.525138   -1.215623    2.220600
     42          6           0       12.292205   -2.208020    1.607928
     43          6           0       12.016500   -2.586891    0.291511
     44          6           0       10.982545   -1.972018   -0.410325
     45          1           0        9.241290    1.408628    0.438384
     46          1           0        7.847515    2.703215   -0.861358
     47          1           0        7.827635    1.408839   -2.076075
     48          1           0        6.112408    0.178848   -0.787440
     49          1           0        6.132412    1.428827    0.482449
     50          1           0        3.763751    1.938596   -0.065840
     51          1           0        3.801999    0.692615   -1.332278
     52          1           0        3.454743    3.697058   -1.879052
     53          1           0        3.440958    2.401061   -3.089671
     54          1           0        1.253890    4.265747   -1.102903
     55          1           0        1.684959    3.025571    0.105052
     56          1           0       -0.762182    2.993888   -1.734750
     57          1           0       -0.777869    3.321665    0.006226
     58          1           0        0.226992    0.719996   -0.998647
     59          1           0       -4.770016    1.066393    2.764709
     60          1           0       -3.258749    3.472002    1.922475
     61          1           0       -4.395495    3.444706    3.276002
     62          1           0       -6.521996    4.382916    2.924389
     63          1           0       -8.354012    5.113720    1.420031
     64          1           0       -8.206246    4.657971   -1.041514
     65          1           0       -4.404860    2.758712   -0.460270
     66          1           0       -1.614819   -2.923967    0.553435
     67          1           0       -2.784464   -4.077388    2.395366
     68          1           0       -3.769618   -2.619663    2.565999
     69          1           0       -3.645147   -5.896380    1.203552
     70          1           0       -5.308913   -6.921446   -0.362334
     71          1           0       -5.199722   -1.954117    0.379946
     72          1           0       -7.317347   -3.903280   -3.249722
     73          1           0       -8.738117   -4.039044   -2.142560
     74          1           0        9.883044    0.150312    2.019108
     75          1           0       11.722162   -0.931298    3.250687
     76          1           0       13.096003   -2.690629    2.157424
     77          1           0       12.606121   -3.364863   -0.185823
     78          1           0       10.741802   -2.260658   -1.428151
 ---------------------------------------------------------------------

 The electronic state is 1-A.
 Alpha  occ. eigenvalues --  -24.69705 -19.18831 -19.18720 -19.15602 -19.15265
 Alpha  occ. eigenvalues --  -19.11130 -14.36378 -14.35038 -14.34537 -14.34454
 Alpha  occ. eigenvalues --  -14.30222 -14.30048 -14.29683 -10.30215 -10.28790
 Alpha  occ. eigenvalues --  -10.28094 -10.27841 -10.27724 -10.26706 -10.24377
 Alpha  occ. eigenvalues --  -10.24307 -10.23796 -10.23388 -10.23269 -10.23250
 Alpha  occ. eigenvalues --  -10.22388 -10.22299 -10.21766 -10.21709 -10.20547
 Alpha  occ. eigenvalues --  -10.20489 -10.20155 -10.20141 -10.20076 -10.19788
 Alpha  occ. eigenvalues --  -10.19752 -10.19557 -10.19281 -10.19125 -10.19111
 Alpha  occ. eigenvalues --  -10.19045 -10.18813 -10.18645 -10.18618  -1.20839
 Alpha  occ. eigenvalues --   -1.12084  -1.04235  -1.03388  -1.03027  -1.02959
 Alpha  occ. eigenvalues --   -1.01355  -0.95220  -0.94944  -0.92250  -0.89589
 Alpha  occ. eigenvalues --   -0.86198  -0.86170  -0.85674  -0.84805  -0.84498
 Alpha  occ. eigenvalues --   -0.78281  -0.77017  -0.76783  -0.76579  -0.75357
 Alpha  occ. eigenvalues --   -0.74923  -0.74733  -0.74505  -0.71248  -0.70281
 Alpha  occ. eigenvalues --   -0.69680  -0.66250  -0.65075  -0.64025  -0.63310
 Alpha  occ. eigenvalues --   -0.62010  -0.61723  -0.61651  -0.61141  -0.60588
 Alpha  occ. eigenvalues --   -0.60191  -0.60039  -0.59098  -0.58215  -0.55914
 Alpha  occ. eigenvalues --   -0.54682  -0.54432  -0.52957  -0.51716  -0.51640
 Alpha  occ. eigenvalues --   -0.51529  -0.51271  -0.50421  -0.50147  -0.49457
 Alpha  occ. eigenvalues --   -0.49350  -0.49051  -0.48473  -0.48149  -0.47941
 Alpha  occ. eigenvalues --   -0.46625  -0.46323  -0.45849  -0.45284  -0.45227
 Alpha  occ. eigenvalues --   -0.45117  -0.44618  -0.44395  -0.44321  -0.43964
 Alpha  occ. eigenvalues --   -0.43583  -0.43495  -0.42927  -0.42757  -0.42454
 Alpha  occ. eigenvalues --   -0.42231  -0.41691  -0.41209  -0.40742  -0.40436
 Alpha  occ. eigenvalues --   -0.40058  -0.39459  -0.38802  -0.38061  -0.37976
 Alpha  occ. eigenvalues --   -0.37766  -0.37642  -0.37570  -0.37137  -0.36756
 Alpha  occ. eigenvalues --   -0.36106  -0.35944  -0.35823  -0.35687  -0.35505
 Alpha  occ. eigenvalues --   -0.35155  -0.34972  -0.34663  -0.34323  -0.33616
 Alpha  occ. eigenvalues --   -0.33458  -0.32795  -0.31867  -0.30607  -0.26535
 Alpha  occ. eigenvalues --   -0.26330  -0.26008  -0.25865  -0.25654  -0.25228
 Alpha  occ. eigenvalues --   -0.24963  -0.24835  -0.24701  -0.24138  -0.23988
 Alpha  occ. eigenvalues --   -0.23005  -0.22149  -0.21677  -0.20131
 Alpha virt. eigenvalues --   -0.03557  -0.01087  -0.00977   0.00202   0.00612
 Alpha virt. eigenvalues --    0.01335   0.02330   0.02819   0.05974   0.06838
 Alpha virt. eigenvalues --    0.08294   0.08971   0.09097   0.09597   0.09767

 Mulliken charges:
               1
     1  O   -0.522834
     2  C    0.555927
     3  N   -0.618791
     4  C   -0.149273
     5  C    0.000922
     6  O   -0.487259
     7  C   -0.023083
     8  C   -0.039714
     9  O   -0.486607
    10  C   -0.031696
    11  C   -0.126536
    12  N   -0.644869
    13  C    0.694794
    14  N   -0.591467
    15  C    0.703280
    16  N   -0.629764
    17  C   -0.219367
    18  C    0.158079
    19  C   -0.190562
    20  C   -0.128183
    21  C   -0.195917
    22  C    0.383257
    23  F   -0.299754
    24  C   -0.248074
    25  N   -0.594319
    26  C    0.707303
    27  N   -0.628799
    28  C   -0.223143
    29  C    0.150102
    30  C   -0.209063
    31  C   -0.182125
    32  C    0.331972
    33  C    0.333581
    34  C   -0.232376
    35  O   -0.530605
    36  C    0.192244
    37  O   -0.531511
    38  N   -0.586917
    39  C    0.073557
    40  C   -0.185392
    41  C   -0.133706
    42  C   -0.120785
    43  C   -0.135674
    44  C   -0.154365
    45  H    0.329230
    46  H    0.149949
    47  H    0.188542
    48  H    0.153833
    49  H    0.115123
    50  H    0.123661
    51  H    0.136428
    52  H    0.134448
    53  H    0.160488
    54  H    0.129403
    55  H    0.134723
    56  H    0.155003
    57  H    0.180811
    58  H    0.342029
    59  H    0.329974
    60  H    0.195988
    61  H    0.149525
    62  H    0.124694
    63  H    0.136604
    64  H    0.144425
    65  H    0.165029
    66  H    0.329900
    67  H    0.147667
    68  H    0.192955
    69  H    0.123203
    70  H    0.142396
    71  H    0.163004
    72  H    0.153533
    73  H    0.163604
    74  H    0.126661
    75  H    0.134957
    76  H    0.136420
    77  H    0.138524
    78  H    0.164778
 Sum of Mulliken charges =  -0.00000

 Dipole moment (field-independent basis, Debye):
    X=              1.9455    Y=              2.2765    Z=              3.8477  Tot=              4.8757
 Quadrupole moment (field-independent basis, Debye-Ang):
   XX=           -202.1127   YY=           -235.4293   ZZ=           -248.1035
   XY=              4.4286   XZ=             21.6859   YZ=              6.8656

 Normal termination of Gaussian 16 at Fri Nov  4 22:34:45 2022.
