 Gaussian 16, Revision B.01,
 Gaussian 16:  ES64L-G16RevB.01 20-Dec-2017

 -------------------------------------------------------------------
 #p b3lyp/6-31g(d) 6D 10F nosymm GFInput td=(50-50,nstate=2) SCF=XQC
 -------------------------------------------------------------------

 ------------------------------
 Gaussian input prepared by ASE
 ------------------------------
 Symbolic Z-matrix:
 Charge =  0 Multiplicity = 1

                          Input orientation:
 ---------------------------------------------------------------------
 Center     Atomic      Atomic             Coordinates (Angstroms)
 Number     Number       Type             X           Y           Z
 ---------------------------------------------------------------------
      1          8           0        8.005304    2.342803    1.540247
      2          6           0        8.601156    1.446257    0.948818
      3          7           0        8.273423    0.126178    1.120351
      4          6           0        7.239834   -0.279305    2.062793
      5          6           0        5.843726   -0.230444    1.440908
      6          8           0        4.929452   -0.688080    2.420141
      7          6           0        3.580047   -0.636781    1.999386
      8          6           0        2.719714   -1.104862    3.173096
      9          8           0        1.335907   -1.087997    2.854781
     10          6           0        0.852713   -2.270853    2.229849
     11          6           0       -0.610214   -2.038847    1.883571
     12          7           0       -0.741222   -0.910383    0.985371
     13          6           0       -1.672072   -0.783947    0.005152
     14          7           0       -2.463010   -1.843953   -0.258583
     15          6           0       -3.332478   -1.632620   -1.259800
     16          7           0       -4.154973   -2.654854   -1.627775
     17          6           0       -4.259218   -3.936092   -0.948923
     18          6           0       -5.437199   -4.039074    0.007341
     19          6           0       -6.474173   -4.947976   -0.228220
     20          6           0       -7.555738   -5.038905    0.652461
     21          6           0       -7.618094   -4.222039    1.779852
     22          6           0       -6.577513   -3.323450    1.998719
     23          9           0       -6.624606   -2.531564    3.092422
     24          6           0       -5.493260   -3.215332    1.140394
     25          7           0       -3.479956   -0.493163   -1.961123
     26          6           0       -2.628641    0.482067   -1.596611
     27          7           0       -2.676224    1.664453   -2.268674
     28          6           0       -3.670761    2.023350   -3.270571
     29          6           0       -4.800326    2.890136   -2.740478
     30          6           0       -4.925562    4.219285   -3.149232
     31          6           0       -5.953457    5.055553   -2.670980
     32          6           0       -6.834609    4.498843   -1.768437
     33          6           0       -6.718267    3.171656   -1.353801
     34          6           0       -5.721115    2.341904   -1.817550
     35          8           0       -7.741369    2.871445   -0.483576
     36          6           0       -8.401540    4.112950   -0.221273
     37          8           0       -7.930429    5.076469   -1.170508
     38          7           0       -1.704129    0.404068   -0.622156
     39          6           0        9.734119    1.735949    0.003074
     40          6           0       10.138824    0.858834   -1.013212
     41          6           0       11.196045    1.197881   -1.857940
     42          6           0       11.859010    2.415363   -1.694148
     43          6           0       11.452010    3.299714   -0.691758
     44          6           0       10.391049    2.965262    0.146220
     45          1           0        8.892186   -0.579832    0.751835
     46          1           0        7.453201   -1.297534    2.401719
     47          1           0        7.266345    0.387028    2.929619
     48          1           0        5.613736    0.801515    1.137262
     49          1           0        5.803426   -0.866821    0.540486
     50          1           0        3.422751   -1.280021    1.117281
     51          1           0        3.291516    0.387917    1.716075
     52          1           0        3.040364   -2.107035    3.493253
     53          1           0        2.859853   -0.422287    4.017119
     54          1           0        0.944895   -3.128960    2.915110
     55          1           0        1.420491   -2.498123    1.315465
     56          1           0       -1.176447   -1.875607    2.813050
     57          1           0       -1.024813   -2.919898    1.389973
     58          1           0       -0.235497   -0.067447    1.220544
     59          1           0       -4.863482   -2.398059   -2.301236
     60          1           0       -3.319337   -4.078085   -0.410900
     61          1           0       -4.333796   -4.726630   -1.705208
     62          1           0       -6.436105   -5.590212   -1.104876
     63          1           0       -8.355662   -5.748161    0.458391
     64          1           0       -8.444722   -4.268474    2.481097
     65          1           0       -4.701206   -2.504644    1.353908
     66          1           0       -2.105236    2.394638   -1.865214
     67          1           0       -3.163106    2.546316   -4.089864
     68          1           0       -4.059611    1.082795   -3.666788
     69          1           0       -4.209428    4.625264   -3.859407
     70          1           0       -6.049944    6.086418   -2.994302
     71          1           0       -5.641739    1.308823   -1.495899
     72          1           0       -8.157449    4.451561    0.795924
     73          1           0       -9.481135    3.983621   -0.340613
     74          1           0        9.609063   -0.075957   -1.178475
     75          1           0       11.495324    0.515295   -2.648665
     76          1           0       12.683923    2.677838   -2.351090
     77          1           0       11.960337    4.251924   -0.566697
     78          1           0       10.049131    3.642945    0.921511
 ---------------------------------------------------------------------

 SCF Done:  E(RB3LYP) =  -2061.01179352     A.U. after   15 cycles

 Excitation energies and oscillator strengths:

 Excited state symmetry could not be determined.
 Excited State   1:      Triplet-?Sym    3.5732 eV  346.99 nm  f=0.0000  <S**2>=2.000
     144 ->165        -0.10440
     154 ->163        -0.28418
     155 ->163         0.10507
     159 ->163        -0.27766
     159 ->165        -0.47303
     159 ->167        -0.22338
 This state for optimization and/or second-order correction.
 Total Energy, E(TD-HF/TD-DFT) =  -2060.88048209
 Copying the excited state density for this state as the 1-particle RhoCI density.

 Excited state symmetry could not be determined.
 Excited State   2:      Triplet-?Sym    3.9399 eV  314.69 nm  f=0.0000  <S**2>=2.000
     159 ->163         0.62007
     159 ->165        -0.27325

 Excited state symmetry could not be determined.
 Excited State   3:      Singlet-?Sym    4.3341 eV  286.07 nm  f=0.0000  <S**2>=0.000
     159 ->160         0.70687

 Excited state symmetry could not be determined.
 Excited State   4:      Singlet-?Sym    4.7019 eV  263.69 nm  f=0.0000  <S**2>=0.000
     158 ->160         0.70548

 Alpha  occ. eigenvalues --  -24.69705 -19.18831 -19.18720 -19.15602 -19.15265
 Alpha  occ. eigenvalues --  -19.11130 -14.36378 -14.35038 -14.34537 -14.34454
 Alpha  occ. eigenvalues --  -14.30222 -14.30048 -14.29683 -10.30215 -10.28790
 Alpha  occ. eigenvalues --  -10.28094 -10.27841 -10.27724 -10.26706 -10.24377
 Alpha  occ. eigenvalues --  -10.24307 -10.23796 -10.23388 -10.23269 -10.23250
 Alpha  occ. eigenvalues --  -10.22388 -10.22299 -10.21766 -10.21709 -10.20547
 Alpha  occ. eigenvalues --  -10.20489 -10.20156 -10.20141 -10.20076 -10.19788
 Alpha  occ. eigenvalues --  -10.19752 -10.19557 -10.19281 -10.19125 -10.19111
 Alpha  occ. eigenvalues --  -10.19045 -10.18813 -10.18646 -10.18618  -1.20839
 Alpha  occ. eigenvalues --   -1.12084  -1.04235  -1.03388  -1.03027  -1.02959
 Alpha  occ. eigenvalues --   -1.01355  -0.95220  -0.94944  -0.92250  -0.89589
 Alpha  occ. eigenvalues --   -0.86198  -0.86170  -0.85674  -0.84805  -0.84498
 Alpha  occ. eigenvalues --   -0.78281  -0.77017  -0.76783  -0.76579  -0.75357
 Alpha  occ. eigenvalues --   -0.74923  -0.74733  -0.74505  -0.71248  -0.70281
 Alpha  occ. eigenvalues --   -0.69680  -0.66250  -0.65075  -0.64025  -0.63310
 Alpha  occ. eigenvalues --   -0.62010  -0.61723  -0.61651  -0.61141  -0.60588
 Alpha  occ. eigenvalues --   -0.60191  -0.60039  -0.59098  -0.58215  -0.55914
 Alpha  occ. eigenvalues --   -0.54682  -0.54432  -0.52957  -0.51716  -0.51640
 Alpha  occ. eigenvalues --   -0.51529  -0.51271  -0.50421  -0.50147  -0.49457
 Alpha  occ. eigenvalues --   -0.49350  -0.49051  -0.48473  -0.48149  -0.47941
 Alpha  occ. eigenvalues --   -0.46625  -0.46323  -0.45849  -0.45284  -0.45227
 Alpha  occ. eigenvalues --   -0.45117  -0.44618  -0.44395  -0.44321  -0.43964
 Alpha  occ. eigenvalues --   -0.43583  -0.43495  -0.42927  -0.42757  -0.42454
 Alpha  occ. eigenvalues --   -0.42231  -0.41691  -0.41209  -0.40742  -0.40436
 Alpha  occ. eigenvalues --   -0.40058  -0.39459  -0.38802  -0.38061  -0.37976
 Alpha  occ. eigenvalues --   -0.37766  -0.37642  -0.37570  -0.37137  -0.36756
 Alpha  occ. eigenvalues --   -0.36106  -0.35944  -0.35823  -0.35687  -0.35505
 Alpha  occ. eigenvalues --   -0.35155  -0.34972  -0.34663  -0.34323  -0.33616
 Alpha  occ. eigenvalues --   -0.33458  -0.32795  -0.31867  -0.30607  -0.26535
 Alpha  occ. eigenvalues --   -0.26330  -0.26008  -0.25865  -0.25654  -0.25228
 Alpha  occ. eigenvalues --   -0.24963  -0.24835  -0.24701  -0.24138  -0.23988
 Alpha  occ. eigenvalues --   -0.23005  -0.22149  -0.21677  -0.20131
 Alpha virt. eigenvalues --   -0.03557  -0.01087  -0.00977   0.00202   0.00612
 Alpha virt. eigenvalues --    0.01335   0.02330   0.02819   0.05974   0.06838
 Alpha virt. eigenvalues --    0.08294   0.08971   0.09097   0.09597   0.09767

 Mulliken charges:
               1
     1  O   -0.522832
     2  C    0.555935
     3  N   -0.618793
     4  C   -0.149273
     5  C    0.000923
     6  O   -0.487260
     7  C   -0.023079
     8  C   -0.039712
     9  O   -0.486608
    10  C   -0.031693
    11  C   -0.126547
    12  N   -0.644876
    13  C    0.694803
    14  N   -0.591463
    15  C    0.703284
    16  N   -0.629763
    17  C   -0.219362
    18  C    0.158075
    19  C   -0.190569
    20  C   -0.128178
    21  C   -0.195916
    22  C    0.383258
    23  F   -0.299756
    24  C   -0.248073
    25  N   -0.594317
    26  C    0.707281
    27  N   -0.628802
    28  C   -0.223137
    29  C    0.150101
    30  C   -0.209069
    31  C   -0.182123
    32  C    0.331974
    33  C    0.333576
    34  C   -0.232365
    35  O   -0.530597
    36  C    0.192235
    37  O   -0.531510
    38  N   -0.586902
    39  C    0.073550
    40  C   -0.185376
    41  C   -0.133720
    42  C   -0.120783
    43  C   -0.135662
    44  C   -0.154381
    45  H    0.329231
    46  H    0.149948
    47  H    0.188542
    48  H    0.153832
    49  H    0.115123
    50  H    0.123659
    51  H    0.136428
    52  H    0.134446
    53  H    0.160488
    54  H    0.129403
    55  H    0.134723
    56  H    0.155004
    57  H    0.180812
    58  H    0.342028
    59  H    0.329973
    60  H    0.195985
    61  H    0.149525
    62  H    0.124695
    63  H    0.136603
    64  H    0.144424
    65  H    0.165028
    66  H    0.329901
    67  H    0.147667
    68  H    0.192955
    69  H    0.123205
    70  H    0.142397
    71  H    0.162995
    72  H    0.153535
    73  H    0.163605
    74  H    0.126659
    75  H    0.134958
    76  H    0.136420
    77  H    0.138522
    78  H    0.164780
 Sum of Mulliken charges =  -0.00000

 Dipole moment (field-independent basis, Debye):
    X=              2.3789    Y=             -3.5447    Z=             -2.3555  Tot=              4.8757
 Quadrupole moment (field-independent basis, Debye-Ang):
   XX=           -200.2442   YY=           -235.3265   ZZ=           -252.9430
   XY=             -8.8435   XZ=            -13.5150   YZ=             -2.9591

 Normal termination of Gaussian 16 at Sat Nov  5 12:22:13 2022.
