 Gaussian 16, Revision B.01,
 Gaussian 16:  ES64L-G16RevB.01 20-Dec-2017

 -----------------------------
 #p b3lyp/6-31g(d) opt SCF=XQC
 -----------------------------

 ------------------------------
 Gaussian input prepared by ASE
 ------------------------------
 Symbolic Z-matrix:
 Charge =  0 Multiplicity = 1

 SCF Done:  E(RB3LYP) =  -1643.50913929     A.U. after   16 cycles
 SCF Done:  E(RB3LYP) =  -1643.51468717     A.U. after   15 cycles
 SCF Done:  E(RB3LYP) =  -1643.51311298     A.U. after   16 cycles
 SCF Done:  E(RB3LYP) =  -1643.51857301     A.U. after   13 cycles
 SCF Done:  E(RB3LYP) =  -1643.51910652     A.U. after   12 cycles
 SCF Done:  E(RB3LYP) =  -1643.51918536     A.U. after   12 cycles
 SCF Done:  E(RB3LYP) =  -1643.51927839     A.U. after   11 cycles
 SCF Done:  E(RB3LYP) =  -1643.51933225     A.U. after   11 cycles
 SCF Done:  E(RB3LYP) =  -1643.51936290     A.U. after   11 cycles
 SCF Done:  E(RB3LYP) =  -1643.51938067     A.U. after   10 cycles
 SCF Done:  E(RB3LYP) =  -1643.51939245     A.U. after   11 cycles
 SCF Done:  E(RB3LYP) =  -1643.51939825     A.U. after    9 cycles
 SCF Done:  E(RB3LYP) =  -1643.51940120     A.U. after    9 cycles
 SCF Done:  E(RB3LYP) =  -1643.51940273     A.U. after    8 cycles
 SCF Done:  E(RB3LYP) =  -1643.51940370     A.U. after    8 cycles
 SCF Done:  E(RB3LYP) =  -1643.51940398     A.U. after    8 cycles
 SCF Done:  E(RB3LYP) =  -1643.51940398     A.U. after    7 cycles
 SCF Done:  E(RB3LYP) =  -1643.51940401     A.U. after    6 cycles
 Optimization completed.
    -- Stationary point found.

                         Standard orientation:
 ---------------------------------------------------------------------
 Center     Atomic      Atomic             Coordinates (Angstroms)
 Number     Number       Type             X           Y           Z
 ---------------------------------------------------------------------
      1          6           0        7.914709   -1.935679    0.283304
      2          8           0        6.576835   -2.382733    0.431358
      3          6           0        5.571946   -1.497192    0.157146
      4          6           0        5.755749   -0.178580   -0.256453
      5          6           0        4.643812    0.634559   -0.508755
      6          6           0        3.349391    0.144844   -0.352015
      7          7           0        2.173422    0.885563   -0.586879
      8          6           0        2.056383    2.179685   -0.989813
      9          8           0        2.982299    2.948921   -1.225611
     10          6           0        0.616076    2.698488   -1.136021
     11          6           0        0.354228    3.868267   -0.192174
     12          8           0       -0.298890    1.596721   -0.873131
     13          6           0       -1.542866    1.663013   -1.386674
     14          8           0       -1.954874    2.573298   -2.071421
     15          6           0       -2.343386    0.438543   -1.017267
     16          6           0       -2.578583    0.115473    0.290911
     17          6           0       -2.055192    0.956319    1.412729
     18          6           0       -0.940311    0.548619    2.161565
     19          6           0       -0.472591    1.328038    3.219340
     20          6           0       -1.115055    2.524943    3.548046
     21          6           0       -2.226124    2.937902    2.811907
     22          6           0       -2.694557    2.156963    1.752924
     23          6           0       -3.417393   -1.033986    0.579690
     24          6           0       -3.734595   -1.437076    1.896377
     25          6           0       -4.538793   -2.543368    2.121563
     26          6           0       -5.058322   -3.282397    1.045754
     27          6           0       -4.766624   -2.898770   -0.253484
     28          6           0       -3.951978   -1.780832   -0.496538
     29          6           0       -3.680532   -1.417567   -1.895912
     30          8           0       -4.119331   -2.047829   -2.855266
     31          7           0       -2.862172   -0.289464   -2.081816
     32          6           0       -2.533215    0.064438   -3.471198
     33          6           0        3.175276   -1.196016    0.071374
     34          8           0        1.869115   -1.596716    0.204754
     35          6           0        1.609950   -2.957319    0.524054
     36          6           0        4.272915   -2.006931    0.321778
     37          1           0        8.545915   -2.786380    0.547124
     38          1           0        8.136842   -1.096545    0.955898
     39          1           0        8.127107   -1.632931   -0.750626
     40          1           0        6.747419    0.236236   -0.390577
     41          1           0        4.775510    1.657865   -0.832489
     42          1           0        1.310694    0.379055   -0.432841
     43          1           0        0.476320    3.012731   -2.174208
     44          1           0       -0.630055    4.299865   -0.388206
     45          1           0        0.400998    3.538304    0.850143
     46          1           0        1.121493    4.628378   -0.359819
     47          1           0       -0.424096   -0.369741    1.894812
     48          1           0        0.397851    1.004075    3.783537
     49          1           0       -0.750201    3.130985    4.372912
     50          1           0       -2.731675    3.867066    3.060813
     51          1           0       -3.563535    2.476883    1.184274
     52          1           0       -3.343830   -0.869792    2.733938
     53          1           0       -4.771039   -2.837237    3.141853
     54          1           0       -5.688758   -4.147138    1.232125
     55          1           0       -5.153793   -3.440395   -1.109778
     56          1           0       -2.997657    1.012600   -3.747054
     57          1           0       -1.449083    0.147172   -3.591718
     58          1           0       -2.914560   -0.738900   -4.097562
     59          1           0        0.523775   -3.062506    0.530080
     60          1           0        2.008109   -3.217748    1.512776
     61          1           0        2.039696   -3.629657   -0.228619
     62          1           0        4.164656   -3.034512    0.645662
 ---------------------------------------------------------------------

 The electronic state is 1-A.
 Alpha  occ. eigenvalues --  -19.21356 -19.19411 -19.17806 -19.15835 -19.11763
 Alpha  occ. eigenvalues --  -19.11411 -14.39799 -14.37169 -10.34149 -10.29294
 Alpha  occ. eigenvalues --  -10.29196 -10.26337 -10.25876 -10.25558 -10.25175
 Alpha  occ. eigenvalues --  -10.24754 -10.24147 -10.22807 -10.21796 -10.21777
 Alpha  occ. eigenvalues --  -10.21574 -10.21132 -10.20622 -10.20467 -10.20111
 Alpha  occ. eigenvalues --  -10.20073 -10.20045 -10.20020 -10.20014 -10.20006
 Alpha  occ. eigenvalues --  -10.20000 -10.19849 -10.18791 -10.18596 -10.18390
 Alpha  occ. eigenvalues --  -10.18303  -1.12356  -1.07763  -1.06353  -1.04352
 Alpha  occ. eigenvalues --   -1.03861  -1.03090  -0.96154  -0.93820  -0.87862
 Alpha  occ. eigenvalues --   -0.86261  -0.84697  -0.82046  -0.79578  -0.77426
 Alpha  occ. eigenvalues --   -0.76272  -0.75620  -0.75463  -0.75304  -0.74754
 Alpha  occ. eigenvalues --   -0.71257  -0.70780  -0.70316  -0.68094  -0.66137
 Alpha  occ. eigenvalues --   -0.63631  -0.62792  -0.61830  -0.61377  -0.60193
 Alpha  occ. eigenvalues --   -0.59114  -0.58522  -0.56636  -0.56102  -0.54972
 Alpha  occ. eigenvalues --   -0.54186  -0.53352  -0.53031  -0.50765  -0.50210
 Alpha  occ. eigenvalues --   -0.49595  -0.48938  -0.48384  -0.48072  -0.47576
 Alpha  occ. eigenvalues --   -0.47451  -0.47232  -0.46790  -0.45971  -0.45863
 Alpha  occ. eigenvalues --   -0.45332  -0.44951  -0.44526  -0.43895  -0.43382
 Alpha  occ. eigenvalues --   -0.43070  -0.42906  -0.42590  -0.42036  -0.41559
 Alpha  occ. eigenvalues --   -0.41280  -0.40937  -0.40646  -0.40203  -0.39866
 Alpha  occ. eigenvalues --   -0.39471  -0.38216  -0.37628  -0.37444  -0.37351
 Alpha  occ. eigenvalues --   -0.36581  -0.36548  -0.36373  -0.35640  -0.35581
 Alpha  occ. eigenvalues --   -0.35073  -0.34769  -0.34322  -0.33550  -0.33149
 Alpha  occ. eigenvalues --   -0.32387  -0.31179  -0.29610  -0.27985  -0.27939
 Alpha  occ. eigenvalues --   -0.26211  -0.25898  -0.25848  -0.25756  -0.25193
 Alpha  occ. eigenvalues --   -0.23580  -0.21456  -0.19730
 Alpha virt. eigenvalues --   -0.05615  -0.03974  -0.01594  -0.01059  -0.00757
 Alpha virt. eigenvalues --    0.00161   0.00963   0.03494   0.05216   0.07039
 Alpha virt. eigenvalues --    0.07394   0.08589   0.09536   0.09865   0.10309

 Mulliken charges:
               1
     1  C   -0.214288
     2  O   -0.514480
     3  C    0.385837
     4  C   -0.216717
     5  C   -0.182374
     6  C    0.309342
     7  N   -0.740387
     8  C    0.591919
     9  O   -0.522062
    10  C    0.055460
    11  C   -0.471665
    12  O   -0.480992
    13  C    0.553099
    14  O   -0.464886
    15  C    0.293300
    16  C   -0.066264
    17  C    0.018454
    18  C   -0.152591
    19  C   -0.137018
    20  C   -0.127190
    21  C   -0.132620
    22  C   -0.152646
    23  C    0.165124
    24  C   -0.205900
    25  C   -0.123087
    26  C   -0.134603
    27  C   -0.173947
    28  C   -0.009274
    29  C    0.580287
    30  O   -0.528766
    31  N   -0.575097
    32  C   -0.348104
    33  C    0.340908
    34  O   -0.543414
    35  C   -0.218327
    36  C   -0.262963
    37  H    0.168311
    38  H    0.152815
    39  H    0.153515
    40  H    0.132745
    41  H    0.187760
    42  H    0.377258
    43  H    0.189773
    44  H    0.174081
    45  H    0.170419
    46  H    0.184110
    47  H    0.142125
    48  H    0.138778
    49  H    0.136560
    50  H    0.138112
    51  H    0.144649
    52  H    0.151539
    53  H    0.137950
    54  H    0.138627
    55  H    0.169240
    56  H    0.197786
    57  H    0.163842
    58  H    0.215473
    59  H    0.176425
    60  H    0.158625
    61  H    0.162934
    62  H    0.142480
 Sum of Mulliken charges =  -0.00000

 Dipole moment (field-independent basis, Debye):
    X=              1.5104    Y=             -1.9278    Z=              4.2900  Tot=              4.9399
 Quadrupole moment (field-independent basis, Debye-Ang):
   XX=           -197.5539   YY=           -203.7221   ZZ=           -204.6828
   XY=            -10.9824   XZ=            -10.7070   YZ=             -0.7396

 Normal termination of Gaussian 16 at Fri Nov  4 21:43:20 2022.
