 Gaussian 16, Revision B.01,
 Gaussian 16:  ES64L-G16RevB.01 20-Dec-2017

 -------------------------------------------------------------------
 #p b3lyp/6-31g(d) 6D 10F nosymm GFInput td=(50-50,nstate=2) SCF=XQC
 -------------------------------------------------------------------

 ------------------------------
 Gaussian input prepared by ASE
 ------------------------------
 Symbolic Z-matrix:
 Charge =  0 Multiplicity = 1

                          Input orientation:
 ---------------------------------------------------------------------
 Center     Atomic      Atomic             Coordinates (Angstroms)
 Number     Number       Type             X           Y           Z
 ---------------------------------------------------------------------
      1          6           0        7.177195   -1.254260   -3.323656
      2          8           0        5.976614   -0.499402   -3.345588
      3          6           0        5.062460   -0.721733   -2.353585
      4          6           0        5.213206   -1.639619   -1.315151
      5          6           0        4.203983   -1.777148   -0.354001
      6          6           0        3.044866   -1.007638   -0.418940
      7          7           0        1.981088   -1.073264    0.503447
      8          6           0        1.860525   -1.871216    1.598683
      9          8           0        2.681866   -2.696554    1.984509
     10          6           0        0.553725   -1.709760    2.393179
     11          6           0       -0.238869   -3.013182    2.419246
     12          8           0       -0.222065   -0.635456    1.789703
     13          6           0       -1.135936   -0.002051    2.550777
     14          8           0       -1.350279   -0.252275    3.716407
     15          6           0       -1.835804    1.078396    1.763731
     16          6           0       -2.544955    0.782397    0.632135
     17          6           0       -2.659407   -0.620025    0.122672
     18          6           0       -1.911067   -1.049605   -0.984297
     19          6           0       -2.040265   -2.352178   -1.465708
     20          6           0       -2.923177   -3.244269   -0.850869
     21          6           0       -3.674110   -2.826415    0.248408
     22          6           0       -3.544835   -1.521788    0.730048
     23          6           0       -3.256332    1.855529   -0.039119
     24          6           0       -4.031406    1.648165   -1.202314
     25          6           0       -4.691359    2.705587   -1.808650
     26          6           0       -4.606929    4.002807   -1.276172
     27          6           0       -3.859272    4.226191   -0.131015
     28          6           0       -3.184153    3.164487    0.493089
     29          6           0       -2.410221    3.460020    1.708648
     30          8           0       -2.316984    4.585212    2.193810
     31          7           0       -1.756941    2.361055    2.293791
     32          6           0       -0.934157    2.639037    3.481054
     33          6           0        2.901901   -0.080119   -1.480426
     34          8           0        1.729366    0.633678   -1.472403
     35          6           0        1.556003    1.657505   -2.443012
     36          6           0        3.898751    0.061570   -2.435052
     37          1           0        7.754952   -0.923650   -4.188877
     38          1           0        6.978886   -2.330905   -3.409562
     39          1           0        7.754804   -1.067535   -2.408625
     40          1           0        6.101453   -2.254020   -1.231490
     41          1           0        4.312284   -2.484289    0.456877
     42          1           0        1.213385   -0.440446    0.317025
     43          1           0        0.815033   -1.406619    3.410989
     44          1           0       -1.102871   -2.917686    3.080987
     45          1           0       -0.583230   -3.273138    1.413598
     46          1           0        0.412884   -3.808747    2.789194
     47          1           0       -1.206679   -0.366203   -1.451006
     48          1           0       -1.446703   -2.673091   -2.317552
     49          1           0       -3.023571   -4.258667   -1.227336
     50          1           0       -4.363028   -3.513511    0.732322
     51          1           0       -4.134662   -1.195986    1.582570
     52          1           0       -4.108317    0.649500   -1.617970
     53          1           0       -5.282392    2.525364   -2.702792
     54          1           0       -5.128730    4.824950   -1.757592
     55          1           0       -3.774972    5.212191    0.313053
     56          1           0       -1.370825    2.177824    4.368419
     57          1           0        0.078427    2.251215    3.336210
     58          1           0       -0.903177    3.720393    3.594275
     59          1           0        0.592317    2.119750   -2.222752
     60          1           0        1.539846    1.244752   -3.459526
     61          1           0        2.349801    2.411033   -2.370083
     62          1           0        3.812054    0.763836   -3.254716
 ---------------------------------------------------------------------

 SCF Done:  E(RB3LYP) =  -1643.51940368     A.U. after   16 cycles

 Excitation energies and oscillator strengths:

 Excited state symmetry could not be determined.
 Excited State   1:      Triplet-?Sym    2.6435 eV  469.02 nm  f=0.0000  <S**2>=2.000
     127 ->129         0.66655
 This state for optimization and/or second-order correction.
 Total Energy, E(TD-HF/TD-DFT) =  -1643.42225833
 Copying the excited state density for this state as the 1-particle RhoCI density.

 Excited state symmetry could not be determined.
 Excited State   2:      Triplet-?Sym    3.3221 eV  373.22 nm  f=0.0000  <S**2>=2.000
     127 ->129        -0.11234
     127 ->130         0.68000

 Excited state symmetry could not be determined.
 Excited State   3:      Singlet-?Sym    3.4152 eV  363.04 nm  f=0.0013  <S**2>=0.000
     128 ->129         0.70590

 Excited state symmetry could not be determined.
 Excited State   4:      Singlet-?Sym    3.8313 eV  323.61 nm  f=0.1847  <S**2>=0.000
     127 ->129         0.68871

 Alpha  occ. eigenvalues --  -19.21356 -19.19411 -19.17806 -19.15835 -19.11763
 Alpha  occ. eigenvalues --  -19.11411 -14.39799 -14.37169 -10.34149 -10.29294
 Alpha  occ. eigenvalues --  -10.29196 -10.26337 -10.25876 -10.25558 -10.25175
 Alpha  occ. eigenvalues --  -10.24754 -10.24147 -10.22807 -10.21796 -10.21777
 Alpha  occ. eigenvalues --  -10.21574 -10.21132 -10.20623 -10.20467 -10.20111
 Alpha  occ. eigenvalues --  -10.20073 -10.20045 -10.20020 -10.20014 -10.20005
 Alpha  occ. eigenvalues --  -10.19999 -10.19849 -10.18791 -10.18596 -10.18390
 Alpha  occ. eigenvalues --  -10.18303  -1.12356  -1.07763  -1.06353  -1.04352
 Alpha  occ. eigenvalues --   -1.03861  -1.03090  -0.96154  -0.93820  -0.87862
 Alpha  occ. eigenvalues --   -0.86261  -0.84697  -0.82046  -0.79578  -0.77427
 Alpha  occ. eigenvalues --   -0.76272  -0.75620  -0.75463  -0.75304  -0.74754
 Alpha  occ. eigenvalues --   -0.71257  -0.70780  -0.70316  -0.68094  -0.66137
 Alpha  occ. eigenvalues --   -0.63631  -0.62792  -0.61830  -0.61377  -0.60193
 Alpha  occ. eigenvalues --   -0.59114  -0.58522  -0.56636  -0.56102  -0.54972
 Alpha  occ. eigenvalues --   -0.54187  -0.53351  -0.53031  -0.50765  -0.50210
 Alpha  occ. eigenvalues --   -0.49595  -0.48938  -0.48384  -0.48072  -0.47576
 Alpha  occ. eigenvalues --   -0.47451  -0.47232  -0.46790  -0.45971  -0.45863
 Alpha  occ. eigenvalues --   -0.45332  -0.44951  -0.44526  -0.43895  -0.43382
 Alpha  occ. eigenvalues --   -0.43070  -0.42906  -0.42590  -0.42036  -0.41559
 Alpha  occ. eigenvalues --   -0.41280  -0.40937  -0.40646  -0.40203  -0.39866
 Alpha  occ. eigenvalues --   -0.39471  -0.38216  -0.37628  -0.37444  -0.37351
 Alpha  occ. eigenvalues --   -0.36581  -0.36548  -0.36373  -0.35640  -0.35581
 Alpha  occ. eigenvalues --   -0.35073  -0.34769  -0.34322  -0.33550  -0.33149
 Alpha  occ. eigenvalues --   -0.32387  -0.31179  -0.29610  -0.27985  -0.27939
 Alpha  occ. eigenvalues --   -0.26211  -0.25898  -0.25848  -0.25756  -0.25193
 Alpha  occ. eigenvalues --   -0.23580  -0.21456  -0.19730
 Alpha virt. eigenvalues --   -0.05615  -0.03974  -0.01594  -0.01059  -0.00757
 Alpha virt. eigenvalues --    0.00161   0.00963   0.03494   0.05216   0.07039
 Alpha virt. eigenvalues --    0.07394   0.08589   0.09536   0.09865   0.10309

 Mulliken charges:
               1
     1  C   -0.214292
     2  O   -0.514475
     3  C    0.385823
     4  C   -0.216712
     5  C   -0.182374
     6  C    0.309347
     7  N   -0.740421
     8  C    0.591970
     9  O   -0.522067
    10  C    0.055426
    11  C   -0.471660
    12  O   -0.480993
    13  C    0.553130
    14  O   -0.464893
    15  C    0.293197
    16  C   -0.066206
    17  C    0.018549
    18  C   -0.152635
    19  C   -0.137011
    20  C   -0.127197
    21  C   -0.132610
    22  C   -0.152676
    23  C    0.165083
    24  C   -0.205896
    25  C   -0.123090
    26  C   -0.134602
    27  C   -0.173940
    28  C   -0.009252
    29  C    0.580274
    30  O   -0.528770
    31  N   -0.575054
    32  C   -0.348111
    33  C    0.340894
    34  O   -0.543406
    35  C   -0.218328
    36  C   -0.262955
    37  H    0.168311
    38  H    0.152816
    39  H    0.153515
    40  H    0.132745
    41  H    0.187763
    42  H    0.377266
    43  H    0.189774
    44  H    0.174084
    45  H    0.170411
    46  H    0.184115
    47  H    0.142116
    48  H    0.138779
    49  H    0.136559
    50  H    0.138110
    51  H    0.144648
    52  H    0.151538
    53  H    0.137950
    54  H    0.138628
    55  H    0.169240
    56  H    0.197788
    57  H    0.163842
    58  H    0.215474
    59  H    0.176420
    60  H    0.158626
    61  H    0.162936
    62  H    0.142481
 Sum of Mulliken charges =  -0.00000

 Dipole moment (field-independent basis, Debye):
    X=             -0.1526    Y=             -1.0766    Z=             -4.8187  Tot=              4.9398
 Quadrupole moment (field-independent basis, Debye-Ang):
   XX=           -188.1847   YY=           -213.8286   ZZ=           -205.2061
   XY=              8.1191   XZ=             -1.1923   YZ=             -5.0178

 Normal termination of Gaussian 16 at Sat Nov  5 12:23:10 2022.
