 Gaussian 16, Revision B.01,
 Gaussian 16:  ES64L-G16RevB.01 20-Dec-2017

 -------------------------------------------------------------------
 #p b3lyp/6-31g(d) 6D 10F nosymm GFInput td=(50-50,nstate=2) SCF=XQC
 -------------------------------------------------------------------

 ------------------------------
 Gaussian input prepared by ASE
 ------------------------------
 Symbolic Z-matrix:
 Charge =  0 Multiplicity = 1

                          Input orientation:
 ---------------------------------------------------------------------
 Center     Atomic      Atomic             Coordinates (Angstroms)
 Number     Number       Type             X           Y           Z
 ---------------------------------------------------------------------
      1          6           0        8.862518    2.494151   -1.309000
      2          6           0        8.083139    1.365125   -0.657018
      3          8           0        6.916294    1.137375   -1.444627
      4          6           0        6.043797    0.159707   -1.058530
      5          6           0        4.921532   -0.018049   -1.878502
      6          6           0        3.976480   -0.989701   -1.567946
      7          6           0        4.109802   -1.812784   -0.438967
      8          6           0        3.074472   -2.866580   -0.096251
      9          6           0        2.255929   -2.564758    1.179047
     10          6           0        1.397555   -1.287610    1.134682
     11          6           0        0.354452   -1.331678   -0.006964
     12          6           0       -0.831496   -0.394292    0.241074
     13          7           0       -1.540450   -0.780367    1.466537
     14          6           0       -2.834149   -0.418302    1.751733
     15          8           0       -3.381311   -0.747362    2.803111
     16          6           0       -3.568374    0.417759    0.701447
     17          6           0       -4.957054    0.867710    1.188409
     18          6           0       -5.706682    1.662709    0.157033
     19          6           0       -5.919919    3.018012    0.159905
     20          7           0       -6.626224    3.395239   -0.970027
     21          6           0       -6.894833    2.275591   -1.729312
     22          6           0       -7.582884    2.141146   -2.939817
     23          6           0       -7.700979    0.862912   -3.473752
     24          6           0       -7.150115   -0.256355   -2.816466
     25          6           0       -6.467643   -0.117311   -1.614226
     26          6           0       -6.326347    1.162551   -1.048716
     27          6           0       -0.773409   -1.504245    2.489836
     28          6           0        0.683480   -1.036428    2.492668
     29          6           0        5.240222   -1.623282    0.363430
     30          6           0        6.202111   -0.653585    0.070596
     31          1           0        9.149690    2.224479   -2.330130
     32          1           0        8.258190    3.405745   -1.350454
     33          1           0        9.771745    2.704868   -0.735669
     34          1           0        7.795163    1.630393    0.370665
     35          1           0        8.687854    0.447813   -0.610111
     36          1           0        4.813805    0.613630   -2.754979
     37          1           0        3.118391   -1.118464   -2.224419
     38          1           0        2.397260   -3.001033   -0.948465
     39          1           0        3.572858   -3.835074    0.047007
     40          1           0        2.947857   -2.488793    2.029116
     41          1           0        1.606335   -3.427737    1.389063
     42          1           0        2.070968   -0.441777    0.944945
     43          1           0        0.817494   -1.062665   -0.962656
     44          1           0       -0.032320   -2.353777   -0.122179
     45          1           0       -0.473869    0.646584    0.303686
     46          1           0       -1.517598   -0.443815   -0.609198
     47          1           0       -2.966486    1.295273    0.430505
     48          1           0       -3.670033   -0.165141   -0.224352
     49          1           0       -4.837383    1.456381    2.104268
     50          1           0       -5.528197   -0.019960    1.483036
     51          1           0       -5.622171    3.758026    0.891002
     52          1           0       -6.934323    4.331561   -1.178951
     53          1           0       -8.011484    3.003176   -3.445079
     54          1           0       -8.230042    0.724293   -4.412765
     55          1           0       -7.265408   -1.242207   -3.258865
     56          1           0       -6.055199   -0.989704   -1.113209
     57          1           0       -1.259568   -1.315596    3.448229
     58          1           0       -0.830998   -2.588606    2.311779
     59          1           0        0.698461    0.034331    2.731843
     60          1           0        1.219722   -1.542205    3.305127
     61          1           0        5.385495   -2.250734    1.240667
     62          1           0        7.063877   -0.546565    0.719530
 ---------------------------------------------------------------------

 SCF Done:  E(RB3LYP) =  -1270.01477709     A.U. after   15 cycles

 Excitation energies and oscillator strengths:

 Excited state symmetry could not be determined.
 Excited State   1:      Triplet-?Sym    3.2132 eV  385.86 nm  f=0.0000  <S**2>=2.000
     103 ->111         0.11518
     103 ->116         0.10196
     107 ->113         0.15108
     109 ->111         0.66285
 This state for optimization and/or second-order correction.
 Total Energy, E(TD-HF/TD-DFT) =  -1269.89669581
 Copying the excited state density for this state as the 1-particle RhoCI density.

 Excited state symmetry could not be determined.
 Excited State   2:      Triplet-?Sym    3.6602 eV  338.73 nm  f=0.0000  <S**2>=2.000
     104 ->110        -0.38745
     108 ->110         0.33393
     108 ->112         0.47493

 Excited state symmetry could not be determined.
 Excited State   3:      Singlet-?Sym    4.7160 eV  262.90 nm  f=0.0657  <S**2>=0.000
     107 ->111        -0.12995
     107 ->113         0.13488
     109 ->111         0.66526

 Excited state symmetry could not be determined.
 Excited State   4:      Singlet-?Sym    4.9371 eV  251.13 nm  f=0.0001  <S**2>=0.000
     109 ->110         0.70591

 Alpha  occ. eigenvalues --  -19.17396 -19.09417 -14.37147 -14.34879 -10.26840
 Alpha  occ. eigenvalues --  -10.24523 -10.24459 -10.22265 -10.21012 -10.20913
 Alpha  occ. eigenvalues --  -10.20718 -10.18946 -10.18918 -10.18848 -10.18803
 Alpha  occ. eigenvalues --  -10.18758 -10.18728 -10.18709 -10.18601 -10.18460
 Alpha  occ. eigenvalues --  -10.18442 -10.18296 -10.18281 -10.18151 -10.17660
 Alpha  occ. eigenvalues --  -10.17654 -10.17631 -10.17340 -10.17166 -10.17124
 Alpha  occ. eigenvalues --   -1.06054  -1.01421  -0.96920  -0.92311  -0.85276
 Alpha  occ. eigenvalues --   -0.82854  -0.81710  -0.79662  -0.78407  -0.76259
 Alpha  occ. eigenvalues --   -0.75914  -0.74695  -0.74357  -0.72531  -0.71576
 Alpha  occ. eigenvalues --   -0.70696  -0.67270  -0.64865  -0.63996  -0.63355
 Alpha  occ. eigenvalues --   -0.61458  -0.61113  -0.59499  -0.58296  -0.57365
 Alpha  occ. eigenvalues --   -0.55833  -0.54451  -0.53584  -0.52912  -0.52446
 Alpha  occ. eigenvalues --   -0.49576  -0.48492  -0.48203  -0.48088  -0.47665
 Alpha  occ. eigenvalues --   -0.46569  -0.46473  -0.45461  -0.45197  -0.44478
 Alpha  occ. eigenvalues --   -0.43885  -0.42582  -0.42133  -0.41919  -0.41859
 Alpha  occ. eigenvalues --   -0.41420  -0.41084  -0.40580  -0.40219  -0.39636
 Alpha  occ. eigenvalues --   -0.39596  -0.39465  -0.38831  -0.38583  -0.38205
 Alpha  occ. eigenvalues --   -0.36959  -0.36843  -0.36110  -0.35805  -0.35678
 Alpha  occ. eigenvalues --   -0.35468  -0.34705  -0.34415  -0.33829  -0.33075
 Alpha  occ. eigenvalues --   -0.32381  -0.32284  -0.31915  -0.31646  -0.31455
 Alpha  occ. eigenvalues --   -0.31041  -0.30184  -0.26320  -0.24923  -0.23322
 Alpha  occ. eigenvalues --   -0.22365  -0.21292  -0.21257  -0.19223
 Alpha virt. eigenvalues --   -0.00175  -0.00100   0.01403   0.03375   0.04301
 Alpha virt. eigenvalues --    0.07158   0.07715   0.08325   0.08991   0.09594
 Alpha virt. eigenvalues --    0.10036   0.10296   0.10806   0.11582   0.12307

 Mulliken charges:
               1
     1  C   -0.456682
     2  C   -0.028184
     3  O   -0.519197
     4  C    0.377820
     5  C   -0.173714
     6  C   -0.197807
     7  C    0.180252
     8  C   -0.357667
     9  C   -0.269493
    10  C   -0.064193
    11  C   -0.299970
    12  C   -0.132020
    13  N   -0.443325
    14  C    0.604649
    15  O   -0.528783
    16  C   -0.376452
    17  C   -0.338856
    18  C    0.073330
    19  C   -0.008903
    20  N   -0.691163
    21  C    0.312524
    22  C   -0.163630
    23  C   -0.151762
    24  C   -0.140994
    25  C   -0.213224
    26  C    0.079777
    27  C   -0.136256
    28  C   -0.298115
    29  C   -0.195493
    30  C   -0.192940
    31  H    0.163795
    32  H    0.163336
    33  H    0.148225
    34  H    0.139534
    35  H    0.140145
    36  H    0.135064
    37  H    0.123030
    38  H    0.142045
    39  H    0.145304
    40  H    0.133818
    41  H    0.130402
    42  H    0.138403
    43  H    0.146663
    44  H    0.144793
    45  H    0.143327
    46  H    0.155273
    47  H    0.155990
    48  H    0.166716
    49  H    0.151094
    50  H    0.165322
    51  H    0.144863
    52  H    0.324382
    53  H    0.118204
    54  H    0.120411
    55  H    0.118168
    56  H    0.124798
    57  H    0.184456
    58  H    0.142625
    59  H    0.143800
    60  H    0.140764
    61  H    0.124029
    62  H    0.131694
 Sum of Mulliken charges =  -0.00000

 Dipole moment (field-independent basis, Debye):
    X=              3.9486    Y=              2.5510    Z=             -1.3639  Tot=              4.8948
 Quadrupole moment (field-independent basis, Debye-Ang):
   XX=           -168.8085   YY=           -158.5690   ZZ=           -185.8336
   XY=            -15.4442   XZ=             20.2784   YZ=              0.2166

 Normal termination of Gaussian 16 at Sat Nov  5 12:18:30 2022.
