 Gaussian 16, Revision B.01,
 Gaussian 16:  ES64L-G16RevB.01 20-Dec-2017

 -----------------------------
 #p b3lyp/6-31g(d) opt SCF=XQC
 -----------------------------

 ------------------------------
 Gaussian input prepared by ASE
 ------------------------------
 Symbolic Z-matrix:
 Charge =  0 Multiplicity = 1

 SCF Done:  E(RB3LYP) =  -1270.00756109     A.U. after   15 cycles
 SCF Done:  E(RB3LYP) =  -1270.01428269     A.U. after   12 cycles
 SCF Done:  E(RB3LYP) =  -1270.01467770     A.U. after   11 cycles
 SCF Done:  E(RB3LYP) =  -1270.01473357     A.U. after   11 cycles
 SCF Done:  E(RB3LYP) =  -1270.01475468     A.U. after   10 cycles
 SCF Done:  E(RB3LYP) =  -1270.01476782     A.U. after    9 cycles
 SCF Done:  E(RB3LYP) =  -1270.01477700     A.U. after   10 cycles
 SCF Done:  E(RB3LYP) =  -1270.01477970     A.U. after    9 cycles
 SCF Done:  E(RB3LYP) =  -1270.01478233     A.U. after    9 cycles
 SCF Done:  E(RB3LYP) =  -1270.01478446     A.U. after   10 cycles
 SCF Done:  E(RB3LYP) =  -1270.01478515     A.U. after    9 cycles
 SCF Done:  E(RB3LYP) =  -1270.01478546     A.U. after    9 cycles
 SCF Done:  E(RB3LYP) =  -1270.01478552     A.U. after    7 cycles
 SCF Done:  E(RB3LYP) =  -1270.01478555     A.U. after    7 cycles
 SCF Done:  E(RB3LYP) =  -1270.01478556     A.U. after    6 cycles
 Optimization completed.
    -- Stationary point found.

                         Standard orientation:
 ---------------------------------------------------------------------
 Center     Atomic      Atomic             Coordinates (Angstroms)
 Number     Number       Type             X           Y           Z
 ---------------------------------------------------------------------
      1          6           0       -8.878882    3.360040   -1.526367
      2          6           0       -8.249196    2.048789   -1.088955
      3          8           0       -7.084262    2.363680   -0.329023
      4          6           0       -6.335908    1.340572    0.180265
      5          6           0       -5.208729    1.717111    0.922637
      6          6           0       -4.384789    0.746663    1.482128
      7          6           0       -4.647463   -0.622969    1.324193
      8          6           0       -3.743772   -1.680857    1.927571
      9          6           0       -2.946558   -2.504427    0.891386
     10          6           0       -1.956167   -1.706699    0.023840
     11          6           0       -0.881269   -0.995401    0.879416
     12          6           0        0.387418   -0.672664    0.083827
     13          7           0        1.004469   -1.906435   -0.416660
     14          6           0        2.317629   -2.004892   -0.806535
     15          8           0        2.786563   -3.055882   -1.240795
     16          6           0        3.175771   -0.744537   -0.678926
     17          6           0        4.585027   -0.943143   -1.264225
     18          6           0        5.453392    0.274359   -1.118174
     19          6           0        5.809296    1.153299   -2.109699
     20          7           0        6.593910    2.169873   -1.591172
     21          6           0        6.770423    1.959332   -0.239583
     22          6           0        7.485529    2.696677    0.710026
     23          6           0        7.487107    2.228863    2.019249
     24          6           0        6.795887    1.052393    2.374730
     25          6           0        6.087126    0.323667    1.427576
     26          6           0        6.061475    0.771520    0.094691
     27          6           0        0.126670   -3.068886   -0.610745
     28          6           0       -1.271264   -2.614751   -1.036100
     29          6           0       -5.780831   -0.977879    0.584520
     30          6           0       -6.622378   -0.020166    0.013662
     31          1           0       -9.154306    3.964232   -0.656314
     32          1           0       -8.179900    3.937505   -2.139468
     33          1           0       -9.781557    3.166676   -2.115934
     34          1           0       -7.973689    1.436739   -1.960115
     35          1           0       -8.949377    1.463523   -0.475316
     36          1           0       -5.001386    2.775127    1.050879
     37          1           0       -3.521066    1.061157    2.064306
     38          1           0       -3.052979   -1.207415    2.635822
     39          1           0       -4.347388   -2.382020    2.519948
     40          1           0       -3.658113   -3.013757    0.226989
     41          1           0       -2.400831   -3.298809    1.422376
     42          1           0       -2.528152   -0.936362   -0.509389
     43          1           0       -1.276624   -0.063510    1.298220
     44          1           0       -0.601315   -1.629067    1.732437
     45          1           0        0.140408    0.009509   -0.746153
     46          1           0        1.096005   -0.145001    0.728521
     47          1           0        2.681294    0.099838   -1.177154
     48          1           0        3.249778   -0.458015    0.379203
     49          1           0        4.494113   -1.216682   -2.320901
     50          1           0        5.046981   -1.808740   -0.776058
     51          1           0        5.564521    1.134851   -3.163512
     52          1           0        7.007516    2.917094   -2.125837
     53          1           0        8.022162    3.601621    0.435829
     54          1           0        8.033535    2.778448    2.780984
     55          1           0        6.822317    0.711807    3.406338
     56          1           0        5.565603   -0.586641    1.713144
     57          1           0        0.593565   -3.700396   -1.368149
     58          1           0        0.075298   -3.664811    0.312886
     59          1           0       -1.181312   -2.077315   -1.988479
     60          1           0       -1.888575   -3.499018   -1.237231
     61          1           0       -6.025059   -2.029912    0.450636
     62          1           0       -7.491781   -0.343194   -0.547587
 ---------------------------------------------------------------------

 The electronic state is 1-A.
 Alpha  occ. eigenvalues --  -19.17396 -19.09417 -14.37147 -14.34879 -10.26840
 Alpha  occ. eigenvalues --  -10.24523 -10.24459 -10.22265 -10.21012 -10.20913
 Alpha  occ. eigenvalues --  -10.20718 -10.18946 -10.18918 -10.18848 -10.18803
 Alpha  occ. eigenvalues --  -10.18758 -10.18728 -10.18709 -10.18601 -10.18460
 Alpha  occ. eigenvalues --  -10.18441 -10.18296 -10.18281 -10.18151 -10.17660
 Alpha  occ. eigenvalues --  -10.17654 -10.17631 -10.17340 -10.17166 -10.17124
 Alpha  occ. eigenvalues --   -1.06054  -1.01421  -0.96920  -0.92311  -0.85276
 Alpha  occ. eigenvalues --   -0.82854  -0.81710  -0.79662  -0.78407  -0.76259
 Alpha  occ. eigenvalues --   -0.75914  -0.74695  -0.74357  -0.72531  -0.71576
 Alpha  occ. eigenvalues --   -0.70696  -0.67270  -0.64865  -0.63996  -0.63355
 Alpha  occ. eigenvalues --   -0.61458  -0.61113  -0.59499  -0.58296  -0.57365
 Alpha  occ. eigenvalues --   -0.55833  -0.54451  -0.53584  -0.52912  -0.52446
 Alpha  occ. eigenvalues --   -0.49576  -0.48492  -0.48203  -0.48088  -0.47665
 Alpha  occ. eigenvalues --   -0.46569  -0.46473  -0.45461  -0.45197  -0.44478
 Alpha  occ. eigenvalues --   -0.43885  -0.42582  -0.42133  -0.41919  -0.41859
 Alpha  occ. eigenvalues --   -0.41420  -0.41084  -0.40580  -0.40219  -0.39636
 Alpha  occ. eigenvalues --   -0.39596  -0.39465  -0.38831  -0.38583  -0.38205
 Alpha  occ. eigenvalues --   -0.36959  -0.36843  -0.36110  -0.35805  -0.35678
 Alpha  occ. eigenvalues --   -0.35468  -0.34705  -0.34415  -0.33829  -0.33075
 Alpha  occ. eigenvalues --   -0.32381  -0.32284  -0.31915  -0.31646  -0.31455
 Alpha  occ. eigenvalues --   -0.31041  -0.30184  -0.26321  -0.24923  -0.23322
 Alpha  occ. eigenvalues --   -0.22365  -0.21292  -0.21257  -0.19223
 Alpha virt. eigenvalues --   -0.00175  -0.00100   0.01403   0.03375   0.04301
 Alpha virt. eigenvalues --    0.07158   0.07715   0.08325   0.08991   0.09594
 Alpha virt. eigenvalues --    0.10036   0.10296   0.10806   0.11582   0.12307

 Mulliken charges:
               1
     1  C   -0.456684
     2  C   -0.028180
     3  O   -0.519201
     4  C    0.377838
     5  C   -0.173725
     6  C   -0.197806
     7  C    0.180268
     8  C   -0.357706
     9  C   -0.269482
    10  C   -0.064175
    11  C   -0.299963
    12  C   -0.132052
    13  N   -0.443302
    14  C    0.604635
    15  O   -0.528777
    16  C   -0.376444
    17  C   -0.338842
    18  C    0.073311
    19  C   -0.008904
    20  N   -0.691157
    21  C    0.312529
    22  C   -0.163634
    23  C   -0.151762
    24  C   -0.140993
    25  C   -0.213222
    26  C    0.079777
    27  C   -0.136287
    28  C   -0.298106
    29  C   -0.195501
    30  C   -0.192941
    31  H    0.163795
    32  H    0.163337
    33  H    0.148225
    34  H    0.139532
    35  H    0.140144
    36  H    0.135064
    37  H    0.123031
    38  H    0.142050
    39  H    0.145307
    40  H    0.133817
    41  H    0.130403
    42  H    0.138401
    43  H    0.146661
    44  H    0.144794
    45  H    0.143334
    46  H    0.155277
    47  H    0.155989
    48  H    0.166714
    49  H    0.151093
    50  H    0.165319
    51  H    0.144862
    52  H    0.324382
    53  H    0.118204
    54  H    0.120410
    55  H    0.118167
    56  H    0.124798
    57  H    0.184460
    58  H    0.142631
    59  H    0.143801
    60  H    0.140762
    61  H    0.124029
    62  H    0.131694
 Sum of Mulliken charges =  -0.00000

 Dipole moment (field-independent basis, Debye):
    X=             -3.6006    Y=              3.0993    Z=             -1.1787  Tot=              4.8948
 Quadrupole moment (field-independent basis, Debye-Ang):
   XX=           -161.1394   YY=           -179.7450   ZZ=           -170.2474
   XY=             24.4399   XZ=              1.8701   YZ=            -12.4460

 Normal termination of Gaussian 16 at Fri Nov  4 21:25:59 2022.
