 Gaussian 16, Revision B.01,
 Gaussian 16:  ES64L-G16RevB.01 20-Dec-2017

 -------------------------------------------------------------------
 #p b3lyp/6-31g(d) 6D 10F nosymm GFInput td=(50-50,nstate=2) SCF=XQC
 -------------------------------------------------------------------

 ------------------------------
 Gaussian input prepared by ASE
 ------------------------------
 Symbolic Z-matrix:
 Charge =  0 Multiplicity = 1

                          Input orientation:
 ---------------------------------------------------------------------
 Center     Atomic      Atomic             Coordinates (Angstroms)
 Number     Number       Type             X           Y           Z
 ---------------------------------------------------------------------
      1          6           0        5.608193   -2.905458    1.618543
      2          7           0        5.640923   -1.678048    0.846661
      3          6           0        5.496830   -1.656313   -0.503274
      4          8           0        5.352835   -2.642793   -1.214270
      5          6           0        5.582962   -0.264543   -1.143258
      6          8           0        5.601024    0.823256   -0.220587
      7          6           0        4.417553    1.393028    0.188234
      8          6           0        4.553627    2.590063    0.901995
      9          6           0        3.411180    3.232435    1.367834
     10          6           0        2.145327    2.702757    1.128391
     11          6           0        2.019420    1.501553    0.414537
     12          7           0        0.711977    1.014730    0.215639
     13          6           0        0.298617   -0.067204   -0.524141
     14          8           0        1.062806   -0.843510   -1.094065
     15          6           0       -1.169345   -0.312280   -0.562296
     16         16           0       -1.623351   -1.922038   -1.059463
     17          6           0       -3.297166   -1.526669   -0.730151
     18          6           0       -4.394544   -2.484415   -0.921729
     19          6           0       -4.161761   -3.815097   -1.306581
     20          6           0       -5.225776   -4.696996   -1.478438
     21          6           0       -6.536933   -4.265042   -1.267158
     22          6           0       -6.777491   -2.943188   -0.882954
     23          6           0       -5.717879   -2.057552   -0.711507
     24          7           0       -3.483466   -0.295819   -0.311154
     25          6           0       -2.308045    0.408672   -0.228845
     26          6           0       -2.405152    1.831079    0.182778
     27          6           0       -1.726902    2.850223   -0.507355
     28          6           0       -1.861588    4.182989   -0.114972
     29          6           0       -2.681413    4.517156    0.964137
     30          6           0       -3.375395    3.512674    1.643910
     31          6           0       -3.244207    2.181763    1.254097
     32          6           0        3.161434    0.831888   -0.055813
     33          1           0        5.441420   -3.726351    0.919305
     34          1           0        4.795039   -2.887998    2.353578
     35          1           0        6.556651   -3.069373    2.144142
     36          1           0        5.773920   -0.791564    1.312732
     37          1           0        6.534015   -0.207550   -1.681745
     38          1           0        4.775732   -0.166687   -1.874953
     39          1           0        5.546205    2.995059    1.068728
     40          1           0        3.505431    4.163835    1.919266
     41          1           0        1.257209    3.217492    1.486110
     42          1           0       -0.016953    1.571124    0.643562
     43          1           0       -3.146677   -4.167719   -1.470217
     44          1           0       -5.029961   -5.723168   -1.776363
     45          1           0       -7.365969   -4.954365   -1.401632
     46          1           0       -7.795536   -2.600775   -0.718478
     47          1           0       -5.891791   -1.028387   -0.417205
     48          1           0       -1.111180    2.599170   -1.366067
     49          1           0       -1.336758    4.959625   -0.664344
     50          1           0       -2.787595    5.555071    1.267501
     51          1           0       -4.022581    3.767427    2.478743
     52          1           0       -3.792151    1.399685    1.769754
     53          1           0        3.037233   -0.101852   -0.583022
 ---------------------------------------------------------------------

 SCF Done:  E(RB3LYP) =  -1753.45629768     A.U. after   15 cycles

 Excitation energies and oscillator strengths:

 Excited state symmetry could not be determined.
 Excited State   1:      Triplet-?Sym    2.4648 eV  503.02 nm  f=0.0000  <S**2>=2.000
     114 ->117        -0.21381
     115 ->117         0.49363
     116 ->117        -0.41212
 This state for optimization and/or second-order correction.
 Total Energy, E(TD-HF/TD-DFT) =  -1753.36571812
 Copying the excited state density for this state as the 1-particle RhoCI density.

 Excited state symmetry could not be determined.
 Excited State   2:      Triplet-?Sym    3.0251 eV  409.84 nm  f=0.0000  <S**2>=2.000
     114 ->117        -0.30214
     115 ->117         0.26267
     116 ->117         0.48430
     116 ->118        -0.13561
     116 ->120         0.18225

 Excited state symmetry could not be determined.
 Excited State   3:      Singlet-?Sym    3.3252 eV  372.86 nm  f=0.2628  <S**2>=0.000
     116 ->117         0.70398

 Excited state symmetry could not be determined.
 Excited State   4:      Singlet-?Sym    3.7307 eV  332.34 nm  f=0.2080  <S**2>=0.000
     114 ->117         0.17658
     115 ->117         0.67384

 Alpha  occ. eigenvalues --  -88.92083 -19.18473 -19.12556 -19.10141 -14.38170
 Alpha  occ. eigenvalues --  -14.35521 -14.34126 -10.30920 -10.27827 -10.26635
 Alpha  occ. eigenvalues --  -10.25280 -10.24670 -10.24507 -10.24345 -10.23524
 Alpha  occ. eigenvalues --  -10.21774 -10.21510 -10.21227 -10.20795 -10.20640
 Alpha  occ. eigenvalues --  -10.20584 -10.20492 -10.20435 -10.20417 -10.20161
 Alpha  occ. eigenvalues --  -10.20046 -10.19927 -10.19856 -10.19710 -10.19050
 Alpha  occ. eigenvalues --  -10.18551 -10.18512  -7.98153  -5.94549  -5.94180
 Alpha  occ. eigenvalues --   -5.93872  -1.06914  -1.04645  -1.01999  -0.97506
 Alpha  occ. eigenvalues --   -0.94826  -0.91381  -0.87282  -0.86424  -0.85031
 Alpha  occ. eigenvalues --   -0.81142  -0.80088  -0.76803  -0.76611  -0.75957
 Alpha  occ. eigenvalues --   -0.75476  -0.75092  -0.72798  -0.71770  -0.68852
 Alpha  occ. eigenvalues --   -0.66319  -0.63744  -0.62823  -0.61838  -0.61345
 Alpha  occ. eigenvalues --   -0.60970  -0.59211  -0.57712  -0.57000  -0.56304
 Alpha  occ. eigenvalues --   -0.55440  -0.54132  -0.52137  -0.51635  -0.49877
 Alpha  occ. eigenvalues --   -0.49459  -0.48770  -0.48219  -0.47621  -0.46633
 Alpha  occ. eigenvalues --   -0.46140  -0.45304  -0.44824  -0.44351  -0.44031
 Alpha  occ. eigenvalues --   -0.43748  -0.43288  -0.43128  -0.42831  -0.42507
 Alpha  occ. eigenvalues --   -0.42093  -0.41911  -0.41418  -0.41087  -0.39058
 Alpha  occ. eigenvalues --   -0.38632  -0.38474  -0.38112  -0.37857  -0.37204
 Alpha  occ. eigenvalues --   -0.36751  -0.36415  -0.35765  -0.35442  -0.35341
 Alpha  occ. eigenvalues --   -0.35027  -0.34588  -0.33381  -0.30191  -0.29659
 Alpha  occ. eigenvalues --   -0.29397  -0.28756  -0.26569  -0.26196  -0.25895
 Alpha  occ. eigenvalues --   -0.25537  -0.24973  -0.24351  -0.23656  -0.22605
 Alpha  occ. eigenvalues --   -0.21254
 Alpha virt. eigenvalues --   -0.07470  -0.03756  -0.01672  -0.00996  -0.00868
 Alpha virt. eigenvalues --    0.00451   0.01824   0.02212   0.03747   0.04685
 Alpha virt. eigenvalues --    0.07857   0.08556   0.09020   0.09425   0.10085

 Mulliken charges:
               1
     1  C   -0.308927
     2  N   -0.579939
     3  C    0.573002
     4  O   -0.515378
     5  C   -0.140497
     6  O   -0.542087
     7  C    0.358320
     8  C   -0.175824
     9  C   -0.135907
    10  C   -0.212415
    11  C    0.353814
    12  N   -0.753725
    13  C    0.631959
    14  O   -0.512435
    15  C   -0.284958
    16  S    0.305120
    17  C    0.036737
    18  C    0.128120
    19  C   -0.190015
    20  C   -0.137203
    21  C   -0.119916
    22  C   -0.132805
    23  C   -0.152392
    24  N   -0.488244
    25  C    0.247577
    26  C    0.051784
    27  C   -0.187202
    28  C   -0.132758
    29  C   -0.123855
    30  C   -0.135943
    31  C   -0.146038
    32  C   -0.241660
    33  H    0.203322
    34  H    0.159784
    35  H    0.155785
    36  H    0.343501
    37  H    0.187158
    38  H    0.188653
    39  H    0.136445
    40  H    0.133540
    41  H    0.131617
    42  H    0.353687
    43  H    0.154234
    44  H    0.139828
    45  H    0.137237
    46  H    0.137661
    47  H    0.164170
    48  H    0.153859
    49  H    0.142970
    50  H    0.138731
    51  H    0.139896
    52  H    0.153461
    53  H    0.208148
 Sum of Mulliken charges =  -0.00000

 Dipole moment (field-independent basis, Debye):
    X=             -2.9389    Y=              3.0729    Z=              3.5553  Tot=              5.5426
 Quadrupole moment (field-independent basis, Debye-Ang):
   XX=           -174.1270   YY=           -172.8355   ZZ=           -188.3713
   XY=             15.4100   XZ=             11.5677   YZ=             -0.6053

 Normal termination of Gaussian 16 at Sat Nov  5 12:19:28 2022.
