 Gaussian 16, Revision B.01,
 Gaussian 16:  ES64L-G16RevB.01 20-Dec-2017

 -----------------------------
 #p b3lyp/6-31g(d) opt SCF=XQC
 -----------------------------

 ------------------------------
 Gaussian input prepared by ASE
 ------------------------------
 Symbolic Z-matrix:
 Charge =  0 Multiplicity = 1

 SCF Done:  E(RB3LYP) =  -1753.44704306     A.U. after   15 cycles
 SCF Done:  E(RB3LYP) =  -1753.45267621     A.U. after   13 cycles
 SCF Done:  E(RB3LYP) =  -1753.45402989     A.U. after   15 cycles
 SCF Done:  E(RB3LYP) =  -1753.45551163     A.U. after   12 cycles
 SCF Done:  E(RB3LYP) =  -1753.45589698     A.U. after   12 cycles
 SCF Done:  E(RB3LYP) =  -1753.45607962     A.U. after   12 cycles
 SCF Done:  E(RB3LYP) =  -1753.45619870     A.U. after   11 cycles
 SCF Done:  E(RB3LYP) =  -1753.45626536     A.U. after   12 cycles
 SCF Done:  E(RB3LYP) =  -1753.45628118     A.U. after   11 cycles
 SCF Done:  E(RB3LYP) =  -1753.45628610     A.U. after   10 cycles
 SCF Done:  E(RB3LYP) =  -1753.45629069     A.U. after   10 cycles
 SCF Done:  E(RB3LYP) =  -1753.45629306     A.U. after   10 cycles
 SCF Done:  E(RB3LYP) =  -1753.45629443     A.U. after   10 cycles
 SCF Done:  E(RB3LYP) =  -1753.45629507     A.U. after    9 cycles
 SCF Done:  E(RB3LYP) =  -1753.45629547     A.U. after    8 cycles
 SCF Done:  E(RB3LYP) =  -1753.45629562     A.U. after    8 cycles
 SCF Done:  E(RB3LYP) =  -1753.45629572     A.U. after    7 cycles
 SCF Done:  E(RB3LYP) =  -1753.45629577     A.U. after    7 cycles
 SCF Done:  E(RB3LYP) =  -1753.45629579     A.U. after    7 cycles
 SCF Done:  E(RB3LYP) =  -1753.45629580     A.U. after    7 cycles
 Optimization completed.
    -- Stationary point found.

                         Standard orientation:
 ---------------------------------------------------------------------
 Center     Atomic      Atomic             Coordinates (Angstroms)
 Number     Number       Type             X           Y           Z
 ---------------------------------------------------------------------
      1          6           0        5.180888   -3.424386    2.097334
      2          7           0        5.372691   -2.430983    1.058213
      3          6           0        5.109682   -2.678319   -0.250683
      4          8           0        4.715955   -3.746115   -0.702552
      5          6           0        5.397090   -1.510088   -1.202869
      6          8           0        5.706665   -0.273133   -0.563292
      7          6           0        4.695751    0.603467   -0.243912
      8          6           0        5.121792    1.874264    0.161586
      9          6           0        4.170036    2.824232    0.517330
     10          6           0        2.810137    2.526493    0.469341
     11          6           0        2.393238    1.249611    0.064249
     12          7           0        1.004578    1.010219    0.047540
     13          6           0        0.326811   -0.099589   -0.397069
     14          8           0        0.873765   -1.122491   -0.804456
     15          6           0       -1.158027   -0.040048   -0.306842
     16         16           0       -1.952604   -1.591287   -0.390054
     17          6           0       -3.483236   -0.797756   -0.083632
     18          6           0       -4.754886   -1.527721    0.007343
     19          6           0       -4.814863   -2.929215   -0.064967
     20          6           0       -6.037720   -3.589367    0.025764
     21          6           0       -7.217976   -2.861497    0.191773
     22          6           0       -7.167327   -1.466965    0.265895
     23          6           0       -5.948107   -0.802437    0.174099
     24          7           0       -3.393497    0.506527    0.043058
     25          6           0       -2.103651    0.954883   -0.098258
     26          6           0       -1.891207    2.421861   -0.027935
     27          6           0       -1.100123    3.102069   -0.969458
     28          6           0       -0.943157    4.487055   -0.894986
     29          6           0       -1.580442    5.212087    0.113206
     30          6           0       -2.385102    4.546808    1.041977
     31          6           0       -2.544897    3.164877    0.969730
     32          6           0        3.338990    0.272714   -0.289447
     33          1           0        4.797296   -4.327021    1.619089
     34          1           0        4.458076   -3.078573    2.845502
     35          1           0        6.126192   -3.659668    2.601058
     36          1           0        5.713855   -1.510281    1.296283
     37          1           0        6.287157   -1.769905   -1.784240
     38          1           0        4.558074   -1.412257   -1.897890
     39          1           0        6.184193    2.093239    0.181233
     40          1           0        4.489800    3.814546    0.829572
     41          1           0        2.072750    3.278658    0.737996
     42          1           0        0.437239    1.784878    0.367013
     43          1           0       -3.904570   -3.510100   -0.189278
     44          1           0       -6.068144   -4.673748   -0.031882
     45          1           0       -8.171240   -3.378068    0.262425
     46          1           0       -8.082366   -0.895022    0.393559
     47          1           0       -5.896045    0.279500    0.226483
     48          1           0       -0.626024    2.546823   -1.773485
     49          1           0       -0.334716    4.998594   -1.635626
     50          1           0       -1.459673    6.290447    0.169118
     51          1           0       -2.891491    5.106783    1.823445
     52          1           0       -3.180115    2.645463    1.680011
     53          1           0        2.991773   -0.708337   -0.576200
 ---------------------------------------------------------------------

 The electronic state is 1-A.
 Alpha  occ. eigenvalues --  -88.92083 -19.18473 -19.12556 -19.10141 -14.38170
 Alpha  occ. eigenvalues --  -14.35521 -14.34126 -10.30920 -10.27828 -10.26635
 Alpha  occ. eigenvalues --  -10.25280 -10.24670 -10.24507 -10.24345 -10.23524
 Alpha  occ. eigenvalues --  -10.21774 -10.21510 -10.21227 -10.20795 -10.20640
 Alpha  occ. eigenvalues --  -10.20584 -10.20492 -10.20435 -10.20417 -10.20161
 Alpha  occ. eigenvalues --  -10.20046 -10.19927 -10.19856 -10.19710 -10.19050
 Alpha  occ. eigenvalues --  -10.18551 -10.18512  -7.98153  -5.94549  -5.94180
 Alpha  occ. eigenvalues --   -5.93872  -1.06914  -1.04646  -1.01999  -0.97506
 Alpha  occ. eigenvalues --   -0.94826  -0.91381  -0.87282  -0.86424  -0.85031
 Alpha  occ. eigenvalues --   -0.81142  -0.80088  -0.76803  -0.76611  -0.75957
 Alpha  occ. eigenvalues --   -0.75476  -0.75092  -0.72798  -0.71770  -0.68852
 Alpha  occ. eigenvalues --   -0.66319  -0.63744  -0.62823  -0.61838  -0.61345
 Alpha  occ. eigenvalues --   -0.60970  -0.59211  -0.57712  -0.57000  -0.56304
 Alpha  occ. eigenvalues --   -0.55440  -0.54132  -0.52137  -0.51635  -0.49877
 Alpha  occ. eigenvalues --   -0.49459  -0.48770  -0.48219  -0.47621  -0.46633
 Alpha  occ. eigenvalues --   -0.46140  -0.45304  -0.44824  -0.44351  -0.44031
 Alpha  occ. eigenvalues --   -0.43748  -0.43288  -0.43128  -0.42831  -0.42507
 Alpha  occ. eigenvalues --   -0.42093  -0.41911  -0.41418  -0.41087  -0.39058
 Alpha  occ. eigenvalues --   -0.38632  -0.38474  -0.38112  -0.37857  -0.37204
 Alpha  occ. eigenvalues --   -0.36751  -0.36415  -0.35765  -0.35442  -0.35341
 Alpha  occ. eigenvalues --   -0.35027  -0.34588  -0.33381  -0.30191  -0.29659
 Alpha  occ. eigenvalues --   -0.29397  -0.28756  -0.26569  -0.26196  -0.25895
 Alpha  occ. eigenvalues --   -0.25537  -0.24973  -0.24351  -0.23656  -0.22605
 Alpha  occ. eigenvalues --   -0.21253
 Alpha virt. eigenvalues --   -0.07470  -0.03756  -0.01672  -0.00996  -0.00868
 Alpha virt. eigenvalues --    0.00451   0.01824   0.02212   0.03747   0.04685
 Alpha virt. eigenvalues --    0.07857   0.08556   0.09020   0.09425   0.10085

 Mulliken charges:
               1
     1  C   -0.308931
     2  N   -0.579923
     3  C    0.572988
     4  O   -0.515375
     5  C   -0.140505
     6  O   -0.542089
     7  C    0.358327
     8  C   -0.175823
     9  C   -0.135907
    10  C   -0.212430
    11  C    0.353832
    12  N   -0.753740
    13  C    0.631956
    14  O   -0.512428
    15  C   -0.284959
    16  S    0.305110
    17  C    0.036738
    18  C    0.128111
    19  C   -0.190005
    20  C   -0.137205
    21  C   -0.119919
    22  C   -0.132803
    23  C   -0.152389
    24  N   -0.488246
    25  C    0.247586
    26  C    0.051818
    27  C   -0.187226
    28  C   -0.132750
    29  C   -0.123854
    30  C   -0.135943
    31  C   -0.146054
    32  C   -0.241657
    33  H    0.203324
    34  H    0.159783
    35  H    0.155785
    36  H    0.343501
    37  H    0.187160
    38  H    0.188654
    39  H    0.136445
    40  H    0.133540
    41  H    0.131621
    42  H    0.353685
    43  H    0.154234
    44  H    0.139829
    45  H    0.137237
    46  H    0.137662
    47  H    0.164169
    48  H    0.153860
    49  H    0.142969
    50  H    0.138731
    51  H    0.139896
    52  H    0.153464
    53  H    0.208149
 Sum of Mulliken charges =  -0.00000

 Dipole moment (field-independent basis, Debye):
    X=             -1.9594    Y=              4.3178    Z=              2.8700  Tot=              5.5426
 Quadrupole moment (field-independent basis, Debye-Ang):
   XX=           -166.7956   YY=           -179.7654   ZZ=           -187.2977
   XY=             16.0352   XZ=              5.8649   YZ=             -5.3694

 Normal termination of Gaussian 16 at Fri Nov  4 21:25:40 2022.
