 Gaussian 16, Revision B.01,
 Gaussian 16:  ES64L-G16RevB.01 20-Dec-2017

 -----------------------------
 #p b3lyp/6-31g(d) opt SCF=XQC
 -----------------------------

 ------------------------------
 Gaussian input prepared by ASE
 ------------------------------
 Symbolic Z-matrix:
 Charge =  0 Multiplicity = 1

 SCF Done:  E(RB3LYP) =  -1523.37200190     A.U. after   15 cycles
 SCF Done:  E(RB3LYP) =  -1523.37845261     A.U. after   13 cycles
 SCF Done:  E(RB3LYP) =  -1523.37830868     A.U. after   12 cycles
 SCF Done:  E(RB3LYP) =  -1523.37934882     A.U. after   12 cycles
 SCF Done:  E(RB3LYP) =  -1523.37948085     A.U. after   12 cycles
 SCF Done:  E(RB3LYP) =  -1523.37957348     A.U. after   12 cycles
 SCF Done:  E(RB3LYP) =  -1523.37968026     A.U. after   10 cycles
 SCF Done:  E(RB3LYP) =  -1523.37972516     A.U. after   11 cycles
 SCF Done:  E(RB3LYP) =  -1523.37974326     A.U. after   11 cycles
 SCF Done:  E(RB3LYP) =  -1523.37975538     A.U. after   10 cycles
 SCF Done:  E(RB3LYP) =  -1523.37978090     A.U. after   11 cycles
 SCF Done:  E(RB3LYP) =  -1523.37981371     A.U. after   10 cycles
 SCF Done:  E(RB3LYP) =  -1523.37983378     A.U. after   11 cycles
 SCF Done:  E(RB3LYP) =  -1523.37983510     A.U. after    8 cycles
 SCF Done:  E(RB3LYP) =  -1523.37983589     A.U. after    8 cycles
 SCF Done:  E(RB3LYP) =  -1523.37983593     A.U. after    7 cycles
 SCF Done:  E(RB3LYP) =  -1523.37983596     A.U. after    7 cycles
 SCF Done:  E(RB3LYP) =  -1523.37983599     A.U. after    7 cycles
 SCF Done:  E(RB3LYP) =  -1523.37983600     A.U. after    7 cycles
 SCF Done:  E(RB3LYP) =  -1523.37983600     A.U. after    7 cycles
 Optimization completed.
    -- Stationary point found.

                         Standard orientation:
 ---------------------------------------------------------------------
 Center     Atomic      Atomic             Coordinates (Angstroms)
 Number     Number       Type             X           Y           Z
 ---------------------------------------------------------------------
      1          6           0        3.080499   -2.786275   -0.090740
      2          6           0        2.520884   -1.400417   -0.065407
      3          6           0        1.224472   -0.971630   -0.052352
      4          6           0        1.221155    0.466828   -0.004568
      5          6           0        0.144064    1.417924    0.020201
      6          6           0       -1.215609    1.314207    0.025363
      7         16           0       -2.219667    2.795192    0.053361
      8          6           0       -3.744230    1.848569    0.045413
      9          8           0       -4.847351    2.340249    0.054836
     10          7           0       -3.442428    0.483432    0.023454
     11          6           0       -4.490285   -0.499131    0.015972
     12          6           0       -4.487975   -1.522621    0.966874
     13          6           0       -5.505283   -2.475812    0.951938
     14          6           0       -6.526148   -2.402933    0.002681
     15          6           0       -6.524489   -1.373199   -0.939599
     16          6           0       -5.505077   -0.422076   -0.940956
     17          6           0       -2.073669    0.116029    0.014159
     18          8           0       -1.719767   -1.051872    0.001594
     19          6           0        2.566124    0.874539    0.012367
     20          6           0        3.187858    2.235218    0.043469
     21          7           0        3.342566   -0.262307   -0.022406
     22          6           0        4.769163   -0.286629   -0.011572
     23          6           0        5.487998   -0.051413    1.162426
     24          6           0        6.879333   -0.092762    1.107597
     25          6           0        7.490874   -0.376006   -0.115189
     26          7           0        6.813169   -0.606851   -1.246523
     27          6           0        5.479635   -0.557230   -1.186982
     28          1           0        3.675728   -2.986262   -0.990693
     29          1           0        2.255906   -3.503583   -0.071187
     30          1           0        3.724635   -2.990280    0.774371
     31          1           0        0.344404   -1.592931   -0.070964
     32          1           0        0.493273    2.449342    0.040632
     33          1           0       -3.692675   -1.575123    1.701087
     34          1           0       -5.500093   -3.274264    1.688663
     35          1           0       -7.319870   -3.144907   -0.002198
     36          1           0       -7.316453   -1.308579   -1.680404
     37          1           0       -5.500687    0.380779   -1.669204
     38          1           0        3.968005    2.336611   -0.720215
     39          1           0        2.442727    3.010593   -0.146088
     40          1           0        3.654009    2.459944    1.011986
     41          1           0        4.961339    0.150683    2.090606
     42          1           0        7.479300    0.083953    1.995073
     43          1           0        8.575689   -0.419432   -0.191226
     44          1           0        4.937461   -0.737638   -2.113700
 ---------------------------------------------------------------------

 The electronic state is 1-A.
 Alpha  occ. eigenvalues --  -88.89913 -19.14052 -19.13457 -14.40118 -14.39462
 Alpha  occ. eigenvalues --  -14.35334 -10.32402 -10.30930 -10.25968 -10.24705
 Alpha  occ. eigenvalues --  -10.24567 -10.23764 -10.23464 -10.23274 -10.23103
 Alpha  occ. eigenvalues --  -10.22425 -10.22296 -10.22158 -10.20820 -10.19665
 Alpha  occ. eigenvalues --  -10.19573 -10.19221 -10.19212 -10.19089 -10.19055
 Alpha  occ. eigenvalues --  -10.19011 -10.16959  -7.96187  -5.92626  -5.92306
 Alpha  occ. eigenvalues --   -5.91720  -1.06752  -1.04653  -1.00614  -0.96181
 Alpha  occ. eigenvalues --   -0.95776  -0.86023  -0.84755  -0.83013  -0.80761
 Alpha  occ. eigenvalues --   -0.79485  -0.77195  -0.74724  -0.74568  -0.73795
 Alpha  occ. eigenvalues --   -0.72512  -0.68126  -0.65868  -0.65655  -0.64744
 Alpha  occ. eigenvalues --   -0.62961  -0.61281  -0.59759  -0.57812  -0.57142
 Alpha  occ. eigenvalues --   -0.53972  -0.53458  -0.51575  -0.50848  -0.50465
 Alpha  occ. eigenvalues --   -0.48757  -0.47482  -0.47182  -0.45678  -0.45645
 Alpha  occ. eigenvalues --   -0.45007  -0.44894  -0.43815  -0.43551  -0.43248
 Alpha  occ. eigenvalues --   -0.43168  -0.42744  -0.42701  -0.41977  -0.41484
 Alpha  occ. eigenvalues --   -0.41009  -0.39892  -0.39707  -0.39518  -0.38408
 Alpha  occ. eigenvalues --   -0.37857  -0.37178  -0.36661  -0.35879  -0.35686
 Alpha  occ. eigenvalues --   -0.35034  -0.33257  -0.31070  -0.29247  -0.28845
 Alpha  occ. eigenvalues --   -0.28508  -0.28112  -0.26930  -0.26047  -0.24839
 Alpha  occ. eigenvalues --   -0.23849  -0.22780  -0.20055
 Alpha virt. eigenvalues --   -0.06487  -0.04909  -0.03710  -0.01275   0.00136
 Alpha virt. eigenvalues --    0.00877   0.01956   0.03059   0.06751   0.07386
 Alpha virt. eigenvalues --    0.08453   0.09481   0.10227   0.10374   0.11757

 Mulliken charges:
               1
     1  C   -0.526123
     2  C    0.322034
     3  C   -0.271287
     4  C    0.077097
     5  C   -0.223186
     6  C   -0.198981
     7  S    0.185797
     8  C    0.424848
     9  O   -0.463987
    10  N   -0.600794
    11  C    0.282250
    12  C   -0.115493
    13  C   -0.147843
    14  C   -0.117197
    15  C   -0.146785
    16  C   -0.120163
    17  C    0.635090
    18  O   -0.495363
    19  C    0.291983
    20  C   -0.531969
    21  N   -0.599584
    22  C    0.210788
    23  C   -0.096278
    24  C   -0.153903
    25  C    0.051196
    26  N   -0.410133
    27  C    0.040293
    28  H    0.165083
    29  H    0.178912
    30  H    0.161718
    31  H    0.189303
    32  H    0.138282
    33  H    0.149627
    34  H    0.134708
    35  H    0.132199
    36  H    0.136146
    37  H    0.152206
    38  H    0.175304
    39  H    0.178220
    40  H    0.169408
    41  H    0.163907
    42  H    0.152028
    43  H    0.155006
    44  H    0.165638
 Sum of Mulliken charges =  -0.00000

 Dipole moment (field-independent basis, Debye):
    X=              5.7615    Y=             -1.0313    Z=              1.8091  Tot=              6.1263
 Quadrupole moment (field-independent basis, Debye-Ang):
   XX=           -148.3612   YY=           -160.7828   ZZ=           -158.1160
   XY=             18.8141   XZ=             17.3537   YZ=             -2.9030

 Normal termination of Gaussian 16 at Fri Nov  4 21:11:29 2022.
