 Gaussian 16, Revision B.01,
 Gaussian 16:  ES64L-G16RevB.01 20-Dec-2017

 -------------------------------------------------------------------
 #p b3lyp/6-31g(d) 6D 10F nosymm GFInput td=(50-50,nstate=2) SCF=XQC
 -------------------------------------------------------------------

 ------------------------------
 Gaussian input prepared by ASE
 ------------------------------
 Symbolic Z-matrix:
 Charge =  0 Multiplicity = 1

                          Input orientation:
 ---------------------------------------------------------------------
 Center     Atomic      Atomic             Coordinates (Angstroms)
 Number     Number       Type             X           Y           Z
 ---------------------------------------------------------------------
      1          6           0        2.486977    2.476288   -0.914795
      2          6           0        2.011779    1.175888   -0.351270
      3          6           0        0.745231    0.686508   -0.206096
      4          6           0        0.828872   -0.628877    0.372025
      5          6           0       -0.187757   -1.576810    0.737005
      6          6           0       -1.549047   -1.588320    0.657926
      7         16           0       -2.461590   -3.009030    1.250449
      8          6           0       -4.037431   -2.268739    0.815541
      9          8           0       -5.107783   -2.798572    0.995366
     10          7           0       -3.817857   -1.007898    0.252307
     11          6           0       -4.920551   -0.199475   -0.188155
     12          6           0       -4.928685    0.313633   -1.487542
     13          6           0       -5.999591    1.101127   -1.907932
     14          6           0       -7.062587    1.365979   -1.042797
     15          6           0       -7.049679    0.843850    0.251599
     16          6           0       -5.977649    0.065370    0.685832
     17          6           0       -2.475385   -0.569917    0.131831
     18          8           0       -2.191800    0.513310   -0.353551
     19          6           0        2.194503   -0.901559    0.562156
     20          6           0        2.895825   -2.092596    1.135346
     21          7           0        2.899985    0.195150    0.119419
     22          6           0        4.321310    0.320080    0.130232
     23          6           0        5.113033   -0.341339   -0.811055
     24          6           0        6.494777   -0.175556   -0.749157
     25          6           0        7.023949    0.650461    0.244366
     26          7           0        6.275712    1.292735    1.149968
     27          6           0        4.952323    1.121849    1.088655
     28          1           0        3.021633    3.087552   -0.176752
     29          1           0        1.623841    3.051228   -1.260202
     30          1           0        3.162317    2.337134   -1.768901
     31          1           0       -0.169565    1.187237   -0.476835
     32          1           0        0.221993   -2.487501    1.171668
     33          1           0       -4.100589    0.105730   -2.154895
     34          1           0       -6.002825    1.503860   -2.916946
     35          1           0       -7.897671    1.975937   -1.376157
     36          1           0       -7.874082    1.043928    0.930202
     37          1           0       -5.964163   -0.344242    1.689314
     38          1           0        3.639637   -1.797115    1.884719
     39          1           0        2.188623   -2.765312    1.624913
     40          1           0        3.424301   -2.675437    0.369296
     41          1           0        4.648333   -0.961442   -1.572143
     42          1           0        7.149604   -0.670295   -1.459957
     43          1           0        8.098890    0.804077    0.317807
     44          1           0        4.352843    1.641121    1.834502
 ---------------------------------------------------------------------

 SCF Done:  E(RB3LYP) =  -1523.37983326     A.U. after   15 cycles

 Excitation energies and oscillator strengths:

 Excited state symmetry could not be determined.
 Excited State   1:      Triplet-?Sym    2.1252 eV  583.39 nm  f=0.0000  <S**2>=2.000
      97 -> 99         0.10440
      98 -> 99         0.68585
 This state for optimization and/or second-order correction.
 Total Energy, E(TD-HF/TD-DFT) =  -1523.30173195
 Copying the excited state density for this state as the 1-particle RhoCI density.

 Excited state symmetry could not be determined.
 Excited State   2:      Triplet-?Sym    3.1894 eV  388.74 nm  f=0.0000  <S**2>=2.000
      97 -> 99         0.67356
      98 -> 99        -0.11121

 Excited state symmetry could not be determined.
 Excited State   3:      Singlet-?Sym    3.4544 eV  358.92 nm  f=0.4975  <S**2>=0.000
      97 -> 99        -0.18498
      98 -> 99         0.66565
      98 ->100         0.11981

 Excited state symmetry could not be determined.
 Excited State   4:      Singlet-?Sym    3.5364 eV  350.59 nm  f=0.0168  <S**2>=0.000
      98 -> 99        -0.10703
      98 ->100         0.68828

 Alpha  occ. eigenvalues --  -88.89913 -19.14052 -19.13457 -14.40118 -14.39462
 Alpha  occ. eigenvalues --  -14.35334 -10.32402 -10.30930 -10.25968 -10.24705
 Alpha  occ. eigenvalues --  -10.24567 -10.23764 -10.23464 -10.23274 -10.23103
 Alpha  occ. eigenvalues --  -10.22425 -10.22296 -10.22158 -10.20820 -10.19665
 Alpha  occ. eigenvalues --  -10.19573 -10.19222 -10.19212 -10.19089 -10.19055
 Alpha  occ. eigenvalues --  -10.19011 -10.16959  -7.96187  -5.92626  -5.92306
 Alpha  occ. eigenvalues --   -5.91720  -1.06752  -1.04653  -1.00614  -0.96181
 Alpha  occ. eigenvalues --   -0.95776  -0.86023  -0.84755  -0.83013  -0.80761
 Alpha  occ. eigenvalues --   -0.79485  -0.77195  -0.74724  -0.74568  -0.73795
 Alpha  occ. eigenvalues --   -0.72512  -0.68126  -0.65868  -0.65655  -0.64744
 Alpha  occ. eigenvalues --   -0.62961  -0.61281  -0.59759  -0.57812  -0.57142
 Alpha  occ. eigenvalues --   -0.53972  -0.53458  -0.51575  -0.50848  -0.50465
 Alpha  occ. eigenvalues --   -0.48757  -0.47482  -0.47182  -0.45678  -0.45645
 Alpha  occ. eigenvalues --   -0.45007  -0.44894  -0.43815  -0.43551  -0.43248
 Alpha  occ. eigenvalues --   -0.43168  -0.42744  -0.42701  -0.41977  -0.41484
 Alpha  occ. eigenvalues --   -0.41009  -0.39892  -0.39707  -0.39518  -0.38408
 Alpha  occ. eigenvalues --   -0.37857  -0.37178  -0.36661  -0.35879  -0.35686
 Alpha  occ. eigenvalues --   -0.35034  -0.33257  -0.31070  -0.29247  -0.28845
 Alpha  occ. eigenvalues --   -0.28508  -0.28112  -0.26930  -0.26047  -0.24839
 Alpha  occ. eigenvalues --   -0.23849  -0.22780  -0.20055
 Alpha virt. eigenvalues --   -0.06487  -0.04909  -0.03710  -0.01275   0.00136
 Alpha virt. eigenvalues --    0.00877   0.01956   0.03059   0.06751   0.07386
 Alpha virt. eigenvalues --    0.08453   0.09481   0.10227   0.10374   0.11757

 Mulliken charges:
               1
     1  C   -0.526127
     2  C    0.322059
     3  C   -0.271308
     4  C    0.077107
     5  C   -0.223199
     6  C   -0.198963
     7  S    0.185796
     8  C    0.424839
     9  O   -0.463984
    10  N   -0.600779
    11  C    0.282233
    12  C   -0.115473
    13  C   -0.147862
    14  C   -0.117183
    15  C   -0.146798
    16  C   -0.120162
    17  C    0.635074
    18  O   -0.495357
    19  C    0.291975
    20  C   -0.531969
    21  N   -0.599590
    22  C    0.210787
    23  C   -0.096281
    24  C   -0.153885
    25  C    0.051174
    26  N   -0.410127
    27  C    0.040299
    28  H    0.165084
    29  H    0.178913
    30  H    0.161718
    31  H    0.189304
    32  H    0.138283
    33  H    0.149626
    34  H    0.134710
    35  H    0.132199
    36  H    0.136147
    37  H    0.152209
    38  H    0.175304
    39  H    0.178220
    40  H    0.169408
    41  H    0.163910
    42  H    0.152027
    43  H    0.155006
    44  H    0.165636
 Sum of Mulliken charges =  -0.00000

 Dipole moment (field-independent basis, Debye):
    X=              5.7776    Y=              0.5865    Z=             -1.9511  Tot=              6.1263
 Quadrupole moment (field-independent basis, Debye-Ang):
   XX=           -149.2429   YY=           -166.5003   ZZ=           -157.2205
   XY=            -25.0646   XZ=             -5.6036   YZ=             -1.1910

 Normal termination of Gaussian 16 at Sat Nov  5 12:16:26 2022.
