 Gaussian 16, Revision B.01,
 Gaussian 16:  ES64L-G16RevB.01 20-Dec-2017

 -------------------------------------------------------------------
 #p b3lyp/6-31g(d) 6D 10F nosymm GFInput td=(50-50,nstate=2) SCF=XQC
 -------------------------------------------------------------------

 ------------------------------
 Gaussian input prepared by ASE
 ------------------------------
 Symbolic Z-matrix:
 Charge =  0 Multiplicity = 1

                          Input orientation:
 ---------------------------------------------------------------------
 Center     Atomic      Atomic             Coordinates (Angstroms)
 Number     Number       Type             X           Y           Z
 ---------------------------------------------------------------------
      1          6           0       -5.138764   -1.347401   -1.557084
      2          6           0       -5.919349   -1.253697   -0.265920
      3          6           0       -7.210136   -1.783018   -0.191878
      4          6           0       -7.963553   -1.720919    0.979896
      5          6           0       -7.414616   -1.114490    2.107519
      6          6           0       -6.130197   -0.574360    2.071388
      7          6           0       -5.377721   -0.640270    0.888790
      8          7           0       -4.065383   -0.116997    0.792668
      9          6           0       -3.355891    0.596152    1.730833
     10          8           0       -3.787739    0.895256    2.842708
     11          6           0       -1.987113    1.041901    1.344185
     12         16           0       -1.305880    2.182974    2.498594
     13          6           0        0.144346    2.292182    1.559408
     14          7           0        1.182234    3.085566    1.933011
     15          6           0        2.200602    3.071290    1.124088
     16          7           0        2.287958    2.337300   -0.029527
     17          6           0        3.493451    2.420872   -0.902109
     18          6           0        4.084896    3.824487   -0.984588
     19          6           0        4.553392    1.393164   -0.417911
     20          8           0        5.531869    1.751111    0.224764
     21          7           0        4.252068    0.111899   -0.780610
     22          6           0        4.946968   -1.080494   -0.476348
     23          6           0        6.170262   -1.108133    0.209851
     24          6           0        6.785694   -2.335749    0.456850
     25          6           0        6.207791   -3.533181    0.033886
     26          6           0        4.990184   -3.498932   -0.648878
     27          6           0        4.362300   -2.283216   -0.903563
     28          6           0        1.269094    1.429733   -0.425982
     29          8           0        1.446764    0.707063   -1.416014
     30          6           0        0.103154    1.469715    0.427664
     31          6           0       -1.129803    0.737554    0.304324
     32          6           0       -1.399216   -0.231311   -0.821535
     33          1           0       -5.736558   -1.835667   -2.331503
     34          1           0       -4.855243   -0.359382   -1.947679
     35          1           0       -4.216300   -1.934754   -1.446569
     36          1           0       -7.628908   -2.254058   -1.078126
     37          1           0       -8.964785   -2.141183    1.007930
     38          1           0       -7.984653   -1.055383    3.030692
     39          1           0       -5.703363   -0.098541    2.941863
     40          1           0       -3.626619   -0.224839   -0.107982
     41          1           0        3.064408    3.681849    1.360725
     42          1           0        3.129448    2.115975   -1.884797
     43          1           0        4.803186    3.850628   -1.809348
     44          1           0        4.633792    4.091222   -0.079091
     45          1           0        3.304878    4.565642   -1.183968
     46          1           0        3.356521   -0.000234   -1.253783
     47          1           0        6.618462   -0.181765    0.540692
     48          1           0        7.732811   -2.349219    0.989753
     49          1           0        6.698638   -4.481407    0.233307
     50          1           0        4.524143   -4.420992   -0.985705
     51          1           0        3.413031   -2.259758   -1.434458
     52          1           0       -2.121783    0.176793   -1.542480
     53          1           0       -0.479723   -0.426635   -1.372847
     54          1           0       -1.789053   -1.184341   -0.446430
 ---------------------------------------------------------------------

 SCF Done:  E(RB3LYP) =  -1770.74292868     A.U. after   15 cycles

 Excitation energies and oscillator strengths:

 Excited state symmetry could not be determined.
 Excited State   1:      Triplet-?Sym    2.7362 eV  453.12 nm  f=0.0000  <S**2>=2.000
     115 ->118         0.49828
     117 ->118        -0.45336
 This state for optimization and/or second-order correction.
 Total Energy, E(TD-HF/TD-DFT) =  -1770.64237478
 Copying the excited state density for this state as the 1-particle RhoCI density.

 Excited state symmetry could not be determined.
 Excited State   2:      Triplet-?Sym    3.1159 eV  397.91 nm  f=0.0000  <S**2>=2.000
     114 ->123         0.14315
     115 ->118         0.40591
     117 ->118         0.43014
     117 ->119        -0.17609
     117 ->121         0.19577
     117 ->124         0.14733

 Excited state symmetry could not be determined.
 Excited State   3:      Singlet-?Sym    3.5795 eV  346.37 nm  f=0.3768  <S**2>=0.000
     117 ->118         0.70163

 Excited state symmetry could not be determined.
 Excited State   4:      Singlet-?Sym    3.6669 eV  338.11 nm  f=0.0079  <S**2>=0.000
     116 ->118         0.70184

 Alpha  occ. eigenvalues --  -88.92391 -19.15009 -19.13544 -19.12850 -14.42656
 Alpha  occ. eigenvalues --  -14.38678 -14.38117 -14.35921 -10.32585 -10.31130
 Alpha  occ. eigenvalues --  -10.30650 -10.29570 -10.27484 -10.26221 -10.23984
 Alpha  occ. eigenvalues --  -10.23889 -10.23849 -10.23638 -10.22448 -10.20639
 Alpha  occ. eigenvalues --  -10.20482 -10.20444 -10.20204 -10.19456 -10.19363
 Alpha  occ. eigenvalues --  -10.19135 -10.19071 -10.18798 -10.18760 -10.18644
 Alpha  occ. eigenvalues --  -10.18526 -10.18284  -7.98429  -5.94837  -5.94474
 Alpha  occ. eigenvalues --   -5.94115  -1.07426  -1.05156  -1.04940  -1.01255
 Alpha  occ. eigenvalues --   -0.95150  -0.95080  -0.94320  -0.89134  -0.85161
 Alpha  occ. eigenvalues --   -0.84879  -0.80798  -0.78941  -0.77995  -0.77706
 Alpha  occ. eigenvalues --   -0.75020  -0.74707  -0.74557  -0.71501  -0.70132
 Alpha  occ. eigenvalues --   -0.69067  -0.67779  -0.64672  -0.64337  -0.62262
 Alpha  occ. eigenvalues --   -0.61370  -0.60780  -0.59031  -0.57396  -0.56805
 Alpha  occ. eigenvalues --   -0.55998  -0.55003  -0.53632  -0.52671  -0.52217
 Alpha  occ. eigenvalues --   -0.50700  -0.49233  -0.48315  -0.47906  -0.47400
 Alpha  occ. eigenvalues --   -0.45875  -0.45564  -0.45317  -0.44692  -0.44630
 Alpha  occ. eigenvalues --   -0.44021  -0.43823  -0.43288  -0.43175  -0.42754
 Alpha  occ. eigenvalues --   -0.42616  -0.42562  -0.41961  -0.41625  -0.41364
 Alpha  occ. eigenvalues --   -0.41163  -0.40346  -0.40120  -0.40061  -0.39452
 Alpha  occ. eigenvalues --   -0.38485  -0.37444  -0.36820  -0.36344  -0.36156
 Alpha  occ. eigenvalues --   -0.35935  -0.35661  -0.34760  -0.34615  -0.31520
 Alpha  occ. eigenvalues --   -0.31133  -0.30443  -0.29814  -0.29124  -0.27317
 Alpha  occ. eigenvalues --   -0.26592  -0.26289  -0.25191  -0.24685  -0.24005
 Alpha  occ. eigenvalues --   -0.22367  -0.22007
 Alpha virt. eigenvalues --   -0.07305  -0.04367  -0.02064  -0.01511  -0.00165
 Alpha virt. eigenvalues --    0.00009   0.01044   0.01846   0.03451   0.06144
 Alpha virt. eigenvalues --    0.07317   0.08227   0.08826   0.09439   0.10061

 Mulliken charges:
               1
     1  C   -0.569194
     2  C    0.142272
     3  C   -0.198489
     4  C   -0.118660
     5  C   -0.149111
     6  C   -0.158564
     7  C    0.282975
     8  N   -0.774052
     9  C    0.653582
    10  O   -0.514006
    11  C   -0.318725
    12  S    0.340019
    13  C    0.009908
    14  N   -0.467919
    15  C    0.239008
    16  N   -0.472069
    17  C   -0.100293
    18  C   -0.470444
    19  C    0.632709
    20  O   -0.505603
    21  N   -0.739230
    22  C    0.348272
    23  C   -0.161646
    24  C   -0.144135
    25  C   -0.125675
    26  C   -0.133622
    27  C   -0.197997
    28  C    0.595594
    29  O   -0.563759
    30  C    0.034128
    31  C    0.184242
    32  C   -0.591414
    33  H    0.171862
    34  H    0.161551
    35  H    0.163750
    36  H    0.123315
    37  H    0.128293
    38  H    0.134117
    39  H    0.191604
    40  H    0.364458
    41  H    0.192028
    42  H    0.197903
    43  H    0.176163
    44  H    0.189332
    45  H    0.161403
    46  H    0.379517
    47  H    0.182147
    48  H    0.134459
    49  H    0.129285
    50  H    0.131864
    51  H    0.135176
    52  H    0.169990
    53  H    0.219521
    54  H    0.174160
 Sum of Mulliken charges =  -0.00000

 Dipole moment (field-independent basis, Debye):
    X=             -0.3991    Y=             -0.9966    Z=             -4.7707  Tot=              4.8900
 Quadrupole moment (field-independent basis, Debye-Ang):
   XX=           -194.9302   YY=           -181.8025   ZZ=           -200.4361
   XY=              7.9925   XZ=              9.4060   YZ=             -6.6306

 Normal termination of Gaussian 16 at Sat Nov  5 12:18:00 2022.
