 Gaussian 16, Revision B.01,
 Gaussian 16:  ES64L-G16RevB.01 20-Dec-2017

 -----------------------------
 #p b3lyp/6-31g(d) opt SCF=XQC
 -----------------------------

 ------------------------------
 Gaussian input prepared by ASE
 ------------------------------
 Symbolic Z-matrix:
 Charge =  0 Multiplicity = 1

 SCF Done:  E(RB3LYP) =  -1770.73519772     A.U. after   15 cycles
 SCF Done:  E(RB3LYP) =  -1770.74152255     A.U. after   13 cycles
 SCF Done:  E(RB3LYP) =  -1770.74153178     A.U. after   13 cycles
 SCF Done:  E(RB3LYP) =  -1770.74242217     A.U. after   12 cycles
 SCF Done:  E(RB3LYP) =  -1770.74260304     A.U. after   14 cycles
 SCF Done:  E(RB3LYP) =  -1770.74279863     A.U. after   12 cycles
 SCF Done:  E(RB3LYP) =  -1770.74285771     A.U. after   11 cycles
 SCF Done:  E(RB3LYP) =  -1770.74286862     A.U. after   10 cycles
 SCF Done:  E(RB3LYP) =  -1770.74287720     A.U. after    9 cycles
 SCF Done:  E(RB3LYP) =  -1770.74288433     A.U. after   10 cycles
 SCF Done:  E(RB3LYP) =  -1770.74290551     A.U. after   10 cycles
 SCF Done:  E(RB3LYP) =  -1770.74291338     A.U. after   10 cycles
 SCF Done:  E(RB3LYP) =  -1770.74291774     A.U. after   10 cycles
 SCF Done:  E(RB3LYP) =  -1770.74292118     A.U. after    9 cycles
 SCF Done:  E(RB3LYP) =  -1770.74292197     A.U. after    9 cycles
 SCF Done:  E(RB3LYP) =  -1770.74292227     A.U. after    8 cycles
 SCF Done:  E(RB3LYP) =  -1770.74292245     A.U. after    7 cycles
 SCF Done:  E(RB3LYP) =  -1770.74292265     A.U. after    7 cycles
 SCF Done:  E(RB3LYP) =  -1770.74292271     A.U. after    7 cycles
 SCF Done:  E(RB3LYP) =  -1770.74292272     A.U. after    7 cycles
 Optimization completed.
    -- Stationary point found.

                         Standard orientation:
 ---------------------------------------------------------------------
 Center     Atomic      Atomic             Coordinates (Angstroms)
 Number     Number       Type             X           Y           Z
 ---------------------------------------------------------------------
      1          6           0       -4.995621    1.980618    2.066924
      2          6           0       -5.909342    1.528594    0.950688
      3          6           0       -7.226988    1.989992    0.898573
      4          6           0       -8.102121    1.600863   -0.114969
      5          6           0       -7.650660    0.728162   -1.102491
      6          6           0       -6.342984    0.246098   -1.083059
      7          6           0       -5.467781    0.641764   -0.060039
      8          7           0       -4.126611    0.192564    0.008997
      9          6           0       -3.488916   -0.728857   -0.788776
     10          8           0       -4.025486   -1.323184   -1.722098
     11          6           0       -2.063472   -1.024634   -0.468821
     12         16           0       -1.454884   -2.416666   -1.358008
     13          6           0        0.094939   -2.239023   -0.607245
     14          7           0        1.125884   -3.079872   -0.883601
     15          6           0        2.225972   -2.827644   -0.237211
     16          7           0        2.401910   -1.810866    0.664128
     17          6           0        3.700067   -1.631757    1.374271
     18          6           0        4.371884   -2.948968    1.748922
     19          6           0        4.642292   -0.746911    0.512083
     20          8           0        5.560738   -1.241275   -0.128726
     21          7           0        4.314681    0.577602    0.560270
     22          6           0        4.905898    1.660938   -0.128287
     23          6           0        6.041606    1.531974   -0.941686
     24          6           0        6.558463    2.662738   -1.574960
     25          6           0        5.967665    3.916357   -1.413365
     26          6           0        4.837573    4.038163   -0.602216
     27          6           0        4.308576    2.920635    0.036816
     28          6           0        1.386234   -0.853478    0.930113
     29          8           0        1.634128    0.110795    1.666801
     30          6           0        0.136106   -1.145702    0.265653
     31          6           0       -1.113053   -0.434938    0.342277
     32          6           0       -1.306900    0.792768    1.199017
     33          1           0       -5.528639    2.644193    2.753251
     34          1           0       -4.617355    1.139115    2.665187
     35          1           0       -4.124314    2.537726    1.694645
     36          1           0       -7.568946    2.670793    1.674626
     37          1           0       -9.121425    1.975926   -0.129787
     38          1           0       -8.316222    0.412304   -1.901205
     39          1           0       -5.991007   -0.434922   -1.843744
     40          1           0       -3.596453    0.546436    0.789395
     41          1           0        3.089615   -3.459709   -0.409123
     42          1           0        3.432191   -1.084101    2.279506
     43          1           0        5.178161   -2.738173    2.457679
     44          1           0        4.829789   -3.435135    0.885022
     45          1           0        3.660147   -3.627389    2.229201
     46          1           0        3.472855    0.791775    1.093118
     47          1           0        6.499368    0.561197   -1.070305
     48          1           0        7.438014    2.554816   -2.204198
     49          1           0        6.381288    4.787817   -1.912669
     50          1           0        4.363009    5.005986   -0.464560
     51          1           0        3.427205    3.018350    0.667012
     52          1           0       -1.921340    0.575608    2.084297
     53          1           0       -0.343466    1.148543    1.563411
     54          1           0       -1.787042    1.602309    0.637725
 ---------------------------------------------------------------------

 The electronic state is 1-A.
 Alpha  occ. eigenvalues --  -88.92391 -19.15009 -19.13544 -19.12851 -14.42655
 Alpha  occ. eigenvalues --  -14.38678 -14.38116 -14.35921 -10.32585 -10.31130
 Alpha  occ. eigenvalues --  -10.30650 -10.29570 -10.27485 -10.26221 -10.23984
 Alpha  occ. eigenvalues --  -10.23889 -10.23849 -10.23638 -10.22448 -10.20639
 Alpha  occ. eigenvalues --  -10.20482 -10.20444 -10.20204 -10.19456 -10.19363
 Alpha  occ. eigenvalues --  -10.19135 -10.19071 -10.18798 -10.18760 -10.18644
 Alpha  occ. eigenvalues --  -10.18526 -10.18284  -7.98429  -5.94837  -5.94474
 Alpha  occ. eigenvalues --   -5.94115  -1.07426  -1.05156  -1.04940  -1.01255
 Alpha  occ. eigenvalues --   -0.95150  -0.95080  -0.94320  -0.89134  -0.85161
 Alpha  occ. eigenvalues --   -0.84879  -0.80798  -0.78941  -0.77995  -0.77706
 Alpha  occ. eigenvalues --   -0.75020  -0.74707  -0.74557  -0.71501  -0.70131
 Alpha  occ. eigenvalues --   -0.69067  -0.67779  -0.64672  -0.64337  -0.62262
 Alpha  occ. eigenvalues --   -0.61370  -0.60780  -0.59031  -0.57396  -0.56805
 Alpha  occ. eigenvalues --   -0.55998  -0.55003  -0.53632  -0.52671  -0.52217
 Alpha  occ. eigenvalues --   -0.50700  -0.49233  -0.48315  -0.47906  -0.47400
 Alpha  occ. eigenvalues --   -0.45875  -0.45564  -0.45317  -0.44692  -0.44630
 Alpha  occ. eigenvalues --   -0.44021  -0.43823  -0.43288  -0.43175  -0.42754
 Alpha  occ. eigenvalues --   -0.42616  -0.42562  -0.41961  -0.41625  -0.41364
 Alpha  occ. eigenvalues --   -0.41163  -0.40346  -0.40120  -0.40061  -0.39452
 Alpha  occ. eigenvalues --   -0.38485  -0.37444  -0.36820  -0.36344  -0.36156
 Alpha  occ. eigenvalues --   -0.35935  -0.35662  -0.34760  -0.34615  -0.31520
 Alpha  occ. eigenvalues --   -0.31133  -0.30443  -0.29814  -0.29124  -0.27317
 Alpha  occ. eigenvalues --   -0.26592  -0.26289  -0.25191  -0.24685  -0.24005
 Alpha  occ. eigenvalues --   -0.22367  -0.22007
 Alpha virt. eigenvalues --   -0.07305  -0.04367  -0.02064  -0.01511  -0.00165
 Alpha virt. eigenvalues --    0.00009   0.01044   0.01846   0.03451   0.06144
 Alpha virt. eigenvalues --    0.07317   0.08227   0.08826   0.09439   0.10061

 Mulliken charges:
               1
     1  C   -0.569202
     2  C    0.142274
     3  C   -0.198473
     4  C   -0.118669
     5  C   -0.149115
     6  C   -0.158545
     7  C    0.282950
     8  N   -0.774048
     9  C    0.653591
    10  O   -0.514007
    11  C   -0.318733
    12  S    0.340019
    13  C    0.009901
    14  N   -0.467913
    15  C    0.238992
    16  N   -0.472052
    17  C   -0.100292
    18  C   -0.470448
    19  C    0.632732
    20  O   -0.505606
    21  N   -0.739265
    22  C    0.348311
    23  C   -0.161662
    24  C   -0.144133
    25  C   -0.125680
    26  C   -0.133617
    27  C   -0.198010
    28  C    0.595591
    29  O   -0.563761
    30  C    0.034112
    31  C    0.184270
    32  C   -0.591426
    33  H    0.171863
    34  H    0.161550
    35  H    0.163751
    36  H    0.123315
    37  H    0.128294
    38  H    0.134117
    39  H    0.191602
    40  H    0.364457
    41  H    0.192031
    42  H    0.197902
    43  H    0.176164
    44  H    0.189331
    45  H    0.161403
    46  H    0.379519
    47  H    0.182149
    48  H    0.134458
    49  H    0.129284
    50  H    0.131864
    51  H    0.135183
    52  H    0.169992
    53  H    0.219523
    54  H    0.174160
 Sum of Mulliken charges =  -0.00000

 Dipole moment (field-independent basis, Debye):
    X=              0.0830    Y=              2.2234    Z=              4.3545  Tot=              4.8900
 Quadrupole moment (field-independent basis, Debye-Ang):
   XX=           -196.1101   YY=           -185.2984   ZZ=           -191.4270
   XY=            -11.5723   XZ=             -6.6125   YZ=             -6.9455

 Normal termination of Gaussian 16 at Fri Nov  4 21:25:08 2022.
