 Gaussian 16, Revision B.01,
 Gaussian 16:  ES64L-G16RevB.01 20-Dec-2017

 -----------------------------
 #p b3lyp/6-31g(d) opt SCF=XQC
 -----------------------------

 ------------------------------
 Gaussian input prepared by ASE
 ------------------------------
 Symbolic Z-matrix:
 Charge =  0 Multiplicity = 1

 SCF Done:  E(RB3LYP) =  -1846.66528257     A.U. after   16 cycles
 SCF Done:  E(RB3LYP) =  -1846.67487769     A.U. after   15 cycles
 SCF Done:  E(RB3LYP) =  -1846.66568388     A.U. after   14 cycles
 SCF Done:  E(RB3LYP) =  -1846.67534689     A.U. after   13 cycles
 SCF Done:  E(RB3LYP) =  -1846.67759586     A.U. after   11 cycles
 SCF Done:  E(RB3LYP) =  -1846.68155139     A.U. after   12 cycles
 SCF Done:  E(RB3LYP) =  -1846.68007650     A.U. after   14 cycles
 SCF Done:  E(RB3LYP) =  -1846.68497562     A.U. after   13 cycles
 SCF Done:  E(RB3LYP) =  -1846.68052682     A.U. after   14 cycles
 SCF Done:  E(RB3LYP) =  -1846.68600443     A.U. after   13 cycles
 SCF Done:  E(RB3LYP) =  -1846.68707656     A.U. after   11 cycles
 SCF Done:  E(RB3LYP) =  -1846.68713750     A.U. after   12 cycles
 SCF Done:  E(RB3LYP) =  -1846.68718569     A.U. after   11 cycles
 SCF Done:  E(RB3LYP) =  -1846.68722370     A.U. after   11 cycles
 SCF Done:  E(RB3LYP) =  -1846.68723891     A.U. after   10 cycles
 SCF Done:  E(RB3LYP) =  -1846.68725130     A.U. after   10 cycles
 SCF Done:  E(RB3LYP) =  -1846.68725774     A.U. after    9 cycles
 SCF Done:  E(RB3LYP) =  -1846.68725912     A.U. after    8 cycles
 SCF Done:  E(RB3LYP) =  -1846.68725940     A.U. after    7 cycles
 SCF Done:  E(RB3LYP) =  -1846.68725952     A.U. after    7 cycles
 Optimization completed.
    -- Stationary point found.

                         Standard orientation:
 ---------------------------------------------------------------------
 Center     Atomic      Atomic             Coordinates (Angstroms)
 Number     Number       Type             X           Y           Z
 ---------------------------------------------------------------------
      1          8           0       -0.711449   -2.872537    0.951598
      2          6           0       -1.385673   -2.520558   -0.011391
      3          6           0       -1.121924   -3.033484   -1.431319
      4         16           0        0.596878   -2.697078   -2.011078
      5          6           0        0.727859   -0.976682   -1.638704
      6          7           0       -0.044731   -0.023801   -2.097069
      7          7           0        0.375625    1.166179   -1.535228
      8          6           0        1.420390    0.904998   -0.770395
      9          7           0        2.188101    1.846481   -0.115271
     10          6           0        2.431672    1.702803    1.331297
     11          6           0        3.788143    2.340177    1.690798
     12          6           0        4.101981    3.535380    0.762730
     13          6           0        2.801776    4.209049    0.308250
     14          6           0        1.934665    3.240923   -0.523622
     15          7           0        1.697252   -0.450283   -0.788112
     16          6           0        2.802633   -1.135970   -0.183452
     17          6           0        4.104448   -0.797952   -0.565372
     18          6           0        5.184192   -1.455812    0.023943
     19          6           0        4.962292   -2.450729    0.978745
     20          6           0        3.657496   -2.786414    1.345566
     21          6           0        2.567755   -2.129778    0.771673
     22          7           0       -2.425836   -1.640119    0.036542
     23          6           0       -2.915516   -0.961168    1.170515
     24          6           0       -2.933161   -1.571173    2.432745
     25          6           0       -3.425565   -0.895896    3.545043
     26          6           0       -3.928677    0.397920    3.408885
     27          6           0       -3.921510    1.011371    2.159586
     28          6           0       -3.411685    0.357065    1.029434
     29          7           0       -3.336123    1.085500   -0.195846
     30          6           0       -2.947630    2.508971   -0.198017
     31          6           0       -2.662287    2.804120   -1.680680
     32          6           0       -3.556720    1.802975   -2.423669
     33          6           0       -3.722672    0.652930   -1.443056
     34          8           0       -4.142352   -0.471601   -1.715125
     35          1           0       -1.194292   -4.125712   -1.433145
     36          1           0       -1.829839   -2.627692   -2.156795
     37          1           0        1.612483    2.183812    1.891556
     38          1           0        2.416778    0.645971    1.598612
     39          1           0        4.582102    1.589566    1.612943
     40          1           0        3.754801    2.664914    2.738245
     41          1           0        4.649069    3.183327   -0.120291
     42          1           0        4.753492    4.255037    1.271377
     43          1           0        3.006727    5.104286   -0.289493
     44          1           0        2.244800    4.549591    1.191093
     45          1           0        2.175959    3.317422   -1.588902
     46          1           0        0.868983    3.493859   -0.420421
     47          1           0        4.260696   -0.026948   -1.312726
     48          1           0        6.197182   -1.196341   -0.270915
     49          1           0        5.804842   -2.965350    1.432522
     50          1           0        3.481062   -3.563756    2.083562
     51          1           0        1.548463   -2.389279    1.042777
     52          1           0       -2.942202   -1.436870   -0.822665
     53          1           0       -2.532251   -2.572052    2.525480
     54          1           0       -3.421749   -1.385508    4.514697
     55          1           0       -4.327895    0.929748    4.267753
     56          1           0       -4.315720    2.016755    2.053851
     57          1           0       -3.765663    3.131605    0.190100
     58          1           0       -2.073184    2.651771    0.442928
     59          1           0       -2.870946    3.847266   -1.934925
     60          1           0       -1.610786    2.588309   -1.889191
     61          1           0       -3.132617    1.429435   -3.358500
     62          1           0       -4.553625    2.207086   -2.646380
 ---------------------------------------------------------------------

 The electronic state is 1-A.
 Alpha  occ. eigenvalues --  -88.88864 -19.12169 -19.11457 -14.40082 -14.37762
 Alpha  occ. eigenvalues --  -14.35867 -14.35569 -14.33897 -14.33253 -10.29226
 Alpha  occ. eigenvalues --  -10.29072 -10.27688 -10.26251 -10.24058 -10.23637
 Alpha  occ. eigenvalues --  -10.23471 -10.22920 -10.22398 -10.22145 -10.21742
 Alpha  occ. eigenvalues --  -10.20245 -10.20055 -10.19915 -10.19714 -10.19524
 Alpha  occ. eigenvalues --  -10.19433 -10.19149 -10.19142 -10.19138 -10.18997
 Alpha  occ. eigenvalues --  -10.18808 -10.18765 -10.18746 -10.18686  -7.94905
 Alpha  occ. eigenvalues --   -5.91466  -5.91061  -5.90319  -1.05897  -1.04124
 Alpha  occ. eigenvalues --   -1.03167  -0.95692  -0.95019  -0.92957  -0.92801
 Alpha  occ. eigenvalues --   -0.85364  -0.84992  -0.82931  -0.79929  -0.79799
 Alpha  occ. eigenvalues --   -0.76961  -0.75934  -0.75423  -0.75341  -0.74423
 Alpha  occ. eigenvalues --   -0.73407  -0.71709  -0.68568  -0.66973  -0.64166
 Alpha  occ. eigenvalues --   -0.63800  -0.63314  -0.62918  -0.61851  -0.60324
 Alpha  occ. eigenvalues --   -0.59491  -0.57602  -0.56635  -0.56296  -0.55149
 Alpha  occ. eigenvalues --   -0.53417  -0.52189  -0.51083  -0.50498  -0.49770
 Alpha  occ. eigenvalues --   -0.49608  -0.48682  -0.48597  -0.48004  -0.46800
 Alpha  occ. eigenvalues --   -0.46217  -0.45864  -0.45107  -0.44443  -0.44356
 Alpha  occ. eigenvalues --   -0.43680  -0.43057  -0.42914  -0.42438  -0.42259
 Alpha  occ. eigenvalues --   -0.42086  -0.41328  -0.41167  -0.41001  -0.40471
 Alpha  occ. eigenvalues --   -0.40195  -0.38878  -0.38666  -0.38431  -0.37256
 Alpha  occ. eigenvalues --   -0.37020  -0.36789  -0.36637  -0.36174  -0.35713
 Alpha  occ. eigenvalues --   -0.35487  -0.35348  -0.34873  -0.34027  -0.33166
 Alpha  occ. eigenvalues --   -0.32736  -0.32533  -0.30684  -0.29866  -0.29087
 Alpha  occ. eigenvalues --   -0.28387  -0.28276  -0.26945  -0.26073  -0.25835
 Alpha  occ. eigenvalues --   -0.25024  -0.24401  -0.23567  -0.23425  -0.21674
 Alpha  occ. eigenvalues --   -0.20631
 Alpha virt. eigenvalues --   -0.02106  -0.01864  -0.01052  -0.00939   0.00368
 Alpha virt. eigenvalues --    0.02902   0.03167   0.04883   0.06102   0.07212
 Alpha virt. eigenvalues --    0.08497   0.08851   0.09461   0.09932   0.10557

 Mulliken charges:
               1
     1  O   -0.512279
     2  C    0.615640
     3  C   -0.524945
     4  S    0.173589
     5  C    0.231183
     6  N   -0.311377
     7  N   -0.414883
     8  C    0.708280
     9  N   -0.496733
    10  C   -0.153355
    11  C   -0.265331
    12  C   -0.254462
    13  C   -0.305173
    14  C   -0.104632
    15  N   -0.556598
    16  C    0.206993
    17  C   -0.121125
    18  C   -0.149528
    19  C   -0.115610
    20  C   -0.157263
    21  C   -0.130260
    22  N   -0.730770
    23  C    0.311860
    24  C   -0.150656
    25  C   -0.142209
    26  C   -0.133656
    27  C   -0.182286
    28  C    0.278829
    29  N   -0.529605
    30  C   -0.124187
    31  C   -0.326581
    32  C   -0.367692
    33  C    0.608375
    34  O   -0.551283
    35  H    0.204551
    36  H    0.210583
    37  H    0.139108
    38  H    0.174200
    39  H    0.149714
    40  H    0.135450
    41  H    0.143922
    42  H    0.137453
    43  H    0.145865
    44  H    0.140432
    45  H    0.158839
    46  H    0.148431
    47  H    0.149601
    48  H    0.137524
    49  H    0.135531
    50  H    0.144017
    51  H    0.213688
    52  H    0.404933
    53  H    0.167204
    54  H    0.133565
    55  H    0.130637
    56  H    0.133734
    57  H    0.147331
    58  H    0.167324
    59  H    0.140823
    60  H    0.224202
    61  H    0.191687
    62  H    0.167383
 Sum of Mulliken charges =  -0.00000

 Dipole moment (field-independent basis, Debye):
    X=              2.4602    Y=              3.8920    Z=              2.9175  Tot=              5.4509
 Quadrupole moment (field-independent basis, Debye-Ang):
   XX=           -190.3235   YY=           -190.0091   ZZ=           -205.2279
   XY=             -7.0999   XZ=             -2.1379   YZ=             -0.4399

 Normal termination of Gaussian 16 at Fri Nov  4 08:55:07 2022.
