 Gaussian 16, Revision B.01,
 Gaussian 16:  ES64L-G16RevB.01 20-Dec-2017

 -------------------------------------------------------------------
 #p b3lyp/6-31g(d) 6D 10F nosymm GFInput td=(50-50,nstate=2) SCF=XQC
 -------------------------------------------------------------------

 ------------------------------
 Gaussian input prepared by ASE
 ------------------------------
 Symbolic Z-matrix:
 Charge =  0 Multiplicity = 1

                          Input orientation:
 ---------------------------------------------------------------------
 Center     Atomic      Atomic             Coordinates (Angstroms)
 Number     Number       Type             X           Y           Z
 ---------------------------------------------------------------------
      1          8           0       -0.542746   -3.224532   -1.334041
      2          6           0       -1.407423   -2.491423   -1.803829
      3          6           0       -1.388798   -2.029472   -3.265029
      4         16           0        0.165425   -1.146601   -3.721645
      5          6           0        0.263084    0.027334   -2.407141
      6          7           0       -0.637457    0.928865   -2.105080
      7          7           0       -0.188875    1.616594   -0.994125
      8          6           0        0.995865    1.131030   -0.669566
      9          7           0        1.817254    1.622465    0.324804
     10          6           0        2.339604    0.703879    1.352364
     11          6           0        3.699667    1.220387    1.861230
     12          6           0        3.760133    2.763804    1.810994
     13          6           0        2.359766    3.355717    2.009800
     14          6           0        1.408919    2.930103    0.871422
     15          7           0        1.343795    0.106769   -1.531882
     16          6           0        2.582521   -0.613669   -1.596494
     17          6           0        3.765652    0.087943   -1.847061
     18          6           0        4.974693   -0.605522   -1.904040
     19          6           0        4.997587   -1.990223   -1.722874
     20          6           0        3.808526   -2.681655   -1.482481
     21          6           0        2.592693   -1.999768   -1.412887
     22          7           0       -2.469588   -1.985890   -1.114155
     23          6           0       -2.773813   -2.185316    0.247584
     24          6           0       -2.514990   -3.409848    0.879386
     25          6           0       -2.825791   -3.600000    2.222111
     26          6           0       -3.421082   -2.571424    2.952372
     27          6           0       -3.687916   -1.353376    2.334085
     28          6           0       -3.364677   -1.133307    0.987842
     29          7           0       -3.566704    0.173318    0.449743
     30          6           0       -3.270418    1.370688    1.259510
     31          6           0       -3.290257    2.516163    0.232710
     32          6           0       -4.249021    2.008030   -0.852142
     33          6           0       -4.157235    0.493766   -0.750530
     34          8           0       -4.553894   -0.310688   -1.593287
     35          1           0       -1.395603   -2.909805   -3.915546
     36          1           0       -2.244484   -1.397424   -3.510877
     37          1           0        1.615017    0.628242    2.180364
     38          1           0        2.438230   -0.295929    0.929009
     39          1           0        4.507208    0.796010    1.254904
     40          1           0        3.847083    0.862885    2.887959
     41          1           0        4.149061    3.086469    0.837550
     42          1           0        4.452878    3.145278    2.569728
     43          1           0        2.394068    4.450129    2.052632
     44          1           0        1.961793    3.022396    2.977332
     45          1           0        1.438216    3.651013    0.047816
     46          1           0        0.369292    2.899622    1.229966
     47          1           0        3.731098    1.162813   -1.991489
     48          1           0        5.895982   -0.063758   -2.099315
     49          1           0        5.939949   -2.528823   -1.772908
     50          1           0        3.821892   -3.759368   -1.346897
     51          1           0        1.660711   -2.528722   -1.235654
     52          1           0       -3.151050   -1.406288   -1.609989
     53          1           0       -2.045403   -4.196310    0.303147
     54          1           0       -2.608699   -4.554619    2.692789
     55          1           0       -3.680307   -2.713026    3.997657
     56          1           0       -4.153678   -0.554666    2.901983
     57          1           0       -4.034977    1.508381    2.036670
     58          1           0       -2.299993    1.251601    1.749360
     59          1           0       -3.604664    3.461429    0.684319
     60          1           0       -2.286751    2.635322   -0.185003
     61          1           0       -3.989202    2.323975   -1.865048
     62          1           0       -5.292169    2.299034   -0.668061
 ---------------------------------------------------------------------

 SCF Done:  E(RB3LYP) =  -1846.68726631     A.U. after   15 cycles

 Excitation energies and oscillator strengths:

 Excited state symmetry could not be determined.
 Excited State   1:      Triplet-?Sym    3.4316 eV  361.30 nm  f=0.0000  <S**2>=2.000
     123 ->129         0.29895
     125 ->127         0.47668
     125 ->128        -0.22075
     125 ->129        -0.10808
     125 ->131        -0.14579
     126 ->127        -0.10921
 This state for optimization and/or second-order correction.
 Total Energy, E(TD-HF/TD-DFT) =  -1846.56115856
 Copying the excited state density for this state as the 1-particle RhoCI density.

 Excited state symmetry could not be determined.
 Excited State   2:      Triplet-?Sym    3.6934 eV  335.69 nm  f=0.0000  <S**2>=2.000
     118 ->128         0.19130
     120 ->128         0.10466
     120 ->130         0.38902
     122 ->127         0.13734
     122 ->128         0.37337
     124 ->128         0.17637
     124 ->130        -0.10053

 Excited state symmetry could not be determined.
 Excited State   3:      Singlet-?Sym    4.3726 eV  283.55 nm  f=0.0307  <S**2>=0.000
     126 ->127         0.52552
     126 ->128         0.45442

 Excited state symmetry could not be determined.
 Excited State   4:      Singlet-?Sym    4.4456 eV  278.89 nm  f=0.0015  <S**2>=0.000
     124 ->127         0.10007
     126 ->127        -0.43197
     126 ->128         0.53048

 Alpha  occ. eigenvalues --  -88.88864 -19.12169 -19.11456 -14.40082 -14.37762
 Alpha  occ. eigenvalues --  -14.35867 -14.35569 -14.33897 -14.33253 -10.29226
 Alpha  occ. eigenvalues --  -10.29072 -10.27688 -10.26250 -10.24058 -10.23637
 Alpha  occ. eigenvalues --  -10.23471 -10.22920 -10.22398 -10.22145 -10.21742
 Alpha  occ. eigenvalues --  -10.20245 -10.20055 -10.19915 -10.19714 -10.19524
 Alpha  occ. eigenvalues --  -10.19433 -10.19149 -10.19142 -10.19137 -10.18997
 Alpha  occ. eigenvalues --  -10.18807 -10.18765 -10.18746 -10.18686  -7.94904
 Alpha  occ. eigenvalues --   -5.91465  -5.91061  -5.90319  -1.05897  -1.04124
 Alpha  occ. eigenvalues --   -1.03167  -0.95692  -0.95019  -0.92957  -0.92801
 Alpha  occ. eigenvalues --   -0.85364  -0.84992  -0.82931  -0.79929  -0.79800
 Alpha  occ. eigenvalues --   -0.76961  -0.75934  -0.75423  -0.75341  -0.74423
 Alpha  occ. eigenvalues --   -0.73407  -0.71709  -0.68568  -0.66973  -0.64166
 Alpha  occ. eigenvalues --   -0.63800  -0.63314  -0.62918  -0.61851  -0.60324
 Alpha  occ. eigenvalues --   -0.59491  -0.57602  -0.56635  -0.56296  -0.55149
 Alpha  occ. eigenvalues --   -0.53417  -0.52189  -0.51083  -0.50498  -0.49770
 Alpha  occ. eigenvalues --   -0.49608  -0.48682  -0.48597  -0.48004  -0.46800
 Alpha  occ. eigenvalues --   -0.46217  -0.45864  -0.45107  -0.44443  -0.44355
 Alpha  occ. eigenvalues --   -0.43680  -0.43057  -0.42914  -0.42438  -0.42259
 Alpha  occ. eigenvalues --   -0.42086  -0.41328  -0.41167  -0.41001  -0.40471
 Alpha  occ. eigenvalues --   -0.40195  -0.38878  -0.38666  -0.38431  -0.37256
 Alpha  occ. eigenvalues --   -0.37020  -0.36789  -0.36637  -0.36174  -0.35713
 Alpha  occ. eigenvalues --   -0.35487  -0.35348  -0.34873  -0.34027  -0.33166
 Alpha  occ. eigenvalues --   -0.32736  -0.32533  -0.30684  -0.29866  -0.29087
 Alpha  occ. eigenvalues --   -0.28388  -0.28276  -0.26945  -0.26073  -0.25835
 Alpha  occ. eigenvalues --   -0.25024  -0.24401  -0.23567  -0.23425  -0.21674
 Alpha  occ. eigenvalues --   -0.20631
 Alpha virt. eigenvalues --   -0.02106  -0.01864  -0.01052  -0.00939   0.00368
 Alpha virt. eigenvalues --    0.02902   0.03167   0.04883   0.06102   0.07212
 Alpha virt. eigenvalues --    0.08497   0.08851   0.09461   0.09932   0.10557

 Mulliken charges:
               1
     1  O   -0.512269
     2  C    0.615628
     3  C   -0.524949
     4  S    0.173599
     5  C    0.231184
     6  N   -0.311380
     7  N   -0.414868
     8  C    0.708290
     9  N   -0.496739
    10  C   -0.153377
    11  C   -0.265347
    12  C   -0.254454
    13  C   -0.305150
    14  C   -0.104642
    15  N   -0.556613
    16  C    0.207005
    17  C   -0.121125
    18  C   -0.149523
    19  C   -0.115613
    20  C   -0.157266
    21  C   -0.130266
    22  N   -0.730752
    23  C    0.311838
    24  C   -0.150651
    25  C   -0.142218
    26  C   -0.133660
    27  C   -0.182272
    28  C    0.278836
    29  N   -0.529613
    30  C   -0.124186
    31  C   -0.326575
    32  C   -0.367711
    33  C    0.608387
    34  O   -0.551288
    35  H    0.204551
    36  H    0.210581
    37  H    0.139111
    38  H    0.174205
    39  H    0.149718
    40  H    0.135454
    41  H    0.143920
    42  H    0.137453
    43  H    0.145861
    44  H    0.140428
    45  H    0.158840
    46  H    0.148431
    47  H    0.149600
    48  H    0.137524
    49  H    0.135530
    50  H    0.144017
    51  H    0.213688
    52  H    0.404931
    53  H    0.167207
    54  H    0.133567
    55  H    0.130638
    56  H    0.133735
    57  H    0.147329
    58  H    0.167324
    59  H    0.140822
    60  H    0.224206
    61  H    0.191691
    62  H    0.167383
 Sum of Mulliken charges =  -0.00000

 Dipole moment (field-independent basis, Debye):
    X=              2.7361    Y=              1.7945    Z=              4.3595  Tot=              5.4508
 Quadrupole moment (field-independent basis, Debye-Ang):
   XX=           -191.9011   YY=           -197.1635   ZZ=           -202.3629
   XY=             -3.8445   XZ=            -10.1831   YZ=              4.4914

 Normal termination of Gaussian 16 at Sat Nov  5 12:26:40 2022.
