 Gaussian 16, Revision B.01,
 Gaussian 16:  ES64L-G16RevB.01 20-Dec-2017

 -------------------------------------------------------------------
 #p b3lyp/6-31g(d) 6D 10F nosymm GFInput td=(50-50,nstate=2) SCF=XQC
 -------------------------------------------------------------------

 ------------------------------
 Gaussian input prepared by ASE
 ------------------------------
 Symbolic Z-matrix:
 Charge =  0 Multiplicity = 1

                          Input orientation:
 ---------------------------------------------------------------------
 Center     Atomic      Atomic             Coordinates (Angstroms)
 Number     Number       Type             X           Y           Z
 ---------------------------------------------------------------------
      1          6           0       -3.070514   -4.054702   -2.121394
      2          6           0       -2.511749   -2.702801   -2.598170
      3          6           0       -1.885306   -1.916605   -1.471203
      4          7           0       -0.673430   -2.329503   -1.062715
      5          6           0       -0.043732   -1.718295   -0.045572
      6          7           0        1.142134   -2.310953    0.322736
      7          6           0        1.578954   -3.486076   -0.478520
      8          6           0        2.838939   -4.172887    0.056318
      9          6           0        4.120510   -3.310479    0.026746
     10          7           0        3.892099   -1.887732    0.292293
     11          6           0        3.880665   -1.040234   -0.802949
     12          8           0        3.998408   -1.448069   -1.954925
     13          6           0        3.804505    0.446203   -0.560102
     14          6           0        2.951237    1.206354   -1.370012
     15          6           0        2.913020    2.592512   -1.247541
     16          6           0        3.754496    3.234527   -0.334109
     17          6           0        3.681367    4.728585   -0.161985
     18          9           0        2.792927    5.073634    0.799585
     19          9           0        3.293987    5.348838   -1.296867
     20          9           0        4.873983    5.250613    0.202088
     21          6           0        4.632421    2.487507    0.455268
     22          6           0        4.652289    1.098704    0.345719
     23          6           0        3.215952   -1.565077    1.542754
     24          6           0        1.758759   -2.126202    1.623832
     25          6           0       -0.643941   -0.543991    0.529185
     26          6           0       -0.392824    0.544425    1.446413
     27          6           0        0.803115    0.971007    2.248765
     28          7           0       -1.437156    1.350677    1.501654
     29          7           0       -2.394197    0.865261    0.656702
     30          6           0       -3.618006    1.581666    0.515500
     31          6           0       -4.722485    1.024752   -0.139692
     32          6           0       -5.902242    1.761187   -0.240604
     33          6           0       -6.022847    3.045695    0.300278
     34          6           0       -7.298745    3.842014    0.158828
     35          6           0       -4.906196    3.576820    0.959565
     36          6           0       -3.715641    2.865424    1.068430
     37          6           0       -1.941931   -0.261327    0.021467
     38          7           0       -2.595065   -0.920633   -0.947760
     39          1           0       -2.277380   -4.664635   -1.676856
     40          1           0       -3.503686   -4.611367   -2.959731
     41          1           0       -3.853629   -3.910292   -1.368638
     42          1           0       -3.311542   -2.099360   -3.037613
     43          1           0       -1.749184   -2.876316   -3.366065
     44          1           0        0.761662   -4.213783   -0.514862
     45          1           0        1.743546   -3.150330   -1.506152
     46          1           0        2.662766   -4.569948    1.062151
     47          1           0        3.007123   -5.053120   -0.575831
     48          1           0        4.837924   -3.686376    0.767523
     49          1           0        4.583891   -3.364495   -0.957774
     50          1           0        2.326828    0.701102   -2.099450
     51          1           0        2.243395    3.177218   -1.869244
     52          1           0        5.303406    2.991085    1.143325
     53          1           0        5.344794    0.519985    0.950228
     54          1           0        3.800640   -1.964489    2.381367
     55          1           0        3.193408   -0.483599    1.651559
     56          1           0        1.758507   -3.080234    2.163180
     57          1           0        1.141344   -1.454684    2.214142
     58          1           0        1.706123    1.017965    1.632472
     59          1           0        0.606000    1.973960    2.634974
     60          1           0        1.006161    0.323223    3.109831
     61          1           0       -4.650021    0.036933   -0.573499
     62          1           0       -6.752198    1.315137   -0.752420
     63          1           0       -7.251080    4.526175   -0.699317
     64          1           0       -7.491474    4.453378    1.047539
     65          1           0       -8.163827    3.188286    0.005085
     66          1           0       -4.965130    4.570850    1.397673
     67          1           0       -2.862127    3.286892    1.584065
 ---------------------------------------------------------------------

 SCF Done:  E(RB3LYP) =  -1787.73515184     A.U. after   16 cycles

 Excitation energies and oscillator strengths:

 Excited state symmetry could not be determined.
 Excited State   1:      Triplet-?Sym    3.1596 eV  392.41 nm  f=0.0000  <S**2>=2.000
     136 ->139         0.22167
     136 ->141        -0.12699
     137 ->139         0.61092
 This state for optimization and/or second-order correction.
 Total Energy, E(TD-HF/TD-DFT) =  -1787.61904034
 Copying the excited state density for this state as the 1-particle RhoCI density.

 Excited state symmetry could not be determined.
 Excited State   2:      Triplet-?Sym    3.4420 eV  360.21 nm  f=0.0000  <S**2>=2.000
     135 ->142         0.23577
     136 ->139        -0.41106
     137 ->141         0.44704
     137 ->143        -0.13295

 Excited state symmetry could not be determined.
 Excited State   3:      Singlet-?Sym    3.7526 eV  330.39 nm  f=0.0039  <S**2>=0.000
     136 ->138         0.10636
     137 ->138         0.69805

 Excited state symmetry could not be determined.
 Excited State   4:      Singlet-?Sym    4.0968 eV  302.63 nm  f=0.2393  <S**2>=0.000
     137 ->139         0.69040

 Alpha  occ. eigenvalues --  -24.72695 -24.72687 -24.72091 -19.12572 -14.41218
 Alpha  occ. eigenvalues --  -14.37605 -14.37542 -14.35333 -14.32062 -14.31567
 Alpha  occ. eigenvalues --  -10.43547 -10.29987 -10.28150 -10.25739 -10.25254
 Alpha  occ. eigenvalues --  -10.24226 -10.24106 -10.22997 -10.22852 -10.22731
 Alpha  occ. eigenvalues --  -10.22558 -10.22341 -10.22218 -10.21813 -10.21719
 Alpha  occ. eigenvalues --  -10.21573 -10.21233 -10.20453 -10.20224 -10.19478
 Alpha  occ. eigenvalues --  -10.18861 -10.18095 -10.18035 -10.18025 -10.18019
 Alpha  occ. eigenvalues --  -10.17908 -10.17877 -10.17434  -1.30254  -1.21735
 Alpha  occ. eigenvalues --   -1.21227  -1.05380  -1.04524  -0.99168  -0.95913
 Alpha  occ. eigenvalues --   -0.93907  -0.88434  -0.87952  -0.86469  -0.83004
 Alpha  occ. eigenvalues --   -0.80913  -0.80230  -0.79530  -0.77078  -0.76424
 Alpha  occ. eigenvalues --   -0.75759  -0.75282  -0.73753  -0.72387  -0.71953
 Alpha  occ. eigenvalues --   -0.70257  -0.68372  -0.67537  -0.65355  -0.64742
 Alpha  occ. eigenvalues --   -0.63652  -0.63148  -0.61335  -0.59826  -0.58791
 Alpha  occ. eigenvalues --   -0.58068  -0.58046  -0.57906  -0.57178  -0.56902
 Alpha  occ. eigenvalues --   -0.55406  -0.54446  -0.54175  -0.52227  -0.50974
 Alpha  occ. eigenvalues --   -0.50535  -0.48853  -0.47849  -0.47349  -0.47088
 Alpha  occ. eigenvalues --   -0.47007  -0.46052  -0.45859  -0.45608  -0.45491
 Alpha  occ. eigenvalues --   -0.45243  -0.44921  -0.44737  -0.44600  -0.43879
 Alpha  occ. eigenvalues --   -0.43161  -0.42832  -0.42656  -0.42319  -0.42165
 Alpha  occ. eigenvalues --   -0.41944  -0.41442  -0.41361  -0.41237  -0.40910
 Alpha  occ. eigenvalues --   -0.40768  -0.40302  -0.39865  -0.39735  -0.39365
 Alpha  occ. eigenvalues --   -0.38425  -0.37905  -0.37761  -0.37423  -0.37060
 Alpha  occ. eigenvalues --   -0.36644  -0.36206  -0.36093  -0.35772  -0.35323
 Alpha  occ. eigenvalues --   -0.34799  -0.34425  -0.34145  -0.33477  -0.32441
 Alpha  occ. eigenvalues --   -0.29964  -0.28339  -0.28124  -0.27667  -0.27423
 Alpha  occ. eigenvalues --   -0.26573  -0.25870  -0.25050  -0.24735  -0.24133
 Alpha  occ. eigenvalues --   -0.22302  -0.20428
 Alpha virt. eigenvalues --   -0.05033  -0.03232  -0.02520  -0.01010   0.00643
 Alpha virt. eigenvalues --    0.02217   0.02398   0.05602   0.06714   0.08276
 Alpha virt. eigenvalues --    0.08995   0.09883   0.10412   0.10730   0.11471

 Mulliken charges:
               1
     1  C   -0.446191
     2  C   -0.306362
     3  C    0.437923
     4  N   -0.563611
     5  C    0.460070
     6  N   -0.489653
     7  C   -0.104607
     8  C   -0.319591
     9  C   -0.144860
    10  N   -0.422516
    11  C    0.530658
    12  O   -0.506664
    13  C    0.061980
    14  C   -0.154147
    15  C   -0.165929
    16  C   -0.003249
    17  C    0.786646
    18  F   -0.260122
    19  F   -0.266916
    20  F   -0.269521
    21  C   -0.163465
    22  C   -0.171370
    23  C   -0.162822
    24  C   -0.168845
    25  C   -0.041895
    26  C    0.316954
    27  C   -0.554813
    28  N   -0.338444
    29  N   -0.502681
    30  C    0.304506
    31  C   -0.152772
    32  C   -0.203333
    33  C    0.191219
    34  C   -0.531001
    35  C   -0.193410
    36  C   -0.155631
    37  C    0.570638
    38  N   -0.545291
    39  H    0.155598
    40  H    0.145983
    41  H    0.151531
    42  H    0.154814
    43  H    0.153262
    44  H    0.166592
    45  H    0.185999
    46  H    0.145039
    47  H    0.162276
    48  H    0.145534
    49  H    0.196029
    50  H    0.168924
    51  H    0.165150
    52  H    0.159203
    53  H    0.151148
    54  H    0.150053
    55  H    0.175490
    56  H    0.159198
    57  H    0.171344
    58  H    0.177270
    59  H    0.188481
    60  H    0.159986
    61  H    0.176515
    62  H    0.122354
    63  H    0.164522
    64  H    0.156401
    65  H    0.155017
    66  H    0.122671
    67  H    0.162733
 Sum of Mulliken charges =  -0.00000

 Dipole moment (field-independent basis, Debye):
    X=              1.5886    Y=             -3.4291    Z=              3.2399  Tot=              4.9779
 Quadrupole moment (field-independent basis, Debye-Ang):
   XX=           -210.4989   YY=           -215.4293   ZZ=           -218.8406
   XY=            -13.7907   XZ=             19.0145   YZ=             -5.5406

 Normal termination of Gaussian 16 at Sat Nov  5 12:33:13 2022.
