 Gaussian 16, Revision B.01,
 Gaussian 16:  ES64L-G16RevB.01 20-Dec-2017

 -----------------------------
 #p b3lyp/6-31g(d) opt SCF=XQC
 -----------------------------

 ------------------------------
 Gaussian input prepared by ASE
 ------------------------------
 Symbolic Z-matrix:
 Charge =  0 Multiplicity = 1

 SCF Done:  E(RB3LYP) =  -1787.71483615     A.U. after   16 cycles
 SCF Done:  E(RB3LYP) =  -1787.72602382     A.U. after   15 cycles
 SCF Done:  E(RB3LYP) =  -1787.72974311     A.U. after   13 cycles
 SCF Done:  E(RB3LYP) =  -1787.73002040     A.U. after   14 cycles
 SCF Done:  E(RB3LYP) =  -1787.73218218     A.U. after   13 cycles
 SCF Done:  E(RB3LYP) =  -1787.73249391     A.U. after   12 cycles
 SCF Done:  E(RB3LYP) =  -1787.73264180     A.U. after   12 cycles
 SCF Done:  E(RB3LYP) =  -1787.73310134     A.U. after   11 cycles
 SCF Done:  E(RB3LYP) =  -1787.73362359     A.U. after   12 cycles
 SCF Done:  E(RB3LYP) =  -1787.73400706     A.U. after   12 cycles
 SCF Done:  E(RB3LYP) =  -1787.73515339     A.U. after    9 cycles
 SCF Done:  E(RB3LYP) =  -1787.73515430     A.U. after    9 cycles
 SCF Done:  E(RB3LYP) =  -1787.73515502     A.U. after    9 cycles
 SCF Done:  E(RB3LYP) =  -1787.73515548     A.U. after    8 cycles
 SCF Done:  E(RB3LYP) =  -1787.73515567     A.U. after    9 cycles
 SCF Done:  E(RB3LYP) =  -1787.73515582     A.U. after    7 cycles
 SCF Done:  E(RB3LYP) =  -1787.73515613     A.U. after    8 cycles
 SCF Done:  E(RB3LYP) =  -1787.73515627     A.U. after    8 cycles
 SCF Done:  E(RB3LYP) =  -1787.73515636     A.U. after    7 cycles
 SCF Done:  E(RB3LYP) =  -1787.73515639     A.U. after    6 cycles
 Optimization completed.
    -- Stationary point found.

                         Standard orientation:
 ---------------------------------------------------------------------
 Center     Atomic      Atomic             Coordinates (Angstroms)
 Number     Number       Type             X           Y           Z
 ---------------------------------------------------------------------
      1          6           0        2.986133    5.004007   -1.516226
      2          6           0        2.547245    3.672667   -2.150327
      3          6           0        1.998328    2.708142   -1.126134
      4          7           0        0.756544    2.961586   -0.679224
      5          6           0        0.188345    2.182667    0.256250
      6          7           0       -1.043666    2.620922    0.684332
      7          6           0       -1.586772    3.837993    0.022887
      8          6           0       -2.900177    4.343418    0.626905
      9          6           0       -4.100324    3.380138    0.489857
     10          7           0       -3.745364    1.962033    0.589232
     11          6           0       -3.663964    1.252246   -0.597156
     12          8           0       -3.822849    1.779429   -1.694459
     13          6           0       -3.455112   -0.239716   -0.528605
     14          6           0       -2.541608   -0.821706   -1.416665
     15          6           0       -2.380010   -2.203811   -1.456208
     16          6           0       -3.156906   -3.019898   -0.628526
     17          6           0       -2.950730   -4.511431   -0.631120
     18          9           0       -2.030662   -4.886007    0.288754
     19          9           0       -2.515214   -4.958477   -1.828288
     20          9           0       -4.090610   -5.175963   -0.337071
     21          6           0       -4.093901   -2.450692    0.237472
     22          6           0       -4.237396   -1.065849    0.290262
     23          6           0       -3.037375    1.557140    1.797432
     24          6           0       -1.635332    2.231951    1.951551
     25          6           0        0.893054    1.007271    0.693761
     26          6           0        0.743798   -0.198518    1.476584
     27          6           0       -0.405792   -0.819975    2.217018
     28          7           0        1.855778   -0.909945    1.443492
     29          7           0        2.761996   -0.246503    0.666244
     30          6           0        4.043848   -0.830259    0.449527
     31          6           0        5.091472   -0.105121   -0.130095
     32          6           0        6.331413   -0.717290   -0.309377
     33          6           0        6.568029   -2.040273    0.078939
     34          6           0        7.908852   -2.698437   -0.147033
     35          6           0        5.506012   -2.741455    0.665562
     36          6           0        4.257574   -2.155940    0.849767
     37          6           0        2.208593    0.901851    0.163950
     38          7           0        2.796094    1.724846   -0.718201
     39          1           0        2.144129    5.485284   -1.008198
     40          1           0        3.364264    5.690722   -2.281578
     41          1           0        3.782511    4.842894   -0.780978
     42          1           0        3.395331    3.197809   -2.652501
     43          1           0        1.768683    3.866158   -2.897106
     44          1           0       -0.837431    4.634545    0.076155
     45          1           0       -1.725777    3.610968   -1.037764
     46          1           0       -2.755178    4.634664    1.673110
     47          1           0       -3.148754    5.272893    0.100602
     48          1           0       -4.844752    3.602108    1.265285
     49          1           0       -4.571306    3.507169   -0.484287
     50          1           0       -1.967923   -0.181582   -2.078762
     51          1           0       -1.664099   -2.650447   -2.137957
     52          1           0       -4.714322   -3.088469    0.858401
     53          1           0       -4.975647   -0.625162    0.954107
     54          1           0       -3.651226    1.802741    2.673519
     55          1           0       -2.918478    0.476636    1.779702
     56          1           0       -1.717162    3.112910    2.598305
     57          1           0       -0.958010    1.553640    2.463147
     58          1           0       -1.303971   -0.874691    1.594341
     59          1           0       -0.118672   -1.839637    2.484933
     60          1           0       -0.661436   -0.297461    3.146487
     61          1           0        4.929629    0.916164   -0.446338
     62          1           0        7.136031   -0.141085   -0.760951
     63          1           0        7.918015   -3.279500   -1.079258
     64          1           0        8.159238   -3.389646    0.665527
     65          1           0        8.711803   -1.957156   -0.218708
     66          1           0        5.654950   -3.770584    0.985278
     67          1           0        3.447250   -2.708588    1.307975
 ---------------------------------------------------------------------

 The electronic state is 1-A.
 Alpha  occ. eigenvalues --  -24.72695 -24.72687 -24.72091 -19.12572 -14.41218
 Alpha  occ. eigenvalues --  -14.37605 -14.37542 -14.35333 -14.32062 -14.31567
 Alpha  occ. eigenvalues --  -10.43547 -10.29987 -10.28150 -10.25739 -10.25254
 Alpha  occ. eigenvalues --  -10.24226 -10.24107 -10.22997 -10.22852 -10.22731
 Alpha  occ. eigenvalues --  -10.22558 -10.22341 -10.22218 -10.21813 -10.21720
 Alpha  occ. eigenvalues --  -10.21573 -10.21233 -10.20453 -10.20224 -10.19478
 Alpha  occ. eigenvalues --  -10.18861 -10.18095 -10.18035 -10.18026 -10.18019
 Alpha  occ. eigenvalues --  -10.17908 -10.17877 -10.17434  -1.30254  -1.21735
 Alpha  occ. eigenvalues --   -1.21227  -1.05380  -1.04524  -0.99168  -0.95913
 Alpha  occ. eigenvalues --   -0.93907  -0.88434  -0.87952  -0.86469  -0.83004
 Alpha  occ. eigenvalues --   -0.80913  -0.80230  -0.79530  -0.77078  -0.76424
 Alpha  occ. eigenvalues --   -0.75759  -0.75283  -0.73753  -0.72387  -0.71953
 Alpha  occ. eigenvalues --   -0.70257  -0.68372  -0.67537  -0.65355  -0.64742
 Alpha  occ. eigenvalues --   -0.63652  -0.63148  -0.61335  -0.59826  -0.58791
 Alpha  occ. eigenvalues --   -0.58068  -0.58046  -0.57906  -0.57178  -0.56902
 Alpha  occ. eigenvalues --   -0.55406  -0.54446  -0.54175  -0.52227  -0.50974
 Alpha  occ. eigenvalues --   -0.50535  -0.48853  -0.47849  -0.47349  -0.47088
 Alpha  occ. eigenvalues --   -0.47007  -0.46052  -0.45859  -0.45608  -0.45491
 Alpha  occ. eigenvalues --   -0.45243  -0.44921  -0.44737  -0.44601  -0.43879
 Alpha  occ. eigenvalues --   -0.43161  -0.42832  -0.42656  -0.42319  -0.42165
 Alpha  occ. eigenvalues --   -0.41943  -0.41442  -0.41361  -0.41237  -0.40909
 Alpha  occ. eigenvalues --   -0.40768  -0.40302  -0.39865  -0.39735  -0.39365
 Alpha  occ. eigenvalues --   -0.38425  -0.37905  -0.37761  -0.37423  -0.37060
 Alpha  occ. eigenvalues --   -0.36644  -0.36206  -0.36093  -0.35772  -0.35323
 Alpha  occ. eigenvalues --   -0.34799  -0.34425  -0.34145  -0.33477  -0.32441
 Alpha  occ. eigenvalues --   -0.29964  -0.28340  -0.28124  -0.27667  -0.27423
 Alpha  occ. eigenvalues --   -0.26573  -0.25870  -0.25050  -0.24735  -0.24133
 Alpha  occ. eigenvalues --   -0.22302  -0.20428
 Alpha virt. eigenvalues --   -0.05033  -0.03232  -0.02521  -0.01010   0.00643
 Alpha virt. eigenvalues --    0.02217   0.02398   0.05602   0.06714   0.08276
 Alpha virt. eigenvalues --    0.08995   0.09883   0.10412   0.10730   0.11471

 Mulliken charges:
               1
     1  C   -0.446191
     2  C   -0.306361
     3  C    0.437944
     4  N   -0.563638
     5  C    0.460096
     6  N   -0.489678
     7  C   -0.104619
     8  C   -0.319540
     9  C   -0.144867
    10  N   -0.422498
    11  C    0.530635
    12  O   -0.506668
    13  C    0.062001
    14  C   -0.154146
    15  C   -0.165939
    16  C   -0.003211
    17  C    0.786639
    18  F   -0.260120
    19  F   -0.266921
    20  F   -0.269523
    21  C   -0.163477
    22  C   -0.171394
    23  C   -0.162819
    24  C   -0.168843
    25  C   -0.041926
    26  C    0.316972
    27  C   -0.554837
    28  N   -0.338448
    29  N   -0.502685
    30  C    0.304488
    31  C   -0.152763
    32  C   -0.203341
    33  C    0.191223
    34  C   -0.530999
    35  C   -0.193408
    36  C   -0.155634
    37  C    0.570681
    38  N   -0.545306
    39  H    0.155596
    40  H    0.145983
    41  H    0.151532
    42  H    0.154814
    43  H    0.153261
    44  H    0.166596
    45  H    0.185999
    46  H    0.145031
    47  H    0.162268
    48  H    0.145530
    49  H    0.196028
    50  H    0.168922
    51  H    0.165152
    52  H    0.159204
    53  H    0.151150
    54  H    0.150052
    55  H    0.175488
    56  H    0.159198
    57  H    0.171345
    58  H    0.177286
    59  H    0.188482
    60  H    0.159987
    61  H    0.176514
    62  H    0.122356
    63  H    0.164521
    64  H    0.156400
    65  H    0.155017
    66  H    0.122671
    67  H    0.162736
 Sum of Mulliken charges =  -0.00000

 Dipole moment (field-independent basis, Debye):
    X=             -1.8710    Y=              2.8738    Z=              3.6081  Tot=              4.9777
 Quadrupole moment (field-independent basis, Debye-Ang):
   XX=           -209.3971   YY=           -216.0173   ZZ=           -217.0147
   XY=            -10.7927   XZ=            -19.9927   YZ=              5.8844

 Normal termination of Gaussian 16 at Fri Nov  4 23:13:39 2022.
