 Gaussian 16, Revision B.01,
 Gaussian 16:  ES64L-G16RevB.01 20-Dec-2017

 -------------------------------------------------------------------
 #p b3lyp/6-31g(d) 6D 10F nosymm GFInput td=(50-50,nstate=2) SCF=XQC
 -------------------------------------------------------------------

 ------------------------------
 Gaussian input prepared by ASE
 ------------------------------
 Symbolic Z-matrix:
 Charge =  0 Multiplicity = 1

                          Input orientation:
 ---------------------------------------------------------------------
 Center     Atomic      Atomic             Coordinates (Angstroms)
 Number     Number       Type             X           Y           Z
 ---------------------------------------------------------------------
      1          6           0        7.891231    2.085853   -2.267124
      2          8           0        7.211102    0.968092   -1.715356
      3          6           0        7.224685    0.797461   -0.357881
      4          6           0        7.868100    1.662394    0.532302
      5          6           0        7.826871    1.403725    1.905769
      6          6           0        7.152998    0.288720    2.393589
      7          6           0        6.515823   -0.571512    1.493595
      8          6           0        6.534630   -0.341194    0.116059
      9          6           0        5.828823   -1.269799   -0.849451
     10          6           0        4.498400   -0.713273   -1.385839
     11          7           0        3.556470   -0.525562   -0.260925
     12         16           0        1.998848    0.049419   -0.615222
     13          8           0        1.829938    0.086527   -2.072508
     14          8           0        1.784284    1.242680    0.215796
     15          6           0        0.940906   -1.284077    0.041902
     16          6           0        1.348609   -2.678114   -0.480672
     17          8           0        0.159370   -3.249523   -1.059103
     18          7           0       -0.979463   -2.599599   -0.474472
     19          6           0       -1.255287   -3.222059    0.825160
     20          6           0       -0.539386   -1.183483   -0.426853
     21          6           0       -1.509492   -0.304619    0.335984
     22          6           0       -1.154767    0.511207    1.402847
     23          6           0       -2.119737    1.299532    2.048320
     24          6           0       -3.448114    1.278747    1.638815
     25          8           0       -4.457697    2.005386    2.194664
     26          6           0       -4.137211    2.862495    3.277775
     27          6           0       -3.819527    0.451013    0.546604
     28          8           0       -5.139172    0.488584    0.211237
     29          6           0       -5.566156   -0.211244   -0.949066
     30          6           0       -7.034010    0.067704   -1.184615
     31          6           0       -7.671585    1.169935   -0.606498
     32          6           0       -9.018496    1.421649   -0.875096
     33          6           0       -9.738608    0.581808   -1.725537
     34          6           0       -9.105503   -0.520107   -2.304609
     35          6           0       -7.762336   -0.776583   -2.031262
     36          6           0       -2.855009   -0.320283   -0.089073
     37          1           0        7.750395    2.016984   -3.347119
     38          1           0        8.964232    2.056796   -2.037461
     39          1           0        7.468683    3.032101   -1.905658
     40          1           0        8.399026    2.534777    0.169162
     41          1           0        8.329097    2.083850    2.588419
     42          1           0        7.123124    0.083517    3.459541
     43          1           0        5.995568   -1.451681    1.865054
     44          1           0        5.637836   -2.229242   -0.355805
     45          1           0        6.471099   -1.463492   -1.715854
     46          1           0        4.054405   -1.427242   -2.083727
     47          1           0        4.675667    0.218181   -1.933910
     48          1           0        3.946002    0.085487    0.456976
     49          1           0        1.043310   -1.210971    1.126615
     50          1           0        2.091909   -2.643368   -1.280070
     51          1           0        1.737213   -3.300899    0.334118
     52          1           0       -0.443789   -3.124506    1.564297
     53          1           0       -2.158913   -2.770548    1.240002
     54          1           0       -1.438902   -4.283336    0.643520
     55          1           0       -0.512104   -0.869102   -1.477058
     56          1           0       -0.123652    0.591183    1.725330
     57          1           0       -1.811992    1.937363    2.868777
     58          1           0       -3.739391    2.300588    4.133510
     59          1           0       -5.074407    3.342317    3.565590
     60          1           0       -3.410262    3.631086    2.983165
     61          1           0       -4.968678    0.114850   -1.814977
     62          1           0       -5.398190   -1.291546   -0.826410
     63          1           0       -7.110104    1.815029    0.060456
     64          1           0       -9.505761    2.278294   -0.416391
     65          1           0      -10.786697    0.780790   -1.933094
     66          1           0       -9.658765   -1.184504   -2.963260
     67          1           0       -7.276750   -1.641860   -2.478776
     68          1           0       -3.128742   -0.962795   -0.917886
 ---------------------------------------------------------------------

 SCF Done:  E(RB3LYP) =  -2007.00856009     A.U. after   14 cycles

 Excitation energies and oscillator strengths:

 Excited state symmetry could not be determined.
 Excited State   1:      Triplet-?Sym    3.5823 eV  346.10 nm  f=0.0000  <S**2>=2.000
     133 ->138         0.12607
     133 ->140         0.20567
     133 ->141         0.15063
     136 ->138         0.33401
     136 ->140         0.12211
     136 ->141         0.18149
     136 ->142         0.46320
 This state for optimization and/or second-order correction.
 Total Energy, E(TD-HF/TD-DFT) =  -2006.87691137
 Copying the excited state density for this state as the 1-particle RhoCI density.

 Excited state symmetry could not be determined.
 Excited State   2:      Triplet-?Sym    3.7464 eV  330.95 nm  f=0.0000  <S**2>=2.000
     131 ->138        -0.16766
     131 ->140         0.34618
     131 ->141        -0.24564
     132 ->138        -0.40481
     132 ->141         0.30971

 Excited state symmetry could not be determined.
 Excited State   3:      Singlet-?Sym    4.9448 eV  250.74 nm  f=0.0902  <S**2>=0.000
     133 ->138        -0.14787
     133 ->142        -0.23456
     134 ->142         0.11418
     136 ->138         0.38762
     136 ->140         0.43172
     136 ->141         0.16126
     136 ->142        -0.16952

 Excited state symmetry could not be determined.
 Excited State   4:      Singlet-?Sym    4.9577 eV  250.08 nm  f=0.0005  <S**2>=0.000
     136 ->137         0.70379

 Alpha  occ. eigenvalues --  -89.10676 -19.18838 -19.17594 -19.17429 -19.17158
 Alpha  occ. eigenvalues --  -19.14155 -19.14029 -14.37773 -14.36274 -10.25538
 Alpha  occ. eigenvalues --  -10.24897 -10.24440 -10.24411 -10.24385 -10.24384
 Alpha  occ. eigenvalues --  -10.23888 -10.23200 -10.23161 -10.22718 -10.20361
 Alpha  occ. eigenvalues --  -10.20134 -10.19892 -10.19781 -10.19698 -10.19550
 Alpha  occ. eigenvalues --  -10.19378 -10.19318 -10.19046 -10.18531 -10.18482
 Alpha  occ. eigenvalues --  -10.18475 -10.18368 -10.18327 -10.18272 -10.18180
 Alpha  occ. eigenvalues --  -10.17902  -8.13253  -6.09749  -6.09680  -6.09526
 Alpha  occ. eigenvalues --   -1.10610  -1.07350  -1.07311  -1.07252  -1.05297
 Alpha  occ. eigenvalues --   -0.99804  -0.92055  -0.86940  -0.85978  -0.85027
 Alpha  occ. eigenvalues --   -0.83864  -0.81228  -0.79061  -0.77557  -0.75691
 Alpha  occ. eigenvalues --   -0.75332  -0.73911  -0.73569  -0.73463  -0.71386
 Alpha  occ. eigenvalues --   -0.70257  -0.69243  -0.68121  -0.66745  -0.63672
 Alpha  occ. eigenvalues --   -0.61332  -0.61184  -0.60563  -0.59987  -0.59639
 Alpha  occ. eigenvalues --   -0.58541  -0.57382  -0.56562  -0.53844  -0.53630
 Alpha  occ. eigenvalues --   -0.52906  -0.51211  -0.51169  -0.50791  -0.50037
 Alpha  occ. eigenvalues --   -0.49253  -0.48821  -0.48540  -0.48309  -0.48001
 Alpha  occ. eigenvalues --   -0.47647  -0.47516  -0.46380  -0.45696  -0.45440
 Alpha  occ. eigenvalues --   -0.45274  -0.44706  -0.43915  -0.43753  -0.43402
 Alpha  occ. eigenvalues --   -0.43061  -0.42681  -0.42606  -0.42297  -0.41351
 Alpha  occ. eigenvalues --   -0.41204  -0.40656  -0.40602  -0.39802  -0.39180
 Alpha  occ. eigenvalues --   -0.38701  -0.38253  -0.37631  -0.37498  -0.37012
 Alpha  occ. eigenvalues --   -0.36451  -0.36059  -0.35703  -0.35288  -0.34587
 Alpha  occ. eigenvalues --   -0.34098  -0.34039  -0.33827  -0.32930  -0.32848
 Alpha  occ. eigenvalues --   -0.32698  -0.32127  -0.31846  -0.31544  -0.30707
 Alpha  occ. eigenvalues --   -0.30065  -0.29919  -0.27850  -0.26695  -0.25423
 Alpha  occ. eigenvalues --   -0.24327  -0.23723  -0.23479  -0.22792  -0.22568
 Alpha  occ. eigenvalues --   -0.20246
 Alpha virt. eigenvalues --   -0.00975   0.00132   0.00303   0.00484   0.00857
 Alpha virt. eigenvalues --    0.01555   0.05286   0.06335   0.07414   0.08361
 Alpha virt. eigenvalues --    0.08510   0.09078   0.09525   0.09942   0.10121

 Mulliken charges:
               1
     1  C   -0.218283
     2  O   -0.512489
     3  C    0.331583
     4  C   -0.190061
     5  C   -0.138067
     6  C   -0.126181
     7  C   -0.202273
     8  C    0.091160
     9  C   -0.340745
    10  C   -0.135548
    11  N   -0.715950
    12  S    1.215347
    13  O   -0.544453
    14  O   -0.533248
    15  C   -0.371719
    16  C   -0.019860
    17  O   -0.391297
    18  N   -0.177875
    19  C   -0.305860
    20  C   -0.047652
    21  C    0.122259
    22  C   -0.189415
    23  C   -0.212294
    24  C    0.338122
    25  O   -0.500798
    26  C   -0.215174
    27  C    0.351727
    28  O   -0.521414
    29  C   -0.090825
    30  C    0.106799
    31  C   -0.162810
    32  C   -0.134894
    33  C   -0.126095
    34  C   -0.131502
    35  C   -0.174816
    36  C   -0.252950
    37  H    0.174620
    38  H    0.155004
    39  H    0.158289
    40  H    0.135880
    41  H    0.133686
    42  H    0.129744
    43  H    0.130457
    44  H    0.150670
    45  H    0.167196
    46  H    0.170742
    47  H    0.180344
    48  H    0.356713
    49  H    0.192333
    50  H    0.180255
    51  H    0.148699
    52  H    0.124404
    53  H    0.173950
    54  H    0.171925
    55  H    0.199639
    56  H    0.147655
    57  H    0.134986
    58  H    0.150742
    59  H    0.170288
    60  H    0.154630
    61  H    0.160384
    62  H    0.150918
    63  H    0.159786
    64  H    0.128500
    65  H    0.126756
    66  H    0.128410
    67  H    0.122813
    68  H    0.157131
 Sum of Mulliken charges =  -0.00000

 Dipole moment (field-independent basis, Debye):
    X=              4.0273    Y=              0.4968    Z=              2.8175  Tot=              4.9400
 Quadrupole moment (field-independent basis, Debye-Ang):
   XX=           -178.1792   YY=           -210.2016   ZZ=           -207.7622
   XY=              6.5969   XZ=             -3.4620   YZ=              1.8407

 Normal termination of Gaussian 16 at Sat Nov  5 12:21:27 2022.
