 Gaussian 16, Revision B.01,
 Gaussian 16:  ES64L-G16RevB.01 20-Dec-2017

 -----------------------------
 #p b3lyp/6-31g(d) opt SCF=XQC
 -----------------------------

 ------------------------------
 Gaussian input prepared by ASE
 ------------------------------
 Symbolic Z-matrix:
 Charge =  0 Multiplicity = 1

 SCF Done:  E(RB3LYP) =  -2006.99572133     A.U. after   14 cycles
 SCF Done:  E(RB3LYP) =  -2007.00611659     A.U. after   12 cycles
 SCF Done:  E(RB3LYP) =  -2007.00728147     A.U. after   12 cycles
 SCF Done:  E(RB3LYP) =  -2007.00761715     A.U. after   12 cycles
 SCF Done:  E(RB3LYP) =  -2007.00789701     A.U. after   12 cycles
 SCF Done:  E(RB3LYP) =  -2007.00809074     A.U. after   11 cycles
 SCF Done:  E(RB3LYP) =  -2007.00842775     A.U. after   12 cycles
 SCF Done:  E(RB3LYP) =  -2007.00849666     A.U. after   10 cycles
 SCF Done:  E(RB3LYP) =  -2007.00852776     A.U. after   10 cycles
 SCF Done:  E(RB3LYP) =  -2007.00853905     A.U. after   10 cycles
 SCF Done:  E(RB3LYP) =  -2007.00855305     A.U. after    9 cycles
 SCF Done:  E(RB3LYP) =  -2007.00855807     A.U. after   10 cycles
 SCF Done:  E(RB3LYP) =  -2007.00855904     A.U. after    7 cycles
 SCF Done:  E(RB3LYP) =  -2007.00856080     A.U. after    9 cycles
 SCF Done:  E(RB3LYP) =  -2007.00856128     A.U. after    9 cycles
 SCF Done:  E(RB3LYP) =  -2007.00856179     A.U. after    9 cycles
 SCF Done:  E(RB3LYP) =  -2007.00856207     A.U. after    8 cycles
 SCF Done:  E(RB3LYP) =  -2007.00856222     A.U. after    7 cycles
 SCF Done:  E(RB3LYP) =  -2007.00856232     A.U. after    7 cycles
 SCF Done:  E(RB3LYP) =  -2007.00856234     A.U. after    6 cycles
 Optimization completed.
    -- Stationary point found.

                         Standard orientation:
 ---------------------------------------------------------------------
 Center     Atomic      Atomic             Coordinates (Angstroms)
 Number     Number       Type             X           Y           Z
 ---------------------------------------------------------------------
      1          6           0        7.871234    0.025671   -3.148718
      2          8           0        7.207628   -0.443007   -1.984080
      3          6           0        7.252202    0.323191   -0.851388
      4          6           0        7.912283    1.552538   -0.764682
      5          6           0        7.902731    2.263733    0.439118
      6          6           0        7.243939    1.754906    1.553746
      7          6           0        6.589861    0.522553    1.456446
      8          6           0        6.577007   -0.212373    0.268707
      9          6           0        5.853092   -1.538494    0.168542
     10          6           0        4.509014   -1.457462   -0.576003
     11          7           0        3.591834   -0.563545    0.163989
     12         16           0        2.024624   -0.345884   -0.451474
     13          8           0        1.823007   -1.276396   -1.568204
     14          8           0        1.824447    1.101718   -0.609206
     15          6           0        0.986433   -0.902795    0.941822
     16          6           0        1.387323   -2.300421    1.460064
     17          8           0        0.187487   -3.096991    1.424709
     18          7           0       -0.940294   -2.209205    1.457645
     19          6           0       -1.184731   -1.817407    2.850241
     20          6           0       -0.504330   -1.118234    0.551533
     21          6           0       -1.460257    0.057125    0.564287
     22          6           0       -1.084663    1.369472    0.821722
     23          6           0       -2.037758    2.399334    0.805830
     24          6           0       -3.374885    2.129838    0.537176
     25          8           0       -4.374367    3.054782    0.495428
     26          6           0       -4.032787    4.409295    0.738521
     27          6           0       -3.767687    0.792030    0.268857
     28          8           0       -5.094635    0.615174    0.017302
     29          6           0       -5.544976   -0.670657   -0.385452
     30          6           0       -7.018723   -0.598427   -0.718232
     31          6           0       -7.647137    0.619145   -0.997960
     32          6           0       -9.000615    0.647655   -1.339954
     33          6           0       -9.736573   -0.535706   -1.411853
     34          6           0       -9.112648   -1.753616   -1.132966
     35          6           0       -7.762791   -1.782531   -0.784190
     36          6           0       -2.814886   -0.218564    0.280896
     37          1           0        7.706507   -0.736211   -3.912503
     38          1           0        8.949203    0.142240   -2.977506
     39          1           0        7.453499    0.980565   -3.492619
     40          1           0        8.431822    1.962815   -1.622910
     41          1           0        8.417674    3.219032    0.494341
     42          1           0        7.238666    2.303495    2.490910
     43          1           0        6.081203    0.111775    2.325855
     44          1           0        5.676636   -1.932328    1.175742
     45          1           0        6.476504   -2.262918   -0.367422
     46          1           0        4.052067   -2.448957   -0.621490
     47          1           0        4.670637   -1.120381   -1.605404
     48          1           0        3.995148    0.364403    0.293408
     49          1           0        1.112828   -0.134153    1.707097
     50          1           0        2.112415   -2.810119    0.821952
     51          1           0        1.796292   -2.236428    2.475646
     52          1           0       -0.357246   -1.266695    3.326009
     53          1           0       -2.080454   -1.193566    2.881813
     54          1           0       -1.368567   -2.732969    3.416781
     55          1           0       -0.501686   -1.574314   -0.445710
     56          1           0       -0.046880    1.629712    0.991643
     57          1           0       -1.714010    3.416000    0.996259
     58          1           0       -3.613906    4.545942    1.744577
     59          1           0       -4.965017    4.971111    0.656584
     60          1           0       -3.315369    4.784324   -0.003535
     61          1           0       -4.968199   -1.003344   -1.262815
     62          1           0       -5.370443   -1.404214    0.415636
     63          1           0       -7.073181    1.537041   -0.932581
     64          1           0       -9.480553    1.600035   -1.550451
     65          1           0      -10.789749   -0.510225   -1.678934
     66          1           0       -9.678134   -2.680655   -1.179536
     67          1           0       -7.284250   -2.734007   -0.559559
     68          1           0       -3.104801   -1.244667    0.086617
 ---------------------------------------------------------------------

 The electronic state is 1-A.
 Alpha  occ. eigenvalues --  -89.10676 -19.18838 -19.17594 -19.17429 -19.17158
 Alpha  occ. eigenvalues --  -19.14155 -19.14029 -14.37773 -14.36274 -10.25538
 Alpha  occ. eigenvalues --  -10.24897 -10.24439 -10.24411 -10.24385 -10.24384
 Alpha  occ. eigenvalues --  -10.23888 -10.23200 -10.23161 -10.22718 -10.20361
 Alpha  occ. eigenvalues --  -10.20134 -10.19892 -10.19781 -10.19698 -10.19550
 Alpha  occ. eigenvalues --  -10.19378 -10.19318 -10.19046 -10.18531 -10.18482
 Alpha  occ. eigenvalues --  -10.18475 -10.18368 -10.18327 -10.18272 -10.18180
 Alpha  occ. eigenvalues --  -10.17902  -8.13253  -6.09749  -6.09680  -6.09526
 Alpha  occ. eigenvalues --   -1.10610  -1.07350  -1.07311  -1.07251  -1.05297
 Alpha  occ. eigenvalues --   -0.99804  -0.92055  -0.86940  -0.85978  -0.85027
 Alpha  occ. eigenvalues --   -0.83864  -0.81228  -0.79061  -0.77557  -0.75691
 Alpha  occ. eigenvalues --   -0.75332  -0.73911  -0.73569  -0.73463  -0.71386
 Alpha  occ. eigenvalues --   -0.70257  -0.69243  -0.68121  -0.66745  -0.63672
 Alpha  occ. eigenvalues --   -0.61332  -0.61184  -0.60563  -0.59987  -0.59639
 Alpha  occ. eigenvalues --   -0.58541  -0.57382  -0.56562  -0.53844  -0.53630
 Alpha  occ. eigenvalues --   -0.52906  -0.51211  -0.51169  -0.50791  -0.50037
 Alpha  occ. eigenvalues --   -0.49253  -0.48821  -0.48540  -0.48309  -0.48000
 Alpha  occ. eigenvalues --   -0.47647  -0.47516  -0.46380  -0.45696  -0.45440
 Alpha  occ. eigenvalues --   -0.45274  -0.44706  -0.43915  -0.43753  -0.43402
 Alpha  occ. eigenvalues --   -0.43061  -0.42681  -0.42606  -0.42297  -0.41351
 Alpha  occ. eigenvalues --   -0.41204  -0.40656  -0.40602  -0.39802  -0.39180
 Alpha  occ. eigenvalues --   -0.38701  -0.38253  -0.37631  -0.37498  -0.37012
 Alpha  occ. eigenvalues --   -0.36451  -0.36059  -0.35703  -0.35288  -0.34587
 Alpha  occ. eigenvalues --   -0.34098  -0.34039  -0.33827  -0.32930  -0.32848
 Alpha  occ. eigenvalues --   -0.32698  -0.32127  -0.31846  -0.31544  -0.30707
 Alpha  occ. eigenvalues --   -0.30065  -0.29919  -0.27850  -0.26695  -0.25423
 Alpha  occ. eigenvalues --   -0.24327  -0.23723  -0.23479  -0.22792  -0.22568
 Alpha  occ. eigenvalues --   -0.20246
 Alpha virt. eigenvalues --   -0.00976   0.00132   0.00303   0.00484   0.00857
 Alpha virt. eigenvalues --    0.01555   0.05286   0.06335   0.07414   0.08360
 Alpha virt. eigenvalues --    0.08510   0.09078   0.09525   0.09942   0.10121

 Mulliken charges:
               1
     1  C   -0.218285
     2  O   -0.512484
     3  C    0.331572
     4  C   -0.190058
     5  C   -0.138062
     6  C   -0.126188
     7  C   -0.202268
     8  C    0.091146
     9  C   -0.340728
    10  C   -0.135548
    11  N   -0.715952
    12  S    1.215393
    13  O   -0.544466
    14  O   -0.533262
    15  C   -0.371742
    16  C   -0.019864
    17  O   -0.391293
    18  N   -0.177886
    19  C   -0.305854
    20  C   -0.047642
    21  C    0.122271
    22  C   -0.189416
    23  C   -0.212292
    24  C    0.338122
    25  O   -0.500794
    26  C   -0.215174
    27  C    0.351728
    28  O   -0.521416
    29  C   -0.090836
    30  C    0.106802
    31  C   -0.162798
    32  C   -0.134899
    33  C   -0.126096
    34  C   -0.131498
    35  C   -0.174819
    36  C   -0.252953
    37  H    0.174621
    38  H    0.155003
    39  H    0.158291
    40  H    0.135882
    41  H    0.133686
    42  H    0.129746
    43  H    0.130457
    44  H    0.150668
    45  H    0.167195
    46  H    0.170741
    47  H    0.180345
    48  H    0.356714
    49  H    0.192334
    50  H    0.180257
    51  H    0.148700
    52  H    0.124405
    53  H    0.173947
    54  H    0.171925
    55  H    0.199633
    56  H    0.147649
    57  H    0.134983
    58  H    0.150742
    59  H    0.170288
    60  H    0.154629
    61  H    0.160385
    62  H    0.150920
    63  H    0.159780
    64  H    0.128500
    65  H    0.126756
    66  H    0.128410
    67  H    0.122813
    68  H    0.157133
 Sum of Mulliken charges =  -0.00000

 Dipole moment (field-independent basis, Debye):
    X=              4.0876    Y=              2.1820    Z=              1.7133  Tot=              4.9401
 Quadrupole moment (field-independent basis, Debye-Ang):
   XX=           -178.0678   YY=           -207.1744   ZZ=           -210.0879
   XY=              2.6344   XZ=             -7.1487   YZ=              1.7479

 Normal termination of Gaussian 16 at Fri Nov  4 21:48:00 2022.
