 Gaussian 16, Revision B.01,
 Gaussian 16:  ES64L-G16RevB.01 20-Dec-2017

 -------------------------------------------------------------------
 #p b3lyp/6-31g(d) 6D 10F nosymm GFInput td=(50-50,nstate=2) SCF=XQC
 -------------------------------------------------------------------

 ------------------------------
 Gaussian input prepared by ASE
 ------------------------------
 Symbolic Z-matrix:
 Charge =  0 Multiplicity = 1

                          Input orientation:
 ---------------------------------------------------------------------
 Center     Atomic      Atomic             Coordinates (Angstroms)
 Number     Number       Type             X           Y           Z
 ---------------------------------------------------------------------
      1          6           0       -0.570817   -2.999200    2.458824
      2          7           0        0.395857   -2.541752    1.465272
      3          6           0        0.579012   -1.082481    1.416598
      4          6           0        1.789721   -0.729705    0.541956
      5          6           0        2.791094   -1.681073    0.289235
      6          6           0        3.909537   -1.330178   -0.461710
      7          6           0        4.068128   -0.037586   -0.968987
      8          6           0        3.076142    0.913887   -0.709207
      9          8           0        3.112111    2.211681   -1.143275
     10          6           0        4.229960    2.629909   -1.906294
     11          6           0        1.945023    0.563008    0.039486
     12          6           0       -0.690214   -0.316492    1.034557
     13          6           0       -1.360261    0.481121    1.969825
     14          6           0       -2.540211    1.145875    1.634242
     15          6           0       -3.079348    1.012674    0.357128
     16          6           0       -2.429409    0.194587   -0.585534
     17          6           0       -1.244298   -0.451403   -0.244593
     18          8           0       -2.925413    0.020762   -1.856696
     19          6           0       -4.284691    0.428153   -2.007125
     20          6           0       -4.505253    1.777382   -1.342228
     21          8           0       -4.241541    1.684153    0.057174
     22          1           0       -0.644548   -4.090394    2.404215
     23          1           0       -0.205728   -2.740375    3.460096
     24          1           0       -1.583177   -2.575519    2.350658
     25          1           0        0.118254   -2.870221    0.541188
     26          1           0        0.828962   -0.787441    2.447021
     27          1           0        2.680593   -2.681606    0.690543
     28          1           0        4.679551   -2.072314   -0.658325
     29          1           0        4.948420    0.210457   -1.551043
     30          1           0        5.166704    2.535158   -1.340272
     31          1           0        4.318906    2.061307   -2.842069
     32          1           0        4.057033    3.682221   -2.140780
     33          1           0        1.193255    1.325942    0.212287
     34          1           0       -0.951364    0.594852    2.970810
     35          1           0       -3.057276    1.778431    2.349529
     36          1           0       -0.758257   -1.054757   -1.006974
     37          1           0       -4.474253    0.477527   -3.082751
     38          1           0       -4.951451   -0.322222   -1.559398
     39          1           0       -5.543814    2.104895   -1.439232
     40          1           0       -3.846935    2.530739   -1.797101
 ---------------------------------------------------------------------

 SCF Done:  E(RB3LYP) =  -939.633342559     A.U. after   14 cycles

 Excitation energies and oscillator strengths:

 Excited state symmetry could not be determined.
 Excited State   1:      Triplet-?Sym    3.6002 eV  344.38 nm  f=0.0000  <S**2>=2.000
      72 -> 77        -0.25501
      73 -> 77        -0.31097
      74 -> 77        -0.18900
      74 -> 79         0.16498
      75 -> 79         0.10907
      76 -> 77         0.22981
      76 -> 79         0.40982
 This state for optimization and/or second-order correction.
 Total Energy, E(TD-HF/TD-DFT) =  -939.501037328
 Copying the excited state density for this state as the 1-particle RhoCI density.

 Excited state symmetry could not be determined.
 Excited State   2:      Triplet-?Sym    3.7028 eV  334.84 nm  f=0.0000  <S**2>=2.000
      72 -> 78        -0.29183
      73 -> 78         0.34619
      75 -> 77         0.15563
      75 -> 78         0.11271
      75 -> 79        -0.17163
      75 -> 80         0.43837

 Excited state symmetry could not be determined.
 Excited State   3:      Singlet-?Sym    4.8769 eV  254.23 nm  f=0.0419  <S**2>=0.000
      72 -> 79         0.13492
      73 -> 79         0.18897
      74 -> 79         0.16285
      75 -> 77         0.12737
      76 -> 77         0.61060

 Excited state symmetry could not be determined.
 Excited State   4:      Singlet-?Sym    5.0566 eV  245.19 nm  f=0.0379  <S**2>=0.000
      72 -> 80         0.13745
      73 -> 77        -0.11761
      73 -> 80        -0.16846
      74 -> 77         0.19334
      75 -> 77         0.39688
      75 -> 78         0.40950
      76 -> 77        -0.14493
      76 -> 78        -0.19180

 Alpha  occ. eigenvalues --  -19.17901 -19.17891 -19.16826 -14.31509 -10.25125
 Alpha  occ. eigenvalues --  -10.25098 -10.24357 -10.24252 -10.23584 -10.23469
 Alpha  occ. eigenvalues --  -10.21613 -10.19500 -10.18543 -10.18514 -10.18487
 Alpha  occ. eigenvalues --  -10.18293 -10.18215 -10.17927 -10.17659 -10.16982
 Alpha  occ. eigenvalues --  -10.16548  -1.08380  -1.05385  -1.04800  -0.90283
 Alpha  occ. eigenvalues --   -0.84963  -0.83691  -0.78124  -0.75761  -0.74472
 Alpha  occ. eigenvalues --   -0.74266  -0.71528  -0.68465  -0.68161  -0.66149
 Alpha  occ. eigenvalues --   -0.63368  -0.60809  -0.59171  -0.56912  -0.56233
 Alpha  occ. eigenvalues --   -0.53637  -0.52223  -0.51576  -0.50848  -0.47438
 Alpha  occ. eigenvalues --   -0.47150  -0.46827  -0.46051  -0.45388  -0.44548
 Alpha  occ. eigenvalues --   -0.44416  -0.43799  -0.42956  -0.42753  -0.41326
 Alpha  occ. eigenvalues --   -0.41002  -0.40144  -0.39160  -0.38943  -0.37875
 Alpha  occ. eigenvalues --   -0.37374  -0.36403  -0.36269  -0.35317  -0.34617
 Alpha  occ. eigenvalues --   -0.33797  -0.33242  -0.31468  -0.30912  -0.30436
 Alpha  occ. eigenvalues --   -0.30072  -0.24092  -0.22783  -0.21689  -0.20757
 Alpha  occ. eigenvalues --   -0.20553
 Alpha virt. eigenvalues --    0.00105   0.00801   0.01594   0.02654   0.08631
 Alpha virt. eigenvalues --    0.10086   0.10284   0.10767   0.11329   0.11862
 Alpha virt. eigenvalues --    0.12822   0.12962   0.14378   0.14862   0.14908

 Mulliken charges:
               1
     1  C   -0.302416
     2  N   -0.540535
     3  C   -0.118555
     4  C    0.118127
     5  C   -0.179177
     6  C   -0.140274
     7  C   -0.195314
     8  C    0.373873
     9  O   -0.509185
    10  C   -0.211731
    11  C   -0.229455
    12  C    0.170270
    13  C   -0.208553
    14  C   -0.189267
    15  C    0.329194
    16  C    0.336417
    17  C   -0.253170
    18  O   -0.523304
    19  C   -0.059000
    20  C   -0.060359
    21  O   -0.522521
    22  H    0.147014
    23  H    0.148211
    24  H    0.136745
    25  H    0.297440
    26  H    0.151400
    27  H    0.143806
    28  H    0.124317
    29  H    0.125263
    30  H    0.149240
    31  H    0.148853
    32  H    0.166115
    33  H    0.141114
    34  H    0.124935
    35  H    0.138948
    36  H    0.137680
    37  H    0.158714
    38  H    0.157275
    39  H    0.158380
    40  H    0.159486
 Sum of Mulliken charges =  -0.00000

 Dipole moment (field-independent basis, Debye):
    X=             -1.2566    Y=              0.6093    Z=             -1.8363  Tot=              2.3071
 Quadrupole moment (field-independent basis, Debye-Ang):
   XX=           -103.7560   YY=           -118.6520   ZZ=           -115.7393
   XY=              2.4736   XZ=              1.2309   YZ=             -4.1376

 Normal termination of Gaussian 16 at Sat Nov  5 12:16:10 2022.
