 Gaussian 16, Revision B.01,
 Gaussian 16:  ES64L-G16RevB.01 20-Dec-2017

 -----------------------------
 #p b3lyp/6-31g(d) opt SCF=XQC
 -----------------------------

 ------------------------------
 Gaussian input prepared by ASE
 ------------------------------
 Symbolic Z-matrix:
 Charge =  0 Multiplicity = 1

 SCF Done:  E(RB3LYP) =  -939.629433097     A.U. after   14 cycles
 SCF Done:  E(RB3LYP) =  -939.632979561     A.U. after   12 cycles
 SCF Done:  E(RB3LYP) =  -939.633262551     A.U. after   11 cycles
 SCF Done:  E(RB3LYP) =  -939.633302648     A.U. after   10 cycles
 SCF Done:  E(RB3LYP) =  -939.633315443     A.U. after   10 cycles
 SCF Done:  E(RB3LYP) =  -939.633325515     A.U. after   10 cycles
 SCF Done:  E(RB3LYP) =  -939.633331026     A.U. after   10 cycles
 SCF Done:  E(RB3LYP) =  -939.633333826     A.U. after    9 cycles
 SCF Done:  E(RB3LYP) =  -939.633334568     A.U. after    9 cycles
 SCF Done:  E(RB3LYP) =  -939.633334648     A.U. after    6 cycles
 SCF Done:  E(RB3LYP) =  -939.633334673     A.U. after    6 cycles
 Optimization completed.
    -- Stationary point found.

                         Standard orientation:
 ---------------------------------------------------------------------
 Center     Atomic      Atomic             Coordinates (Angstroms)
 Number     Number       Type             X           Y           Z
 ---------------------------------------------------------------------
      1          6           0        0.290327    3.985742   -0.074380
      2          7           0       -0.664411    2.962035   -0.488342
      3          6           0       -0.743088    1.799641    0.410567
      4          6           0       -1.945847    0.922393    0.037644
      5          6           0       -3.018916    1.453946   -0.695630
      6          6           0       -4.126847    0.660596   -0.980313
      7          6           0       -4.204025   -0.664296   -0.542157
      8          6           0       -3.140141   -1.191817    0.197230
      9          8           0       -3.092922   -2.469174    0.687237
     10          6           0       -4.195700   -3.322049    0.435873
     11          6           0       -2.019622   -0.399401    0.479371
     12          6           0        0.568498    1.017695    0.519786
     13          6           0        1.316474    1.025608    1.703148
     14          6           0        2.532863    0.347604    1.789778
     15          6           0        3.030251   -0.340855    0.686120
     16          6           0        2.300674   -0.336892   -0.517208
     17          6           0        1.080619    0.329860   -0.587485
     18          8           0        2.752271   -0.992013   -1.639244
     19          6           0        4.133368   -1.346702   -1.584477
     20          6           0        4.466411   -1.953893   -0.231128
     21          8           0        4.230273   -1.002079    0.805622
     22          1           0        0.283935    4.794469   -0.812650
     23          1           0       -0.031076    4.408901    0.885026
     24          1           0        1.327693    3.631405    0.045598
     25          1           0       -0.433409    2.638115   -1.426746
     26          1           0       -0.946378    2.218106    1.407991
     27          1           0       -2.971189    2.484491   -1.027330
     28          1           0       -4.952807    1.076030   -1.552631
     29          1           0       -5.077855   -1.261324   -0.777120
     30          1           0       -5.123005   -2.926622    0.872441
     31          1           0       -4.347767   -3.483235   -0.640133
     32          1           0       -3.953089   -4.274867    0.910768
     33          1           0       -1.210927   -0.846747    1.047681
     34          1           0        0.940931    1.558579    2.573213
     35          1           0        3.111138    0.336476    2.708796
     36          1           0        0.534254    0.289774   -1.526301
     37          1           0        4.300169   -2.061663   -2.394632
     38          1           0        4.754879   -0.456855   -1.757646
     39          1           0        5.523244   -2.225995   -0.165165
     40          1           0        3.853362   -2.850245   -0.062122
 ---------------------------------------------------------------------

 The electronic state is 1-A.
 Alpha  occ. eigenvalues --  -19.17901 -19.17891 -19.16826 -14.31509 -10.25125
 Alpha  occ. eigenvalues --  -10.25098 -10.24357 -10.24252 -10.23584 -10.23469
 Alpha  occ. eigenvalues --  -10.21613 -10.19500 -10.18543 -10.18514 -10.18487
 Alpha  occ. eigenvalues --  -10.18293 -10.18215 -10.17927 -10.17659 -10.16982
 Alpha  occ. eigenvalues --  -10.16548  -1.08379  -1.05385  -1.04800  -0.90283
 Alpha  occ. eigenvalues --   -0.84963  -0.83691  -0.78124  -0.75761  -0.74472
 Alpha  occ. eigenvalues --   -0.74266  -0.71528  -0.68465  -0.68161  -0.66149
 Alpha  occ. eigenvalues --   -0.63368  -0.60809  -0.59171  -0.56912  -0.56233
 Alpha  occ. eigenvalues --   -0.53637  -0.52223  -0.51576  -0.50848  -0.47438
 Alpha  occ. eigenvalues --   -0.47150  -0.46827  -0.46051  -0.45388  -0.44548
 Alpha  occ. eigenvalues --   -0.44416  -0.43799  -0.42956  -0.42753  -0.41326
 Alpha  occ. eigenvalues --   -0.41002  -0.40144  -0.39160  -0.38943  -0.37875
 Alpha  occ. eigenvalues --   -0.37374  -0.36403  -0.36269  -0.35317  -0.34617
 Alpha  occ. eigenvalues --   -0.33797  -0.33242  -0.31468  -0.30912  -0.30436
 Alpha  occ. eigenvalues --   -0.30072  -0.24092  -0.22783  -0.21689  -0.20757
 Alpha  occ. eigenvalues --   -0.20552
 Alpha virt. eigenvalues --    0.00105   0.00801   0.01594   0.02654   0.08631
 Alpha virt. eigenvalues --    0.10086   0.10284   0.10767   0.11329   0.11862
 Alpha virt. eigenvalues --    0.12822   0.12962   0.14377   0.14862   0.14908

 Mulliken charges:
               1
     1  C   -0.302405
     2  N   -0.540541
     3  C   -0.118575
     4  C    0.118147
     5  C   -0.179189
     6  C   -0.140279
     7  C   -0.195309
     8  C    0.373862
     9  O   -0.509179
    10  C   -0.211733
    11  C   -0.229448
    12  C    0.170299
    13  C   -0.208554
    14  C   -0.189275
    15  C    0.329189
    16  C    0.336442
    17  C   -0.253186
    18  O   -0.523309
    19  C   -0.058993
    20  C   -0.060369
    21  O   -0.522524
    22  H    0.147012
    23  H    0.148208
    24  H    0.136742
    25  H    0.297441
    26  H    0.151400
    27  H    0.143807
    28  H    0.124316
    29  H    0.125263
    30  H    0.149241
    31  H    0.148853
    32  H    0.166115
    33  H    0.141113
    34  H    0.124935
    35  H    0.138948
    36  H    0.137678
    37  H    0.158713
    38  H    0.157275
    39  H    0.158380
    40  H    0.159487
 Sum of Mulliken charges =  -0.00000

 Dipole moment (field-independent basis, Debye):
    X=              1.2529    Y=             -1.5873    Z=             -1.1104  Tot=              2.3071
 Quadrupole moment (field-independent basis, Debye-Ang):
   XX=           -104.5738   YY=           -113.5788   ZZ=           -120.5051
   XY=              1.9437   XZ=             -3.5956   YZ=              1.9602

 Normal termination of Gaussian 16 at Fri Nov  4 20:58:36 2022.
