 Gaussian 16, Revision B.01,
 Gaussian 16:  ES64L-G16RevB.01 20-Dec-2017

 -----------------------------
 #p b3lyp/6-31g(d) opt SCF=XQC
 -----------------------------

 ------------------------------
 Gaussian input prepared by ASE
 ------------------------------
 Symbolic Z-matrix:
 Charge =  0 Multiplicity = 1

 SCF Done:  E(RB3LYP) =  -917.377939379     A.U. after   14 cycles
 SCF Done:  E(RB3LYP) =  -917.381058393     A.U. after   12 cycles
 SCF Done:  E(RB3LYP) =  -917.381270279     A.U. after   11 cycles
 SCF Done:  E(RB3LYP) =  -917.381409984     A.U. after   11 cycles
 SCF Done:  E(RB3LYP) =  -917.381452701     A.U. after   11 cycles
 SCF Done:  E(RB3LYP) =  -917.381483103     A.U. after   10 cycles
 SCF Done:  E(RB3LYP) =  -917.381508579     A.U. after   11 cycles
 SCF Done:  E(RB3LYP) =  -917.381511521     A.U. after   10 cycles
 SCF Done:  E(RB3LYP) =  -917.381512907     A.U. after    9 cycles
 SCF Done:  E(RB3LYP) =  -917.381513025     A.U. after    7 cycles
 Optimization completed.
    -- Stationary point found.

                         Standard orientation:
 ---------------------------------------------------------------------
 Center     Atomic      Atomic             Coordinates (Angstroms)
 Number     Number       Type             X           Y           Z
 ---------------------------------------------------------------------
      1          6           0       -6.305224   -1.690754   -0.517001
      2          8           0       -5.785624   -0.487309    0.018254
      3          6           0       -4.417999   -0.296679   -0.039505
      4          6           0       -3.479021   -1.166253   -0.573660
      5          6           0       -2.114333   -0.840494   -0.555571
      6          6           0       -1.682304    0.375237   -0.009779
      7          7           0       -0.339524    0.782355   -0.014195
      8          6           0        0.722661   -0.184427   -0.257630
      9          6           0        2.086746    0.474847   -0.269187
     10          6           0        2.249868    1.814157   -0.565691
     11          6           0        3.529550    2.420062   -0.589786
     12          6           0        4.657417    1.681245   -0.322241
     13          6           0        4.542878    0.299006   -0.022316
     14          6           0        5.664835   -0.523622    0.251527
     15          6           0        5.478830   -1.857975    0.524567
     16          6           0        4.157728   -2.367902    0.525902
     17          7           0        3.085032   -1.643081    0.279560
     18          6           0        3.248957   -0.315913    0.004859
     19          6           0       -2.643838    1.252977    0.532705
     20          6           0       -3.989216    0.924288    0.522640
     21          8           0       -4.904486    1.784524    1.055045
     22          1           0       -7.387112   -1.646769   -0.376471
     23          1           0       -6.080608   -1.781686   -1.588317
     24          1           0       -5.905095   -2.568084    0.008997
     25          1           0       -3.786450   -2.113890   -1.003176
     26          1           0       -1.404766   -1.549212   -0.965459
     27          1           0       -0.123189    1.401252    0.759594
     28          1           0        0.550606   -0.642556   -1.241226
     29          1           0        0.724718   -1.013735    0.463439
     30          1           0        1.371818    2.410612   -0.793861
     31          1           0        3.611796    3.477440   -0.826339
     32          1           0        5.643814    2.138652   -0.341064
     33          1           0        6.660457   -0.085626    0.239537
     34          1           0        6.315692   -2.516429    0.737192
     35          1           0        3.987722   -3.422357    0.743060
     36          1           0       -2.346450    2.207452    0.958499
     37          1           0       -5.775827    1.365507    0.942637
 ---------------------------------------------------------------------

 The electronic state is 1-A.
 Alpha  occ. eigenvalues --  -19.17807 -19.16119 -14.33278 -14.33003 -10.24154
 Alpha  occ. eigenvalues --  -10.23438 -10.22804 -10.22718 -10.22631 -10.21368
 Alpha  occ. eigenvalues --  -10.21170 -10.21119 -10.20641 -10.20151 -10.20073
 Alpha  occ. eigenvalues --  -10.19729 -10.19665 -10.19221 -10.18098 -10.16884
 Alpha  occ. eigenvalues --  -10.16824  -1.06671  -1.03571  -0.94438  -0.92216
 Alpha  occ. eigenvalues --   -0.85030  -0.82816  -0.80980  -0.76102  -0.75194
 Alpha  occ. eigenvalues --   -0.73511  -0.73169  -0.69191  -0.66672  -0.64183
 Alpha  occ. eigenvalues --   -0.63209  -0.60370  -0.59343  -0.57653  -0.54629
 Alpha  occ. eigenvalues --   -0.52940  -0.51993  -0.51062  -0.50752  -0.48716
 Alpha  occ. eigenvalues --   -0.47357  -0.46729  -0.45855  -0.44463  -0.43665
 Alpha  occ. eigenvalues --   -0.43598  -0.42381  -0.42147  -0.41029  -0.40855
 Alpha  occ. eigenvalues --   -0.40356  -0.40006  -0.39562  -0.38798  -0.37176
 Alpha  occ. eigenvalues --   -0.35714  -0.34828  -0.34253  -0.34157  -0.33299
 Alpha  occ. eigenvalues --   -0.32908  -0.32592  -0.30165  -0.26379  -0.25250
 Alpha  occ. eigenvalues --   -0.25190  -0.22889  -0.21194  -0.17548
 Alpha virt. eigenvalues --   -0.05331  -0.01688   0.01661   0.02178   0.04054
 Alpha virt. eigenvalues --    0.08419   0.08734   0.09408   0.10032   0.10944
 Alpha virt. eigenvalues --    0.11440   0.12410   0.14076   0.14317   0.15545

 Mulliken charges:
               1
     1  C   -0.208077
     2  O   -0.555679
     3  C    0.332450
     4  C   -0.212025
     5  C   -0.200393
     6  C    0.367966
     7  N   -0.690045
     8  C   -0.157175
     9  C    0.101263
    10  C   -0.207903
    11  C   -0.128060
    12  C   -0.198240
    13  C    0.171318
    14  C   -0.151586
    15  C   -0.153676
    16  C    0.045356
    17  N   -0.509869
    18  C    0.186551
    19  C   -0.247162
    20  C    0.306406
    21  O   -0.659773
    22  H    0.165817
    23  H    0.153190
    24  H    0.153001
    25  H    0.128446
    26  H    0.126368
    27  H    0.311199
    28  H    0.169270
    29  H    0.171473
    30  H    0.151456
    31  H    0.135494
    32  H    0.131950
    33  H    0.142771
    34  H    0.138982
    35  H    0.141202
    36  H    0.124617
    37  H    0.423118
 Sum of Mulliken charges =  -0.00000

 Dipole moment (field-independent basis, Debye):
    X=              1.7715    Y=             -1.4138    Z=             -0.3210  Tot=              2.2891
 Quadrupole moment (field-independent basis, Debye-Ang):
   XX=            -87.8232   YY=           -113.2321   ZZ=           -124.2334
   XY=             11.7665   XZ=              5.3134   YZ=              0.7298

 Normal termination of Gaussian 16 at Fri Nov  4 20:57:14 2022.
