 Gaussian 16, Revision B.01,
 Gaussian 16:  ES64L-G16RevB.01 20-Dec-2017

 -------------------------------------------------------------------
 #p b3lyp/6-31g(d) 6D 10F nosymm GFInput td=(50-50,nstate=2) SCF=XQC
 -------------------------------------------------------------------

 ------------------------------
 Gaussian input prepared by ASE
 ------------------------------
 Symbolic Z-matrix:
 Charge =  0 Multiplicity = 1

                          Input orientation:
 ---------------------------------------------------------------------
 Center     Atomic      Atomic             Coordinates (Angstroms)
 Number     Number       Type             X           Y           Z
 ---------------------------------------------------------------------
      1          6           0        6.442493    0.598828   -0.689335
      2          8           0        5.785003   -0.084532    0.362086
      3          6           0        4.406571   -0.169584    0.309480
      4          6           0        3.578553    0.347041   -0.675732
      5          6           0        2.186840    0.188956   -0.592283
      6          6           0        1.614838   -0.505862    0.481301
      7          7           0        0.236743   -0.746078    0.590725
      8          6           0       -0.710172    0.017842   -0.210488
      9          6           0       -2.136196   -0.436392    0.025375
     10          6           0       -2.434378   -1.708075    0.475023
     11          6           0       -3.770514   -2.130753    0.678426
     12          6           0       -4.819015   -1.278934    0.424330
     13          6           0       -4.564622    0.034419   -0.049003
     14          6           0       -5.598450    0.959571   -0.341905
     15          6           0       -5.277502    2.212717   -0.806944
     16          6           0       -3.909908    2.539332   -0.975311
     17          7           0       -2.915249    1.714935   -0.715024
     18          6           0       -3.213443    0.465219   -0.253506
     19          6           0        2.464211   -1.026626    1.479617
     20          6           0        3.836854   -0.860274    1.399890
     21          8           0        4.642345   -1.368154    2.376835
     22          1           0        7.509915    0.553382   -0.464147
     23          1           0        6.254007    0.117516   -1.658485
     24          1           0        6.126107    1.649301   -0.743108
     25          1           0        3.995360    0.888721   -1.518269
     26          1           0        1.566776    0.619358   -1.369490
     27          1           0       -0.062480   -0.833827    1.555790
     28          1           0       -0.467217   -0.138669   -1.270404
     29          1           0       -0.640563    1.101811   -0.043565
     30          1           0       -1.619921   -2.399774    0.667386
     31          1           0       -3.959610   -3.139674    1.034924
     32          1           0       -5.847893   -1.596782    0.575782
     33          1           0       -6.634585    0.662415   -0.195724
     34          1           0       -6.044035    2.944962   -1.042219
     35          1           0       -3.633435    3.528576   -1.339856
     36          1           0        2.056742   -1.576828    2.323423
     37          1           0        5.555830   -1.144082    2.126269
 ---------------------------------------------------------------------

 SCF Done:  E(RB3LYP) =  -917.381506942     A.U. after   14 cycles

 Excitation energies and oscillator strengths:

 Excited state symmetry could not be determined.
 Excited State   1:      Triplet-?Sym    2.7735 eV  447.03 nm  f=0.0000  <S**2>=2.000
      71 -> 76         0.15265
      72 -> 75         0.60065
      73 -> 75        -0.14199
      74 -> 75         0.26665
 This state for optimization and/or second-order correction.
 Total Energy, E(TD-HF/TD-DFT) =  -917.279583310
 Copying the excited state density for this state as the 1-particle RhoCI density.

 Excited state symmetry could not be determined.
 Excited State   2:      Triplet-?Sym    2.8311 eV  437.94 nm  f=0.0000  <S**2>=2.000
      72 -> 75        -0.24872
      74 -> 75         0.64826

 Excited state symmetry could not be determined.
 Excited State   3:      Singlet-?Sym    2.8389 eV  436.73 nm  f=0.0007  <S**2>=0.000
      74 -> 75         0.70405

 Excited state symmetry could not be determined.
 Excited State   4:      Singlet-?Sym    3.8261 eV  324.04 nm  f=0.0030  <S**2>=0.000
      74 -> 76         0.70380

 Alpha  occ. eigenvalues --  -19.17807 -19.16119 -14.33278 -14.33003 -10.24154
 Alpha  occ. eigenvalues --  -10.23438 -10.22803 -10.22718 -10.22631 -10.21368
 Alpha  occ. eigenvalues --  -10.21169 -10.21119 -10.20641 -10.20151 -10.20073
 Alpha  occ. eigenvalues --  -10.19729 -10.19665 -10.19220 -10.18098 -10.16884
 Alpha  occ. eigenvalues --  -10.16824  -1.06671  -1.03571  -0.94438  -0.92216
 Alpha  occ. eigenvalues --   -0.85030  -0.82816  -0.80980  -0.76102  -0.75194
 Alpha  occ. eigenvalues --   -0.73511  -0.73169  -0.69191  -0.66672  -0.64183
 Alpha  occ. eigenvalues --   -0.63209  -0.60370  -0.59343  -0.57653  -0.54629
 Alpha  occ. eigenvalues --   -0.52940  -0.51993  -0.51062  -0.50752  -0.48716
 Alpha  occ. eigenvalues --   -0.47357  -0.46729  -0.45855  -0.44463  -0.43665
 Alpha  occ. eigenvalues --   -0.43598  -0.42381  -0.42147  -0.41029  -0.40855
 Alpha  occ. eigenvalues --   -0.40356  -0.40006  -0.39562  -0.38798  -0.37176
 Alpha  occ. eigenvalues --   -0.35714  -0.34828  -0.34253  -0.34157  -0.33299
 Alpha  occ. eigenvalues --   -0.32908  -0.32592  -0.30165  -0.26379  -0.25250
 Alpha  occ. eigenvalues --   -0.25190  -0.22889  -0.21194  -0.17548
 Alpha virt. eigenvalues --   -0.05331  -0.01688   0.01661   0.02178   0.04054
 Alpha virt. eigenvalues --    0.08419   0.08734   0.09408   0.10032   0.10944
 Alpha virt. eigenvalues --    0.11440   0.12410   0.14076   0.14317   0.15545

 Mulliken charges:
               1
     1  C   -0.208077
     2  O   -0.555681
     3  C    0.332462
     4  C   -0.212027
     5  C   -0.200399
     6  C    0.367987
     7  N   -0.690055
     8  C   -0.157160
     9  C    0.101264
    10  C   -0.207911
    11  C   -0.128056
    12  C   -0.198229
    13  C    0.171294
    14  C   -0.151565
    15  C   -0.153699
    16  C    0.045375
    17  N   -0.509882
    18  C    0.186559
    19  C   -0.247174
    20  C    0.306401
    21  O   -0.659772
    22  H    0.165817
    23  H    0.153191
    24  H    0.153000
    25  H    0.128444
    26  H    0.126367
    27  H    0.311199
    28  H    0.169268
    29  H    0.171471
    30  H    0.151456
    31  H    0.135493
    32  H    0.131949
    33  H    0.142771
    34  H    0.138981
    35  H    0.141202
    36  H    0.124617
    37  H    0.423118
 Sum of Mulliken charges =  -0.00000

 Dipole moment (field-independent basis, Debye):
    X=             -1.6024    Y=              1.1529    Z=             -1.1590  Tot=              2.2891
 Quadrupole moment (field-independent basis, Debye-Ang):
   XX=            -85.3284   YY=           -118.1258   ZZ=           -122.2768
   XY=              5.1022   XZ=             -8.7183   YZ=             -3.8182

 Normal termination of Gaussian 16 at Sat Nov  5 12:14:38 2022.
