 Gaussian 16, Revision B.01,
 Gaussian 16:  ES64L-G16RevB.01 20-Dec-2017

 -------------------------------------------------------------------
 #p b3lyp/6-31g(d) 6D 10F nosymm GFInput td=(50-50,nstate=2) SCF=XQC
 -------------------------------------------------------------------

 ------------------------------
 Gaussian input prepared by ASE
 ------------------------------
 Symbolic Z-matrix:
 Charge =  0 Multiplicity = 1

                          Input orientation:
 ---------------------------------------------------------------------
 Center     Atomic      Atomic             Coordinates (Angstroms)
 Number     Number       Type             X           Y           Z
 ---------------------------------------------------------------------
      1          6           0       -6.458117    0.073685   -2.475866
      2          8           0       -7.441111    0.704810   -1.648305
      3          6           0       -7.094951    1.430053   -0.557546
      4          6           0       -8.124736    2.190411    0.010237
      5          6           0       -7.911843    2.988362    1.135858
      6          6           0       -6.659098    3.072206    1.743438
      7          6           0       -5.630629    2.319403    1.182358
      8         16           0       -3.955004    2.219057    1.696897
      9          6           0       -3.677404    1.017880    0.393393
     10          7           0       -2.377291    0.513406    0.221364
     11          6           0       -1.797878   -0.308753    1.300485
     12          6           0       -2.048353   -1.816362    1.130961
     13          6           0       -3.507089   -2.302131    1.145644
     14          6           0       -3.438307   -3.541552    0.241328
     15          6           0       -2.431059   -3.085799   -0.817278
     16          8           0       -1.502743   -2.230045   -0.129019
     17          6           0       -1.800108    0.544594   -1.067961
     18          8           0       -2.452196    0.704270   -2.082361
     19          6           0       -0.295339    0.500207   -1.145036
     20          6           0        0.507904    1.304456   -0.323530
     21          6           0        1.888209    1.341383   -0.504950
     22          6           0        2.461555    0.555343   -1.505798
     23         16           0        4.237104    0.637229   -1.792273
     24          8           0        4.627396    2.037338   -1.959494
     25          8           0        4.550455   -0.343862   -2.842005
     26          7           0        4.823281    0.118586   -0.256365
     27          6           0        4.626609   -1.327359   -0.010591
     28          6           0        5.820735   -2.153245   -0.489644
     29          6           0        7.078826   -1.713756    0.265674
     30          6           0        7.166763   -0.210528    0.460545
     31          6           0        8.349568    0.346830    0.966143
     32          6           0        8.472409    1.711125    1.205572
     33          6           0        7.384493    2.551652    0.956028
     34          6           0        6.193635    2.022836    0.473063
     35          6           0        6.081266    0.649362    0.204200
     36          6           0        1.676043   -0.236044   -2.345515
     37          6           0        0.294870   -0.250806   -2.166694
     38          7           0       -4.703759    0.750743   -0.335459
     39          6           0       -5.818181    1.478506    0.052046
     40          1           0       -6.019715   -0.796319   -1.980418
     41          1           0       -7.005179   -0.239080   -3.368080
     42          1           0       -5.652761    0.761290   -2.746272
     43          1           0       -9.100381    2.144332   -0.462414
     44          1           0       -8.740419    3.563973    1.538902
     45          1           0       -6.494291    3.702080    2.611068
     46          1           0       -0.720614   -0.142664    1.332808
     47          1           0       -2.212556    0.031008    2.254149
     48          1           0       -1.482860   -2.315645    1.935757
     49          1           0       -3.859777   -2.517437    2.158968
     50          1           0       -4.170440   -1.555654    0.700468
     51          1           0       -3.048786   -4.405034    0.793671
     52          1           0       -4.406628   -3.818594   -0.186150
     53          1           0       -2.923353   -2.516100   -1.618034
     54          1           0       -1.865326   -3.907279   -1.269172
     55          1           0        0.049812    1.921719    0.444038
     56          1           0        2.511507    1.969753    0.122353
     57          1           0        3.698480   -1.638764   -0.496058
     58          1           0        4.480421   -1.442107    1.070949
     59          1           0        5.936853   -2.000890   -1.567005
     60          1           0        5.629871   -3.220458   -0.325468
     61          1           0        7.978406   -2.070803   -0.250516
     62          1           0        7.092118   -2.191390    1.256828
     63          1           0        9.189290   -0.315168    1.168528
     64          1           0        9.404888    2.116057    1.588962
     65          1           0        7.458119    3.618350    1.148368
     66          1           0        5.345322    2.668236    0.284294
     67          1           0        2.149481   -0.822560   -3.125235
     68          1           0       -0.337408   -0.844343   -2.817836
 ---------------------------------------------------------------------

 SCF Done:  E(RB3LYP) =  -2459.22310981     A.U. after   16 cycles

 Excitation energies and oscillator strengths:

 Excited state symmetry could not be determined.
 Excited State   1:      Triplet-?Sym    3.1109 eV  398.55 nm  f=0.0000  <S**2>=2.000
     146 ->150        -0.29176
     148 ->149        -0.19312
     148 ->150         0.52223
     148 ->153         0.17583
     148 ->155        -0.14080
 This state for optimization and/or second-order correction.
 Total Energy, E(TD-HF/TD-DFT) =  -2459.10878754
 Copying the excited state density for this state as the 1-particle RhoCI density.

 Excited state symmetry could not be determined.
 Excited State   2:      Triplet-?Sym    3.3757 eV  367.28 nm  f=0.0000  <S**2>=2.000
     139 ->149         0.12073
     141 ->151        -0.24800
     142 ->149         0.27974
     144 ->149         0.48150
     147 ->149         0.21300

 Excited state symmetry could not be determined.
 Excited State   3:      Singlet-?Sym    3.7180 eV  333.47 nm  f=0.0167  <S**2>=0.000
     148 ->149         0.70122

 Excited state symmetry could not be determined.
 Excited State   4:      Singlet-?Sym    3.8327 eV  323.49 nm  f=0.0025  <S**2>=0.000
     147 ->149         0.70134

 Alpha  occ. eigenvalues --  -89.11125 -88.91609 -19.17844 -19.15590 -19.14426
 Alpha  occ. eigenvalues --  -19.14328 -19.13693 -14.39058 -14.37390 -14.34629
 Alpha  occ. eigenvalues --  -10.30995 -10.29514 -10.25832 -10.25186 -10.24404
 Alpha  occ. eigenvalues --  -10.23775 -10.23497 -10.23257 -10.23075 -10.23038
 Alpha  occ. eigenvalues --  -10.22980 -10.22862 -10.22336 -10.22069 -10.21785
 Alpha  occ. eigenvalues --  -10.21651 -10.21229 -10.19894 -10.19850 -10.19833
 Alpha  occ. eigenvalues --  -10.19726 -10.19608 -10.19441 -10.18789 -10.18776
 Alpha  occ. eigenvalues --  -10.18698 -10.18639 -10.18590 -10.18518  -8.13677
 Alpha  occ. eigenvalues --   -7.97755  -6.10164  -6.10086  -6.09988  -5.94166
 Alpha  occ. eigenvalues --   -5.93843  -5.93387  -1.10920  -1.06280  -1.05745
 Alpha  occ. eigenvalues --   -1.04153  -1.00032  -0.98979  -0.94654  -0.93928
 Alpha  occ. eigenvalues --   -0.88351  -0.85265  -0.84750  -0.80361  -0.80220
 Alpha  occ. eigenvalues --   -0.79693  -0.79202  -0.78030  -0.77153  -0.75219
 Alpha  occ. eigenvalues --   -0.75165  -0.74209  -0.73646  -0.70336  -0.69717
 Alpha  occ. eigenvalues --   -0.68925  -0.67174  -0.64587  -0.63202  -0.62648
 Alpha  occ. eigenvalues --   -0.61589  -0.61355  -0.60810  -0.59500  -0.59195
 Alpha  occ. eigenvalues --   -0.58640  -0.56468  -0.55397  -0.53631  -0.52636
 Alpha  occ. eigenvalues --   -0.52563  -0.51228  -0.50910  -0.50358  -0.49755
 Alpha  occ. eigenvalues --   -0.49582  -0.49177  -0.48974  -0.48125  -0.47409
 Alpha  occ. eigenvalues --   -0.46835  -0.46490  -0.46304  -0.46116  -0.44915
 Alpha  occ. eigenvalues --   -0.44673  -0.44561  -0.44140  -0.43626  -0.43524
 Alpha  occ. eigenvalues --   -0.42972  -0.42515  -0.42468  -0.42313  -0.41997
 Alpha  occ. eigenvalues --   -0.41698  -0.40913  -0.40589  -0.40190  -0.39660
 Alpha  occ. eigenvalues --   -0.39282  -0.38652  -0.37800  -0.37404  -0.36990
 Alpha  occ. eigenvalues --   -0.36728  -0.36584  -0.36345  -0.36113  -0.35962
 Alpha  occ. eigenvalues --   -0.35617  -0.34615  -0.34270  -0.33245  -0.33104
 Alpha  occ. eigenvalues --   -0.32988  -0.32830  -0.32443  -0.31925  -0.31021
 Alpha  occ. eigenvalues --   -0.30083  -0.29335  -0.29114  -0.28773  -0.28310
 Alpha  occ. eigenvalues --   -0.27476  -0.27225  -0.26011  -0.25395  -0.24018
 Alpha  occ. eigenvalues --   -0.23531  -0.22056  -0.21180
 Alpha virt. eigenvalues --   -0.05920  -0.03656  -0.02489  -0.00406  -0.00181
 Alpha virt. eigenvalues --   -0.00055   0.00064   0.01527   0.02962   0.05969
 Alpha virt. eigenvalues --    0.07099   0.08029   0.08764   0.08884   0.09071

 Mulliken charges:
               1
     1  C   -0.210509
     2  O   -0.516713
     3  C    0.357606
     4  C   -0.198227
     5  C   -0.118102
     6  C   -0.192095
     7  C   -0.123086
     8  S    0.200078
     9  C    0.257649
    10  N   -0.512580
    11  C   -0.199224
    12  C    0.185351
    13  C   -0.329414
    14  C   -0.305316
    15  C   -0.018250
    16  O   -0.512236
    17  C    0.534994
    18  O   -0.461015
    19  C    0.087946
    20  C   -0.170302
    21  C   -0.127154
    22  C   -0.158191
    23  S    1.265351
    24  O   -0.530695
    25  O   -0.541437
    26  N   -0.668526
    27  C   -0.166465
    28  C   -0.281405
    29  C   -0.346096
    30  C    0.153954
    31  C   -0.203067
    32  C   -0.119106
    33  C   -0.147654
    34  C   -0.129850
    35  C    0.232362
    36  C   -0.156967
    37  C   -0.125315
    38  N   -0.440931
    39  C    0.235602
    40  H    0.161066
    41  H    0.156182
    42  H    0.185431
    43  H    0.142321
    44  H    0.136028
    45  H    0.140755
    46  H    0.176006
    47  H    0.167699
    48  H    0.124271
    49  H    0.147740
    50  H    0.183027
    51  H    0.148309
    52  H    0.152575
    53  H    0.149487
    54  H    0.144806
    55  H    0.155309
    56  H    0.171800
    57  H    0.169113
    58  H    0.160941
    59  H    0.189151
    60  H    0.138351
    61  H    0.158961
    62  H    0.153000
    63  H    0.123102
    64  H    0.128509
    65  H    0.131959
    66  H    0.152917
    67  H    0.187033
    68  H    0.163188
 Sum of Mulliken charges =  -0.00000

 Dipole moment (field-independent basis, Debye):
    X=             -1.8501    Y=             -3.8268    Z=              5.6696  Tot=              7.0860
 Quadrupole moment (field-independent basis, Debye-Ang):
   XX=           -239.2310   YY=           -227.9907   ZZ=           -245.1166
   XY=             -6.9264   XZ=             12.6390   YZ=             11.4854

 Normal termination of Gaussian 16 at Sat Nov  5 12:16:12 2022.
