 Gaussian 16, Revision B.01,
 Gaussian 16:  ES64L-G16RevB.01 20-Dec-2017

 -----------------------------
 #p b3lyp/6-31g(d) opt SCF=XQC
 -----------------------------

 ------------------------------
 Gaussian input prepared by ASE
 ------------------------------
 Symbolic Z-matrix:
 Charge =  0 Multiplicity = 1

 SCF Done:  E(RB3LYP) =  -2459.20426364     A.U. after   16 cycles
 SCF Done:  E(RB3LYP) =  -2459.21807012     A.U. after   12 cycles
 SCF Done:  E(RB3LYP) =  -2459.22057958     A.U. after   13 cycles
 SCF Done:  E(RB3LYP) =  -2459.22104512     A.U. after   13 cycles
 SCF Done:  E(RB3LYP) =  -2459.22215801     A.U. after   12 cycles
 SCF Done:  E(RB3LYP) =  -2459.22250733     A.U. after   12 cycles
 SCF Done:  E(RB3LYP) =  -2459.22272918     A.U. after   12 cycles
 SCF Done:  E(RB3LYP) =  -2459.22289756     A.U. after   11 cycles
 SCF Done:  E(RB3LYP) =  -2459.22298703     A.U. after   12 cycles
 SCF Done:  E(RB3LYP) =  -2459.22301084     A.U. after   11 cycles
 SCF Done:  E(RB3LYP) =  -2459.22308762     A.U. after   10 cycles
 SCF Done:  E(RB3LYP) =  -2459.22309299     A.U. after   10 cycles
 SCF Done:  E(RB3LYP) =  -2459.22309660     A.U. after   10 cycles
 SCF Done:  E(RB3LYP) =  -2459.22309790     A.U. after    9 cycles
 SCF Done:  E(RB3LYP) =  -2459.22309860     A.U. after    9 cycles
 SCF Done:  E(RB3LYP) =  -2459.22309949     A.U. after   10 cycles
 SCF Done:  E(RB3LYP) =  -2459.22310009     A.U. after    9 cycles
 SCF Done:  E(RB3LYP) =  -2459.22310021     A.U. after    8 cycles
 SCF Done:  E(RB3LYP) =  -2459.22310023     A.U. after    7 cycles
 SCF Done:  E(RB3LYP) =  -2459.22310024     A.U. after    6 cycles
 Optimization completed.
    -- Stationary point found.

                         Standard orientation:
 ---------------------------------------------------------------------
 Center     Atomic      Atomic             Coordinates (Angstroms)
 Number     Number       Type             X           Y           Z
 ---------------------------------------------------------------------
      1          6           0        6.310448    1.324269   -2.080869
      2          8           0        7.347938    0.529101   -1.497109
      3          6           0        7.070833   -0.515732   -0.680349
      4          6           0        8.155061   -1.350949   -0.383969
      5          6           0        8.015845   -2.467595    0.442343
      6          6           0        6.786185   -2.808845    1.005406
      7          6           0        5.703859   -1.982785    0.713059
      8         16           0        4.039639   -2.145748    1.248178
      9          6           0        3.662688   -0.620749    0.381403
     10          7           0        2.333059   -0.166376    0.384875
     11          6           0        1.739139    0.247964    1.670079
     12          6           0        1.903094    1.746776    1.971812
     13          6           0        3.333297    2.290661    2.122828
     14          6           0        3.173405    3.741687    1.645710
     15          6           0        2.164292    3.574284    0.507039
     16          8           0        1.302371    2.494533    0.905808
     17          6           0        1.724090    0.166041   -0.846030
     18          8           0        2.356462    0.365275   -1.865899
     19          6           0        0.217599    0.142067   -0.892404
     20          6           0       -0.518694   -0.922281   -0.352103
     21          6           0       -1.899344   -0.983958   -0.523911
     22          6           0       -2.540950    0.036072   -1.228300
     23         16           0       -4.316506   -0.059590   -1.510427
     24          8           0       -4.634854   -1.361104   -2.098060
     25          8           0       -4.710447    1.176227   -2.203416
     26          7           0       -4.888534   -0.074364    0.115664
     27          6           0       -4.763829    1.234964    0.793861
     28          6           0       -6.013265    2.095316    0.603542
     29          6           0       -7.225074    1.370569    1.197439
     30          6           0       -7.226346   -0.122174    0.919737
     31          6           0       -8.363319   -0.877568    1.239076
     32          6           0       -8.405751   -2.254156    1.046932
     33          6           0       -7.281048   -2.910695    0.540652
     34          6           0       -6.133888   -2.188885    0.233961
     35          6           0       -6.103193   -0.795152    0.401034
     36          6           0       -1.822148    1.092747   -1.789734
     37          6           0       -0.439501    1.134226   -1.627246
     38          7           0        4.653211   -0.081654   -0.238460
     39          6           0        5.815333   -0.825425   -0.104241
     40          1           0        5.839066    1.971954   -1.337312
     41          1           0        6.815711    1.928322   -2.837820
     42          1           0        5.536501    0.706350   -2.543147
     43          1           0        9.113781   -1.103598   -0.827906
     44          1           0        8.884830   -3.088715    0.640805
     45          1           0        6.678971   -3.683666    1.637764
     46          1           0        0.673684    0.015986    1.659055
     47          1           0        2.196970   -0.343210    2.468687
     48          1           0        1.333183    1.939682    2.896339
     49          1           0        3.700834    2.204567    3.149997
     50          1           0        4.023885    1.758254    1.463224
     51          1           0        2.752691    4.368599    2.440940
     52          1           0        4.113534    4.194046    1.316069
     53          1           0        2.665054    3.308895   -0.434729
     54          1           0        1.543068    4.459611    0.335664
     55          1           0       -0.007505   -1.717170    0.183489
     56          1           0       -2.470731   -1.810816   -0.115644
     57          1           0       -3.867229    1.735392    0.420020
     58          1           0       -4.595152    1.020071    1.856704
     59          1           0       -6.149782    2.275004   -0.467194
     60          1           0       -5.876062    3.069720    1.087317
     61          1           0       -8.156144    1.814682    0.824542
     62          1           0       -7.237630    1.518572    2.287685
     63          1           0       -9.231889   -0.361255    1.643231
     64          1           0       -9.304369   -2.812273    1.294861
     65          1           0       -7.291709   -3.987247    0.395110
     66          1           0       -5.257276   -2.693110   -0.152196
     67          1           0       -2.347317    1.861258   -2.346238
     68          1           0        0.142093    1.935870   -2.069014
 ---------------------------------------------------------------------

 The electronic state is 1-A.
 Alpha  occ. eigenvalues --  -89.11125 -88.91609 -19.17844 -19.15590 -19.14426
 Alpha  occ. eigenvalues --  -19.14328 -19.13693 -14.39058 -14.37389 -14.34629
 Alpha  occ. eigenvalues --  -10.30995 -10.29514 -10.25832 -10.25187 -10.24404
 Alpha  occ. eigenvalues --  -10.23775 -10.23497 -10.23257 -10.23075 -10.23038
 Alpha  occ. eigenvalues --  -10.22980 -10.22862 -10.22336 -10.22069 -10.21785
 Alpha  occ. eigenvalues --  -10.21650 -10.21229 -10.19893 -10.19850 -10.19833
 Alpha  occ. eigenvalues --  -10.19726 -10.19608 -10.19441 -10.18789 -10.18776
 Alpha  occ. eigenvalues --  -10.18698 -10.18639 -10.18590 -10.18518  -8.13677
 Alpha  occ. eigenvalues --   -7.97755  -6.10164  -6.10086  -6.09988  -5.94166
 Alpha  occ. eigenvalues --   -5.93843  -5.93387  -1.10920  -1.06280  -1.05745
 Alpha  occ. eigenvalues --   -1.04154  -1.00032  -0.98979  -0.94654  -0.93928
 Alpha  occ. eigenvalues --   -0.88351  -0.85265  -0.84750  -0.80361  -0.80220
 Alpha  occ. eigenvalues --   -0.79693  -0.79202  -0.78030  -0.77153  -0.75219
 Alpha  occ. eigenvalues --   -0.75165  -0.74209  -0.73646  -0.70337  -0.69717
 Alpha  occ. eigenvalues --   -0.68925  -0.67174  -0.64587  -0.63202  -0.62648
 Alpha  occ. eigenvalues --   -0.61589  -0.61355  -0.60810  -0.59500  -0.59195
 Alpha  occ. eigenvalues --   -0.58640  -0.56468  -0.55397  -0.53631  -0.52636
 Alpha  occ. eigenvalues --   -0.52563  -0.51228  -0.50910  -0.50358  -0.49755
 Alpha  occ. eigenvalues --   -0.49582  -0.49177  -0.48974  -0.48125  -0.47409
 Alpha  occ. eigenvalues --   -0.46835  -0.46490  -0.46304  -0.46116  -0.44915
 Alpha  occ. eigenvalues --   -0.44673  -0.44561  -0.44140  -0.43626  -0.43524
 Alpha  occ. eigenvalues --   -0.42972  -0.42515  -0.42468  -0.42313  -0.41997
 Alpha  occ. eigenvalues --   -0.41698  -0.40913  -0.40589  -0.40190  -0.39660
 Alpha  occ. eigenvalues --   -0.39282  -0.38652  -0.37800  -0.37404  -0.36990
 Alpha  occ. eigenvalues --   -0.36728  -0.36584  -0.36345  -0.36113  -0.35962
 Alpha  occ. eigenvalues --   -0.35617  -0.34615  -0.34270  -0.33245  -0.33104
 Alpha  occ. eigenvalues --   -0.32988  -0.32830  -0.32443  -0.31925  -0.31021
 Alpha  occ. eigenvalues --   -0.30083  -0.29335  -0.29114  -0.28773  -0.28310
 Alpha  occ. eigenvalues --   -0.27476  -0.27225  -0.26011  -0.25395  -0.24018
 Alpha  occ. eigenvalues --   -0.23531  -0.22056  -0.21180
 Alpha virt. eigenvalues --   -0.05920  -0.03656  -0.02489  -0.00406  -0.00181
 Alpha virt. eigenvalues --   -0.00055   0.00065   0.01527   0.02962   0.05969
 Alpha virt. eigenvalues --    0.07099   0.08029   0.08763   0.08884   0.09071

 Mulliken charges:
               1
     1  C   -0.210521
     2  O   -0.516707
     3  C    0.357600
     4  C   -0.198227
     5  C   -0.118099
     6  C   -0.192097
     7  C   -0.123081
     8  S    0.200089
     9  C    0.257646
    10  N   -0.512579
    11  C   -0.199195
    12  C    0.185333
    13  C   -0.329418
    14  C   -0.305311
    15  C   -0.018247
    16  O   -0.512232
    17  C    0.534961
    18  O   -0.460998
    19  C    0.087955
    20  C   -0.170315
    21  C   -0.127147
    22  C   -0.158187
    23  S    1.265326
    24  O   -0.530685
    25  O   -0.541430
    26  N   -0.668521
    27  C   -0.166441
    28  C   -0.281419
    29  C   -0.346094
    30  C    0.153967
    31  C   -0.203063
    32  C   -0.119105
    33  C   -0.147651
    34  C   -0.129865
    35  C    0.232352
    36  C   -0.156974
    37  C   -0.125315
    38  N   -0.440949
    39  C    0.235619
    40  H    0.161072
    41  H    0.156183
    42  H    0.185432
    43  H    0.142320
    44  H    0.136026
    45  H    0.140755
    46  H    0.176004
    47  H    0.167696
    48  H    0.124271
    49  H    0.147744
    50  H    0.183024
    51  H    0.148308
    52  H    0.152574
    53  H    0.149483
    54  H    0.144806
    55  H    0.155308
    56  H    0.171800
    57  H    0.169110
    58  H    0.160937
    59  H    0.189154
    60  H    0.138352
    61  H    0.158962
    62  H    0.153000
    63  H    0.123102
    64  H    0.128509
    65  H    0.131959
    66  H    0.152918
    67  H    0.187031
    68  H    0.163187
 Sum of Mulliken charges =  -0.00000

 Dipole moment (field-independent basis, Debye):
    X=              1.7915    Y=              2.0012    Z=              6.5573  Tot=              7.0861
 Quadrupole moment (field-independent basis, Debye-Ang):
   XX=           -239.3616   YY=           -222.2733   ZZ=           -245.3401
   XY=             -3.3994   XZ=            -13.8244   YZ=             -2.7615

 Normal termination of Gaussian 16 at Fri Nov  4 21:21:47 2022.
