 Gaussian 16, Revision B.01,
 Gaussian 16:  ES64L-G16RevB.01 20-Dec-2017

 -------------------------------------------------------------------
 #p b3lyp/6-31g(d) 6D 10F nosymm GFInput td=(50-50,nstate=2) SCF=XQC
 -------------------------------------------------------------------

 ------------------------------
 Gaussian input prepared by ASE
 ------------------------------
 Symbolic Z-matrix:
 Charge =  0 Multiplicity = 1

                          Input orientation:
 ---------------------------------------------------------------------
 Center     Atomic      Atomic             Coordinates (Angstroms)
 Number     Number       Type             X           Y           Z
 ---------------------------------------------------------------------
      1          6           0       -4.120983    5.894590    0.120446
      2          6           0       -3.327748    4.612785    0.040816
      3          6           0       -3.977574    3.375763    0.083294
      4          6           0       -3.282568    2.169613    0.012943
      5          6           0       -1.895231    2.206363   -0.111793
      6          7           0       -1.105597    0.994533   -0.155205
      7          7           0        0.076446    1.072900    0.467686
      8          6           0        0.906722    0.076804    0.455021
      9          6           0        2.216706    0.345937    1.185339
     10          8           0        2.479404    1.466106    1.604013
     11          7           0        3.022857   -0.736277    1.348566
     12          6           0        4.345543   -0.585239    1.953436
     13          6           0        5.420802   -0.214689    0.982941
     14          6           0        5.952853    0.975639    0.583494
     15          6           0        6.926458    0.671093   -0.424168
     16          6           0        6.912235   -0.682405   -0.565412
     17          8           0        6.001425   -1.241644    0.282167
     18          6           0        0.591328   -1.190698   -0.227417
     19          8           0        1.327864   -2.175585   -0.262825
     20          7           0       -0.644137   -1.202164   -0.870552
     21          6           0       -1.031069   -2.428750   -1.619530
     22          6           0       -1.642849   -3.506868   -0.739430
     23          6           0       -2.849925   -3.228857   -0.082281
     24          6           0       -3.464681   -4.178429    0.730497
     25          6           0       -2.874912   -5.432632    0.884573
     26          6           0       -1.685053   -5.721173    0.219324
     27          6           0       -1.047656   -4.777930   -0.599517
     28          6           0        0.234989   -5.157819   -1.306617
     29          6           0       -1.534115   -0.125334   -0.894348
     30          8           0       -2.591730   -0.156949   -1.496430
     31          6           0       -1.222310    3.429850   -0.153358
     32          6           0       -1.920750    4.635591   -0.075355
     33          6           0       -1.165945    5.943152   -0.119324
     34          1           0       -3.975152    6.517633   -0.771540
     35          1           0       -5.191894    5.690979    0.213003
     36          1           0       -3.820349    6.504445    0.982201
     37          1           0       -5.060186    3.349959    0.179081
     38          1           0       -3.814162    1.228505    0.045257
     39          1           0        2.779609   -1.588720    0.851905
     40          1           0        4.266530    0.196092    2.711582
     41          1           0        4.598536   -1.528412    2.448090
     42          1           0        5.668640    1.949255    0.957228
     43          1           0        7.551918    1.367952   -0.964819
     44          1           0        7.462906   -1.374911   -1.183871
     45          1           0       -1.745172   -2.095070   -2.372968
     46          1           0       -0.127745   -2.780718   -2.113707
     47          1           0       -3.315571   -2.257549   -0.223662
     48          1           0       -4.399093   -3.941851    1.232095
     49          1           0       -3.341005   -6.186353    1.513802
     50          1           0       -1.231285   -6.702634    0.335388
     51          1           0        0.114127   -5.163063   -2.397865
     52          1           0        0.551483   -6.163080   -1.012463
     53          1           0        1.043576   -4.460533   -1.066718
     54          1           0       -0.140003    3.434324   -0.223846
     55          1           0       -1.481128    6.564181   -0.967810
     56          1           0       -0.089086    5.774662   -0.208811
     57          1           0       -1.336290    6.537627    0.787458
 ---------------------------------------------------------------------

 SCF Done:  E(RB3LYP) =  -1487.02968412     A.U. after   16 cycles

 Excitation energies and oscillator strengths:

 Excited state symmetry could not be determined.
 Excited State   1:      Triplet-?Sym    2.7043 eV  458.46 nm  f=0.0000  <S**2>=2.000
     108 ->118         0.15611
     109 ->118         0.22927
     113 ->118        -0.11371
     116 ->118         0.60629
     117 ->118        -0.12598
 This state for optimization and/or second-order correction.
 Total Energy, E(TD-HF/TD-DFT) =  -1486.93030147
 Copying the excited state density for this state as the 1-particle RhoCI density.

 Excited state symmetry could not be determined.
 Excited State   2:      Triplet-?Sym    3.0480 eV  406.78 nm  f=0.0000  <S**2>=2.000
     111 ->118         0.18022
     116 ->118         0.11695
     117 ->118         0.65910

 Excited state symmetry could not be determined.
 Excited State   3:      Singlet-?Sym    3.1217 eV  397.16 nm  f=0.0153  <S**2>=0.000
     117 ->118         0.69639

 Excited state symmetry could not be determined.
 Excited State   4:      Singlet-?Sym    3.4946 eV  354.79 nm  f=0.1673  <S**2>=0.000
     111 ->118         0.14335
     112 ->118         0.25566
     114 ->118         0.11244
     116 ->118         0.61922

 Alpha  occ. eigenvalues --  -19.20836 -19.15777 -19.15096 -19.10936 -14.45087
 Alpha  occ. eigenvalues --  -14.41824 -14.41313 -14.35405 -10.35510 -10.33005
 Alpha  occ. eigenvalues --  -10.29196 -10.25784 -10.24064 -10.23941 -10.23186
 Alpha  occ. eigenvalues --  -10.23049 -10.22936 -10.20236 -10.20163 -10.20026
 Alpha  occ. eigenvalues --  -10.19974 -10.19651 -10.19419 -10.19301 -10.18946
 Alpha  occ. eigenvalues --  -10.18879 -10.18844 -10.18773 -10.18692 -10.18648
 Alpha  occ. eigenvalues --  -10.18190 -10.17921 -10.17911  -1.11048  -1.10098
 Alpha  occ. eigenvalues --   -1.07108  -1.05300  -1.02915  -0.96629  -0.91867
 Alpha  occ. eigenvalues --   -0.89427  -0.85865  -0.85668  -0.79168  -0.78898
 Alpha  occ. eigenvalues --   -0.78302  -0.77028  -0.76946  -0.76541  -0.73405
 Alpha  occ. eigenvalues --   -0.71333  -0.70266  -0.69252  -0.68348  -0.67503
 Alpha  occ. eigenvalues --   -0.66420  -0.61902  -0.61178  -0.59650  -0.59562
 Alpha  occ. eigenvalues --   -0.59438  -0.58363  -0.57701  -0.55268  -0.54633
 Alpha  occ. eigenvalues --   -0.52902  -0.51996  -0.51303  -0.50355  -0.49140
 Alpha  occ. eigenvalues --   -0.47858  -0.47629  -0.47121  -0.46956  -0.46402
 Alpha  occ. eigenvalues --   -0.45724  -0.45047  -0.44721  -0.43770  -0.43556
 Alpha  occ. eigenvalues --   -0.43328  -0.43059  -0.42440  -0.41725  -0.41614
 Alpha  occ. eigenvalues --   -0.41359  -0.40926  -0.40528  -0.40335  -0.40088
 Alpha  occ. eigenvalues --   -0.39821  -0.39549  -0.39120  -0.38990  -0.38473
 Alpha  occ. eigenvalues --   -0.38278  -0.37778  -0.36368  -0.35724  -0.35589
 Alpha  occ. eigenvalues --   -0.35148  -0.35042  -0.34469  -0.34391  -0.33709
 Alpha  occ. eigenvalues --   -0.29614  -0.29276  -0.28660  -0.28267  -0.27141
 Alpha  occ. eigenvalues --   -0.25975  -0.24979  -0.24912  -0.24612  -0.24046
 Alpha  occ. eigenvalues --   -0.23212  -0.21765
 Alpha virt. eigenvalues --   -0.08341  -0.02868  -0.00862  -0.00293  -0.00105
 Alpha virt. eigenvalues --    0.00257   0.01608   0.04331   0.07718   0.08866
 Alpha virt. eigenvalues --    0.09535   0.10124   0.10674   0.11726   0.12046

 Mulliken charges:
               1
     1  C   -0.534654
     2  C    0.146855
     3  C   -0.206872
     4  C   -0.126784
     5  C    0.301692
     6  N   -0.443657
     7  N   -0.272653
     8  C    0.131617
     9  C    0.626016
    10  O   -0.521986
    11  N   -0.624523
    12  C   -0.229168
    13  C    0.342880
    14  C   -0.193323
    15  C   -0.183717
    16  C    0.082064
    17  O   -0.438854
    18  C    0.651476
    19  O   -0.530900
    20  N   -0.550584
    21  C   -0.253166
    22  C    0.105679
    23  C   -0.188484
    24  C   -0.131408
    25  C   -0.121197
    26  C   -0.185885
    27  C    0.143972
    28  C   -0.558848
    29  C    0.838847
    30  O   -0.504319
    31  C   -0.200221
    32  C    0.118051
    33  C   -0.533887
    34  H    0.163449
    35  H    0.157930
    36  H    0.163865
    37  H    0.130097
    38  H    0.157892
    39  H    0.372240
    40  H    0.195906
    41  H    0.167065
    42  H    0.155785
    43  H    0.139631
    44  H    0.151719
    45  H    0.206443
    46  H    0.185611
    47  H    0.149622
    48  H    0.130015
    49  H    0.129923
    50  H    0.123986
    51  H    0.155743
    52  H    0.153374
    53  H    0.199448
    54  H    0.165464
    55  H    0.161196
    56  H    0.165396
    57  H    0.164141
 Sum of Mulliken charges =  -0.00000

 Dipole moment (field-independent basis, Debye):
    X=             -0.9940    Y=              0.0261    Z=             -0.9969  Tot=              1.4080
 Quadrupole moment (field-independent basis, Debye-Ang):
   XX=           -178.7915   YY=           -168.3713   ZZ=           -190.0287
   XY=             -8.5874   XZ=            -10.9766   YZ=             -4.0086

 Normal termination of Gaussian 16 at Sat Nov  5 12:10:12 2022.
