 Gaussian 16, Revision B.01,
 Gaussian 16:  ES64L-G16RevB.01 20-Dec-2017

 -----------------------------
 #p b3lyp/6-31g(d) opt SCF=XQC
 -----------------------------

 ------------------------------
 Gaussian input prepared by ASE
 ------------------------------
 Symbolic Z-matrix:
 Charge =  0 Multiplicity = 1

 SCF Done:  E(RB3LYP) =  -1487.02014813     A.U. after   16 cycles
 SCF Done:  E(RB3LYP) =  -1487.02794663     A.U. after   13 cycles
 SCF Done:  E(RB3LYP) =  -1487.02848996     A.U. after   13 cycles
 SCF Done:  E(RB3LYP) =  -1487.02907137     A.U. after   12 cycles
 SCF Done:  E(RB3LYP) =  -1487.02928244     A.U. after   12 cycles
 SCF Done:  E(RB3LYP) =  -1487.02942741     A.U. after   12 cycles
 SCF Done:  E(RB3LYP) =  -1487.02955086     A.U. after   11 cycles
 SCF Done:  E(RB3LYP) =  -1487.02962640     A.U. after   12 cycles
 SCF Done:  E(RB3LYP) =  -1487.02966286     A.U. after   10 cycles
 SCF Done:  E(RB3LYP) =  -1487.02966813     A.U. after    9 cycles
 SCF Done:  E(RB3LYP) =  -1487.02967334     A.U. after    8 cycles
 SCF Done:  E(RB3LYP) =  -1487.02967455     A.U. after    9 cycles
 SCF Done:  E(RB3LYP) =  -1487.02967543     A.U. after    9 cycles
 SCF Done:  E(RB3LYP) =  -1487.02967657     A.U. after    9 cycles
 SCF Done:  E(RB3LYP) =  -1487.02967811     A.U. after   10 cycles
 SCF Done:  E(RB3LYP) =  -1487.02967928     A.U. after    9 cycles
 SCF Done:  E(RB3LYP) =  -1487.02968016     A.U. after   10 cycles
 SCF Done:  E(RB3LYP) =  -1487.02968088     A.U. after    8 cycles
 SCF Done:  E(RB3LYP) =  -1487.02968102     A.U. after    8 cycles
 SCF Done:  E(RB3LYP) =  -1487.02968107     A.U. after    7 cycles
 Optimization completed.
    -- Stationary point found.

                         Standard orientation:
 ---------------------------------------------------------------------
 Center     Atomic      Atomic             Coordinates (Angstroms)
 Number     Number       Type             X           Y           Z
 ---------------------------------------------------------------------
      1          6           0        7.038334   -2.256612    0.164010
      2          6           0        5.638627   -1.697910    0.078807
      3          6           0        5.414515   -0.326589    0.232276
      4          6           0        4.138337    0.229342    0.160907
      5          6           0        3.056279   -0.615014   -0.079569
      6          7           0        1.700029   -0.113209   -0.131674
      7          7           0        0.778376   -0.933424    0.387134
      8          6           0       -0.482155   -0.630816    0.352252
      9          6           0       -1.395777   -1.688895    0.958565
     10          8           0       -0.949989   -2.776410    1.301580
     11          7           0       -2.695412   -1.318380    1.104780
     12          6           0       -3.685206   -2.278805    1.590652
     13          6           0       -4.285232   -3.130728    0.518483
     14          6           0       -3.981311   -4.363695    0.021551
     15          6           0       -4.903538   -4.612586   -1.047837
     16          6           0       -5.698492   -3.510632   -1.124348
     17          8           0       -5.338362   -2.595206   -0.179353
     18          6           0       -0.964080    0.628631   -0.242137
     19          8           0       -2.142091    0.980056   -0.292438
     20          7           0        0.041172    1.428958   -0.779795
     21          6           0       -0.356485    2.704070   -1.436418
     22          6           0       -0.547799    3.853187   -0.459626
     23          6           0        0.558554    4.292637    0.281344
     24          6           0        0.449292    5.346672    1.185385
     25          6           0       -0.780188    5.984175    1.348359
     26          6           0       -1.878784    5.564087    0.601238
     27          6           0       -1.791181    4.502156   -0.310416
     28          6           0       -3.017120    4.103440   -1.102619
     29          6           0        1.399237    1.100554   -0.780032
     30          8           0        2.248679    1.807552   -1.290575
     31          6           0        3.253779   -1.989349   -0.233409
     32          6           0        4.532163   -2.543572   -0.154120
     33          6           0        4.714728   -4.033603   -0.321025
     34          1           0        7.329605   -2.763804   -0.764971
     35          1           0        7.768638   -1.464523    0.354073
     36          1           0        7.130774   -2.997457    0.968701
     37          1           0        6.260684    0.330145    0.418256
     38          1           0        3.997583    1.294776    0.280736
     39          1           0       -2.993195   -0.449555    0.670077
     40          1           0       -3.182511   -2.921666    2.315588
     41          1           0       -4.472020   -1.718828    2.106029
     42          1           0       -3.184556   -5.004692    0.371815
     43          1           0       -4.964817   -5.494705   -1.670113
     44          1           0       -6.530257   -3.231592   -1.753313
     45          1           0        0.443271    2.927899   -2.142991
     46          1           0       -1.270650    2.490380   -1.986622
     47          1           0        1.518677    3.806140    0.133907
     48          1           0        1.318818    5.670404    1.750910
     49          1           0       -0.883785    6.809176    2.048294
     50          1           0       -2.834532    6.067960    0.724925
     51          1           0       -2.881853    4.274179   -2.178727
     52          1           0       -3.884245    4.692598   -0.789198
     53          1           0       -3.254418    3.044304   -0.963005
     54          1           0        2.394092   -2.631055   -0.393187
     55          1           0        5.371607   -4.268541   -1.168528
     56          1           0        3.756392   -4.532246   -0.491224
     57          1           0        5.172666   -4.485716    0.568109
 ---------------------------------------------------------------------

 The electronic state is 1-A.
 Alpha  occ. eigenvalues --  -19.20836 -19.15777 -19.15096 -19.10936 -14.45087
 Alpha  occ. eigenvalues --  -14.41824 -14.41313 -14.35405 -10.35510 -10.33005
 Alpha  occ. eigenvalues --  -10.29196 -10.25784 -10.24064 -10.23942 -10.23186
 Alpha  occ. eigenvalues --  -10.23049 -10.22936 -10.20236 -10.20163 -10.20026
 Alpha  occ. eigenvalues --  -10.19974 -10.19651 -10.19419 -10.19301 -10.18946
 Alpha  occ. eigenvalues --  -10.18879 -10.18844 -10.18773 -10.18692 -10.18648
 Alpha  occ. eigenvalues --  -10.18190 -10.17921 -10.17911  -1.11048  -1.10098
 Alpha  occ. eigenvalues --   -1.07108  -1.05300  -1.02915  -0.96629  -0.91867
 Alpha  occ. eigenvalues --   -0.89427  -0.85865  -0.85668  -0.79168  -0.78898
 Alpha  occ. eigenvalues --   -0.78302  -0.77028  -0.76946  -0.76541  -0.73405
 Alpha  occ. eigenvalues --   -0.71333  -0.70266  -0.69252  -0.68348  -0.67503
 Alpha  occ. eigenvalues --   -0.66420  -0.61902  -0.61178  -0.59650  -0.59562
 Alpha  occ. eigenvalues --   -0.59438  -0.58363  -0.57701  -0.55268  -0.54633
 Alpha  occ. eigenvalues --   -0.52902  -0.51996  -0.51303  -0.50355  -0.49140
 Alpha  occ. eigenvalues --   -0.47858  -0.47629  -0.47121  -0.46956  -0.46402
 Alpha  occ. eigenvalues --   -0.45724  -0.45047  -0.44721  -0.43770  -0.43556
 Alpha  occ. eigenvalues --   -0.43328  -0.43059  -0.42440  -0.41725  -0.41614
 Alpha  occ. eigenvalues --   -0.41359  -0.40926  -0.40528  -0.40335  -0.40088
 Alpha  occ. eigenvalues --   -0.39821  -0.39549  -0.39120  -0.38990  -0.38473
 Alpha  occ. eigenvalues --   -0.38278  -0.37778  -0.36368  -0.35724  -0.35589
 Alpha  occ. eigenvalues --   -0.35148  -0.35042  -0.34469  -0.34391  -0.33709
 Alpha  occ. eigenvalues --   -0.29614  -0.29276  -0.28660  -0.28267  -0.27141
 Alpha  occ. eigenvalues --   -0.25975  -0.24979  -0.24912  -0.24612  -0.24046
 Alpha  occ. eigenvalues --   -0.23212  -0.21765
 Alpha virt. eigenvalues --   -0.08341  -0.02868  -0.00862  -0.00293  -0.00105
 Alpha virt. eigenvalues --    0.00257   0.01608   0.04332   0.07718   0.08866
 Alpha virt. eigenvalues --    0.09535   0.10124   0.10675   0.11726   0.12046

 Mulliken charges:
               1
     1  C   -0.534655
     2  C    0.146853
     3  C   -0.206873
     4  C   -0.126779
     5  C    0.301698
     6  N   -0.443650
     7  N   -0.272665
     8  C    0.131628
     9  C    0.626027
    10  O   -0.521985
    11  N   -0.624534
    12  C   -0.229154
    13  C    0.342875
    14  C   -0.193327
    15  C   -0.183716
    16  C    0.082066
    17  O   -0.438856
    18  C    0.651499
    19  O   -0.530917
    20  N   -0.550586
    21  C   -0.253173
    22  C    0.105652
    23  C   -0.188483
    24  C   -0.131408
    25  C   -0.121203
    26  C   -0.185881
    27  C    0.144005
    28  C   -0.558862
    29  C    0.838836
    30  O   -0.504320
    31  C   -0.200221
    32  C    0.118051
    33  C   -0.533892
    34  H    0.163449
    35  H    0.157930
    36  H    0.163865
    37  H    0.130097
    38  H    0.157886
    39  H    0.372240
    40  H    0.195904
    41  H    0.167064
    42  H    0.155783
    43  H    0.139631
    44  H    0.151719
    45  H    0.206444
    46  H    0.185613
    47  H    0.149628
    48  H    0.130015
    49  H    0.129923
    50  H    0.123986
    51  H    0.155744
    52  H    0.153375
    53  H    0.199451
    54  H    0.165463
    55  H    0.161198
    56  H    0.165397
    57  H    0.164143
 Sum of Mulliken charges =  -0.00000

 Dipole moment (field-independent basis, Debye):
    X=              0.8483    Y=              0.6573    Z=             -0.9115  Tot=              1.4080
 Quadrupole moment (field-independent basis, Debye-Ang):
   XX=           -166.9525   YY=           -182.0685   ZZ=           -187.7544
   XY=             -8.2234   XZ=              6.3293   YZ=             10.1266

 Normal termination of Gaussian 16 at Fri Nov  4 20:49:38 2022.
