 Gaussian 16, Revision B.01,
 Gaussian 16:  ES64L-G16RevB.01 20-Dec-2017

 -----------------------------
 #p b3lyp/6-31g(d) opt SCF=XQC
 -----------------------------

 ------------------------------
 Gaussian input prepared by ASE
 ------------------------------
 Symbolic Z-matrix:
 Charge =  0 Multiplicity = 1

 SCF Done:  E(RB3LYP) =  -1555.54699973     A.U. after   14 cycles
 SCF Done:  E(RB3LYP) =  -1555.55398824     A.U. after   13 cycles
 SCF Done:  E(RB3LYP) =  -1555.55424130     A.U. after   12 cycles
 SCF Done:  E(RB3LYP) =  -1555.55322573     A.U. after   13 cycles
 SCF Done:  E(RB3LYP) =  -1555.55435265     A.U. after   12 cycles
 SCF Done:  E(RB3LYP) =  -1555.55500474     A.U. after   12 cycles
 SCF Done:  E(RB3LYP) =  -1555.55561344     A.U. after   12 cycles
 SCF Done:  E(RB3LYP) =  -1555.55576599     A.U. after   11 cycles
 SCF Done:  E(RB3LYP) =  -1555.55587771     A.U. after   11 cycles
 SCF Done:  E(RB3LYP) =  -1555.55606019     A.U. after   12 cycles
 SCF Done:  E(RB3LYP) =  -1555.56018678     A.U. after    7 cycles
 SCF Done:  E(RB3LYP) =  -1555.56018717     A.U. after    7 cycles
 SCF Done:  E(RB3LYP) =  -1555.56018740     A.U. after    7 cycles
 SCF Done:  E(RB3LYP) =  -1555.56018774     A.U. after    7 cycles
 SCF Done:  E(RB3LYP) =  -1555.56018758     A.U. after    7 cycles
 SCF Done:  E(RB3LYP) =  -1555.56018755     A.U. after    7 cycles
 SCF Done:  E(RB3LYP) =  -1555.56018735     A.U. after    7 cycles
 SCF Done:  E(RB3LYP) =  -1555.56018725     A.U. after    6 cycles
 SCF Done:  E(RB3LYP) =  -1555.56018773     A.U. after    9 cycles
 SCF Done:  E(RB3LYP) =  -1555.56018727     A.U. after    9 cycles
 Optimization completed.
    -- Stationary point found.

                         Standard orientation:
 ---------------------------------------------------------------------
 Center     Atomic      Atomic             Coordinates (Angstroms)
 Number     Number       Type             X           Y           Z
 ---------------------------------------------------------------------
      1          6           0       -6.217153   -3.703573   -2.261459
      2          8           0       -6.173520   -2.434366   -1.629806
      3          6           0       -4.996330   -2.037071   -1.063063
      4          6           0       -5.004961   -0.763032   -0.472710
      5          6           0       -3.863758   -0.262401    0.136680
      6          6           0       -2.699301   -1.033047    0.157393
      7          8           0       -1.588368   -0.443688    0.785662
      8          6           0       -0.471587   -1.202453    1.001527
      9          6           0        0.725715   -1.237427    0.307652
     10          6           0        1.015770   -0.511523   -0.977086
     11          7           0        1.885449    0.677655   -0.841583
     12          6           0        2.209879    1.227621   -2.162684
     13          6           0        3.351009    2.262179   -2.176556
     14          6           0        3.572405    2.754751   -3.614927
     15          6           0        4.648225    1.704146   -1.577168
     16          6           0        1.460432    1.670599    0.148500
     17          6           0        0.318257    2.641339   -0.235544
     18          8           0       -0.832795    1.977900   -0.740242
     19          6           0       -0.017951    3.548568    0.952083
     20          8           0       -0.855506    4.594158    0.505727
     21          6           0       -1.471983    5.371093    1.532169
     22          6           0       -2.609114    6.134999    0.860562
     23          6           0       -0.474228    6.308048    2.221685
     24          6           0        1.508063   -2.170171    1.060620
     25          6           0        2.870210   -2.674447    0.803477
     26          6           0        3.810279   -1.916658    0.086834
     27          6           0        5.091451   -2.419415   -0.145074
     28          6           0        5.456732   -3.676569    0.337224
     29          6           0        4.529296   -4.432380    1.060004
     30          6           0        3.247890   -3.938865    1.289226
     31          7           0        0.824848   -2.642112    2.113494
     32          7           0       -0.380703   -2.034434    2.072812
     33          6           0       -1.390674   -2.329774    3.070119
     34          6           0       -2.669723   -2.292233   -0.426898
     35          6           0       -3.823960   -2.797909   -1.037940
     36          1           0       -5.505362   -3.764188   -3.095549
     37          1           0       -6.010307   -4.515856   -1.551626
     38          1           0       -7.232798   -3.811984   -2.646043
     39          1           0       -5.920304   -0.181114   -0.505457
     40          1           0       -3.860188    0.723993    0.589747
     41          1           0        1.544597   -1.199900   -1.648380
     42          1           0        0.062441   -0.259480   -1.464796
     43          1           0        2.518735    0.380228   -2.791007
     44          1           0        1.319562    1.664135   -2.650630
     45          1           0        3.045358    3.132596   -1.578406
     46          1           0        4.348382    3.528019   -3.649914
     47          1           0        2.655549    3.179475   -4.040589
     48          1           0        3.894313    1.932270   -4.267109
     49          1           0        5.443760    2.458778   -1.593203
     50          1           0        4.506183    1.377715   -0.542548
     51          1           0        4.999779    0.838155   -2.153992
     52          1           0        1.179320    1.121850    1.055627
     53          1           0        2.335648    2.273964    0.423028
     54          1           0        0.644728    3.291148   -1.055138
     55          1           0       -1.120867    1.321917   -0.081309
     56          1           0        0.913154    3.940220    1.395091
     57          1           0       -0.525278    2.953851    1.734309
     58          1           0       -1.895792    4.684612    2.286758
     59          1           0       -3.167205    6.727488    1.593955
     60          1           0       -2.210757    6.813193    0.097619
     61          1           0       -3.297049    5.438778    0.371393
     62          1           0        0.332924    5.754174    2.713006
     63          1           0       -0.026100    6.987271    1.487376
     64          1           0       -0.976991    6.909785    2.987628
     65          1           0        3.539179   -0.922987   -0.259219
     66          1           0        5.809348   -1.818260   -0.697668
     67          1           0        6.455613   -4.064762    0.155190
     68          1           0        4.804379   -5.412640    1.441267
     69          1           0        2.523083   -4.524498    1.845523
     70          1           0       -2.001151   -3.189899    2.773328
     71          1           0       -2.036795   -1.458685    3.196724
     72          1           0       -0.880824   -2.553779    4.008127
     73          1           0       -1.757924   -2.880207   -0.423632
     74          1           0       -3.785319   -3.781546   -1.491140
 ---------------------------------------------------------------------

 The electronic state is 1-A.
 Alpha  occ. eigenvalues --  -19.21533 -19.18418 -19.13474 -19.12454 -14.41549
 Alpha  occ. eigenvalues --  -14.34382 -14.31936 -10.27748 -10.25940 -10.25477
 Alpha  occ. eigenvalues --  -10.24724 -10.23432 -10.23106 -10.22235 -10.22153
 Alpha  occ. eigenvalues --  -10.21056 -10.20802 -10.20421 -10.20229 -10.20187
 Alpha  occ. eigenvalues --  -10.19963 -10.19826 -10.19570 -10.18776 -10.18765
 Alpha  occ. eigenvalues --  -10.18309 -10.17897 -10.17819 -10.17740 -10.17538
 Alpha  occ. eigenvalues --  -10.17205 -10.17164 -10.16876 -10.16806 -10.16457
 Alpha  occ. eigenvalues --   -1.10490  -1.07024  -1.04369  -1.02331  -0.99795
 Alpha  occ. eigenvalues --   -0.90983  -0.86494  -0.85682  -0.83124  -0.80051
 Alpha  occ. eigenvalues --   -0.78746  -0.78089  -0.76573  -0.75697  -0.74959
 Alpha  occ. eigenvalues --   -0.74220  -0.73018  -0.71372  -0.70191  -0.68692
 Alpha  occ. eigenvalues --   -0.67706  -0.67382  -0.67327  -0.64266  -0.62326
 Alpha  occ. eigenvalues --   -0.61580  -0.60770  -0.59488  -0.58875  -0.57499
 Alpha  occ. eigenvalues --   -0.57033  -0.56211  -0.54781  -0.54148  -0.53264
 Alpha  occ. eigenvalues --   -0.51332  -0.49667  -0.49479  -0.48988  -0.48371
 Alpha  occ. eigenvalues --   -0.48017  -0.47472  -0.47074  -0.46670  -0.46142
 Alpha  occ. eigenvalues --   -0.46037  -0.45211  -0.44772  -0.44563  -0.44034
 Alpha  occ. eigenvalues --   -0.43558  -0.43318  -0.42787  -0.42538  -0.42031
 Alpha  occ. eigenvalues --   -0.41905  -0.41201  -0.40998  -0.40597  -0.40377
 Alpha  occ. eigenvalues --   -0.40103  -0.39639  -0.39335  -0.38986  -0.38462
 Alpha  occ. eigenvalues --   -0.38341  -0.37634  -0.37463  -0.37207  -0.36578
 Alpha  occ. eigenvalues --   -0.36299  -0.35795  -0.35259  -0.35021  -0.34784
 Alpha  occ. eigenvalues --   -0.33886  -0.33646  -0.33424  -0.32955  -0.32562
 Alpha  occ. eigenvalues --   -0.32403  -0.31565  -0.31388  -0.31002  -0.29833
 Alpha  occ. eigenvalues --   -0.28254  -0.27369  -0.26417  -0.26064  -0.24463
 Alpha  occ. eigenvalues --   -0.23993  -0.23694  -0.21915  -0.21178  -0.19737
 Alpha virt. eigenvalues --   -0.01633  -0.01204   0.00902   0.01232   0.02545
 Alpha virt. eigenvalues --    0.07265   0.07914   0.08340   0.08689   0.09474
 Alpha virt. eigenvalues --    0.10124   0.10224   0.11224   0.11702   0.12035

 Mulliken charges:
               1
     1  C   -0.216499
     2  O   -0.508510
     3  C    0.384328
     4  C   -0.179057
     5  C   -0.173218
     6  C    0.342398
     7  O   -0.624299
     8  C    0.513127
     9  C   -0.016944
    10  C   -0.215955
    11  N   -0.404085
    12  C   -0.107752
    13  C   -0.092429
    14  C   -0.445576
    15  C   -0.442992
    16  C   -0.174925
    17  C    0.106666
    18  O   -0.647914
    19  C   -0.011848
    20  O   -0.478650
    21  C    0.166501
    22  C   -0.447271
    23  C   -0.457928
    24  C    0.208828
    25  C    0.107982
    26  C   -0.199813
    27  C   -0.153236
    28  C   -0.124307
    29  C   -0.138878
    30  C   -0.163558
    31  N   -0.384310
    32  N   -0.260319
    33  C   -0.319654
    34  C   -0.180769
    35  C   -0.208336
    36  H    0.154434
    37  H    0.151360
    38  H    0.172980
    39  H    0.149264
    40  H    0.152687
    41  H    0.150536
    42  H    0.153524
    43  H    0.127060
    44  H    0.136860
    45  H    0.127136
    46  H    0.141883
    47  H    0.144909
    48  H    0.139024
    49  H    0.135539
    50  H    0.162913
    51  H    0.136260
    52  H    0.141774
    53  H    0.141034
    54  H    0.146177
    55  H    0.416609
    56  H    0.115111
    57  H    0.103716
    58  H    0.104619
    59  H    0.136115
    60  H    0.152478
    61  H    0.157292
    62  H    0.145565
    63  H    0.151780
    64  H    0.140843
    65  H    0.187332
    66  H    0.125752
    67  H    0.123602
    68  H    0.124521
    69  H    0.143249
    70  H    0.178113
    71  H    0.180385
    72  H    0.192872
    73  H    0.162739
    74  H    0.141153
 Sum of Mulliken charges =  -0.00000

 Dipole moment (field-independent basis, Debye):
    X=             -2.8076    Y=             -1.6530    Z=              0.8910  Tot=              3.3777
 Quadrupole moment (field-independent basis, Debye-Ang):
   XX=           -199.0393   YY=           -196.7955   ZZ=           -203.9486
   XY=             16.7464   XZ=             -5.9531   YZ=             12.2987

 Normal termination of Gaussian 16 at Fri Nov  4 21:50:16 2022.
