 Gaussian 16, Revision B.01,
 Gaussian 16:  ES64L-G16RevB.01 20-Dec-2017

 -------------------------------------------------------------------
 #p b3lyp/6-31g(d) 6D 10F nosymm GFInput td=(50-50,nstate=2) SCF=XQC
 -------------------------------------------------------------------

 ------------------------------
 Gaussian input prepared by ASE
 ------------------------------
 Symbolic Z-matrix:
 Charge =  0 Multiplicity = 1

                          Input orientation:
 ---------------------------------------------------------------------
 Center     Atomic      Atomic             Coordinates (Angstroms)
 Number     Number       Type             X           Y           Z
 ---------------------------------------------------------------------
      1          6           0        6.647596    3.478800    2.366004
      2          8           0        5.401415    4.094332    2.083292
      3          6           0        4.466308    3.371311    1.399455
      4          6           0        3.243893    4.022399    1.168041
      5          6           0        2.225298    3.381728    0.477870
      6          6           0        2.420228    2.078596    0.015128
      7          8           0        1.332269    1.502805   -0.663878
      8          6           0        1.508213    0.304077   -1.297610
      9          6           0        1.135362   -0.970259   -0.906115
     10          6           0        0.550958   -1.341250    0.428973
     11          7           0       -0.899904   -1.630625    0.418602
     12          6           0       -1.336098   -2.107344    1.735986
     13          6           0       -2.741405   -2.737154    1.769603
     14          6           0       -3.065638   -3.179018    3.204937
     15          6           0       -2.877202   -3.907138    0.786683
     16          6           0       -1.753394   -0.596971   -0.172969
     17          6           0       -2.083727    0.651990    0.678715
     18          8           0       -0.930589    1.272670    1.230819
     19          6           0       -2.926848    1.634630   -0.139897
     20          8           0       -3.443645    2.624095    0.724897
     21          6           0       -4.028356    3.757953    0.084792
     22          6           0       -4.133792    4.840998    1.154170
     23          6           0       -5.388476    3.427787   -0.539624
     24          6           0        1.529747   -1.778458   -2.019809
     25          6           0        1.443458   -3.240592   -2.194676
     26          6           0        0.473222   -4.003817   -1.525586
     27          6           0        0.416072   -5.386527   -1.706679
     28          6           0        1.316272   -6.026799   -2.558835
     29          6           0        2.278508   -5.272156   -3.235897
     30          6           0        2.344419   -3.893433   -3.054569
     31          7           0        2.086732   -1.036635   -2.988065
     32          7           0        2.057872    0.236919   -2.539168
     33          6           0        2.602894    1.315055   -3.340706
     34          6           0        3.619627    1.416304    0.240147
     35          6           0        4.648480    2.066117    0.933363
     36          1           0        6.523099    2.581236    2.986413
     37          1           0        7.183437    3.209210    1.445869
     38          1           0        7.229457    4.219719    2.917067
     39          1           0        3.114418    5.033090    1.541260
     40          1           0        1.275127    3.875593    0.300300
     41          1           0        1.041600   -2.259739    0.775102
     42          1           0        0.799063   -0.553518    1.155709
     43          1           0       -0.616598   -2.877604    2.047881
     44          1           0       -1.279605   -1.307458    2.496440
     45          1           0       -3.478453   -1.970234    1.491348
     46          1           0       -4.079944   -3.589268    3.269638
     47          1           0       -2.996485   -2.341555    3.909265
     48          1           0       -2.370456   -3.958723    3.542904
     49          1           0       -3.885856   -4.335834    0.824610
     50          1           0       -2.676186   -3.594232   -0.242324
     51          1           0       -2.166603   -4.706546    1.036190
     52          1           0       -1.276155   -0.281067   -1.108638
     53          1           0       -2.702752   -1.065058   -0.464571
     54          1           0       -2.683309    0.359257    1.547840
     55          1           0       -0.318244    1.481526    0.503561
     56          1           0       -3.734967    1.089620   -0.656146
     57          1           0       -2.294760    2.095875   -0.921347
     58          1           0       -3.345386    4.103673   -0.711642
     59          1           0       -4.535352    5.768523    0.731296
     60          1           0       -4.797382    4.512182    1.961786
     61          1           0       -3.149083    5.046110    1.584919
     62          1           0       -5.305351    2.659092   -1.315425
     63          1           0       -6.078177    3.063999    0.230663
     64          1           0       -5.826416    4.319626   -1.002614
     65          1           0       -0.250878   -3.502815   -0.888951
     66          1           0       -0.344180   -5.962708   -1.184992
     67          1           0        1.268504   -7.103818   -2.697908
     68          1           0        2.983790   -5.761274   -3.903193
     69          1           0        3.093159   -3.304360   -3.574337
     70          1           0        3.673474    1.448901   -3.149584
     71          1           0        2.077790    2.242074   -3.101542
     72          1           0        2.451187    1.062345   -4.390994
     73          1           0        3.760320    0.397746   -0.106041
     74          1           0        5.578384    1.536026    1.102793
 ---------------------------------------------------------------------

 SCF Done:  E(RB3LYP) =  -1555.56018896     A.U. after   14 cycles

 Excitation energies and oscillator strengths:

 Excited state symmetry could not be determined.
 Excited State   1:      Triplet-?Sym    3.3564 eV  369.40 nm  f=0.0000  <S**2>=2.000
     127 ->134         0.26095
     128 ->132        -0.19007
     129 ->131         0.21530
     129 ->132         0.55021
 This state for optimization and/or second-order correction.
 Total Energy, E(TD-HF/TD-DFT) =  -1555.43684492
 Copying the excited state density for this state as the 1-particle RhoCI density.

 Excited state symmetry could not be determined.
 Excited State   2:      Triplet-?Sym    3.6879 eV  336.19 nm  f=0.0000  <S**2>=2.000
     123 ->131        -0.37176
     123 ->132         0.12928
     128 ->131         0.21619
     128 ->132        -0.10555
     128 ->133        -0.45786
     129 ->131         0.11295
     129 ->133        -0.20241

 Excited state symmetry could not be determined.
 Excited State   3:      Singlet-?Sym    4.3787 eV  283.15 nm  f=0.0018  <S**2>=0.000
     130 ->131         0.51186
     130 ->132         0.48506

 Excited state symmetry could not be determined.
 Excited State   4:      Singlet-?Sym    4.4794 eV  276.79 nm  f=0.0012  <S**2>=0.000
     130 ->131        -0.48638
     130 ->132         0.51204

 Alpha  occ. eigenvalues --  -19.21533 -19.18418 -19.13473 -19.12454 -14.41549
 Alpha  occ. eigenvalues --  -14.34382 -14.31936 -10.27748 -10.25939 -10.25477
 Alpha  occ. eigenvalues --  -10.24724 -10.23432 -10.23105 -10.22235 -10.22153
 Alpha  occ. eigenvalues --  -10.21056 -10.20802 -10.20421 -10.20229 -10.20187
 Alpha  occ. eigenvalues --  -10.19963 -10.19826 -10.19570 -10.18777 -10.18765
 Alpha  occ. eigenvalues --  -10.18309 -10.17897 -10.17819 -10.17740 -10.17538
 Alpha  occ. eigenvalues --  -10.17205 -10.17164 -10.16876 -10.16806 -10.16457
 Alpha  occ. eigenvalues --   -1.10490  -1.07024  -1.04369  -1.02331  -0.99795
 Alpha  occ. eigenvalues --   -0.90983  -0.86494  -0.85682  -0.83124  -0.80051
 Alpha  occ. eigenvalues --   -0.78746  -0.78089  -0.76573  -0.75697  -0.74959
 Alpha  occ. eigenvalues --   -0.74220  -0.73018  -0.71373  -0.70191  -0.68692
 Alpha  occ. eigenvalues --   -0.67706  -0.67382  -0.67327  -0.64266  -0.62326
 Alpha  occ. eigenvalues --   -0.61580  -0.60770  -0.59489  -0.58875  -0.57499
 Alpha  occ. eigenvalues --   -0.57033  -0.56211  -0.54781  -0.54148  -0.53264
 Alpha  occ. eigenvalues --   -0.51332  -0.49667  -0.49479  -0.48988  -0.48371
 Alpha  occ. eigenvalues --   -0.48017  -0.47472  -0.47074  -0.46670  -0.46142
 Alpha  occ. eigenvalues --   -0.46037  -0.45211  -0.44772  -0.44563  -0.44034
 Alpha  occ. eigenvalues --   -0.43558  -0.43318  -0.42787  -0.42538  -0.42031
 Alpha  occ. eigenvalues --   -0.41905  -0.41201  -0.40998  -0.40597  -0.40377
 Alpha  occ. eigenvalues --   -0.40103  -0.39639  -0.39335  -0.38986  -0.38462
 Alpha  occ. eigenvalues --   -0.38341  -0.37634  -0.37463  -0.37207  -0.36578
 Alpha  occ. eigenvalues --   -0.36299  -0.35795  -0.35259  -0.35021  -0.34784
 Alpha  occ. eigenvalues --   -0.33886  -0.33646  -0.33424  -0.32955  -0.32562
 Alpha  occ. eigenvalues --   -0.32403  -0.31565  -0.31388  -0.31002  -0.29833
 Alpha  occ. eigenvalues --   -0.28254  -0.27369  -0.26417  -0.26064  -0.24463
 Alpha  occ. eigenvalues --   -0.23993  -0.23694  -0.21915  -0.21178  -0.19737
 Alpha virt. eigenvalues --   -0.01632  -0.01204   0.00903   0.01232   0.02545
 Alpha virt. eigenvalues --    0.07265   0.07914   0.08340   0.08689   0.09474
 Alpha virt. eigenvalues --    0.10124   0.10224   0.11224   0.11702   0.12035

 Mulliken charges:
               1
     1  C   -0.216501
     2  O   -0.508512
     3  C    0.384333
     4  C   -0.179053
     5  C   -0.173222
     6  C    0.342464
     7  O   -0.624315
     8  C    0.513088
     9  C   -0.016926
    10  C   -0.215976
    11  N   -0.404059
    12  C   -0.107779
    13  C   -0.092411
    14  C   -0.445574
    15  C   -0.443006
    16  C   -0.174916
    17  C    0.106643
    18  O   -0.647908
    19  C   -0.011848
    20  O   -0.478644
    21  C    0.166501
    22  C   -0.447273
    23  C   -0.457930
    24  C    0.208835
    25  C    0.107973
    26  C   -0.199798
    27  C   -0.153247
    28  C   -0.124300
    29  C   -0.138879
    30  C   -0.163568
    31  N   -0.384307
    32  N   -0.260304
    33  C   -0.319669
    34  C   -0.180775
    35  C   -0.208359
    36  H    0.154435
    37  H    0.151361
    38  H    0.172980
    39  H    0.149262
    40  H    0.152684
    41  H    0.150540
    42  H    0.153526
    43  H    0.127062
    44  H    0.136864
    45  H    0.127135
    46  H    0.141883
    47  H    0.144908
    48  H    0.139024
    49  H    0.135541
    50  H    0.162915
    51  H    0.136263
    52  H    0.141772
    53  H    0.141033
    54  H    0.146182
    55  H    0.416608
    56  H    0.115112
    57  H    0.103720
    58  H    0.104619
    59  H    0.136114
    60  H    0.152478
    61  H    0.157293
    62  H    0.145566
    63  H    0.151781
    64  H    0.140843
    65  H    0.187324
    66  H    0.125751
    67  H    0.123602
    68  H    0.124521
    69  H    0.143250
    70  H    0.178117
    71  H    0.180390
    72  H    0.192875
    73  H    0.162733
    74  H    0.141156
 Sum of Mulliken charges =  -0.00000

 Dipole moment (field-independent basis, Debye):
    X=              2.5339    Y=              2.1319    Z=             -0.6645  Tot=              3.3775
 Quadrupole moment (field-independent basis, Debye-Ang):
   XX=           -180.2969   YY=           -204.0683   ZZ=           -213.1618
   XY=              7.0248   XZ=              6.9451   YZ=            -11.7134

 Normal termination of Gaussian 16 at Sat Nov  5 12:29:18 2022.
