 Gaussian 16, Revision B.01,
 Gaussian 16:  ES64L-G16RevB.01 20-Dec-2017

 -------------------------------------------------------------------
 #p b3lyp/6-31g(d) 6D 10F nosymm GFInput td=(50-50,nstate=2) SCF=XQC
 -------------------------------------------------------------------

 ------------------------------
 Gaussian input prepared by ASE
 ------------------------------
 Symbolic Z-matrix:
 Charge =  0 Multiplicity = 1

                          Input orientation:
 ---------------------------------------------------------------------
 Center     Atomic      Atomic             Coordinates (Angstroms)
 Number     Number       Type             X           Y           Z
 ---------------------------------------------------------------------
      1          6           0        6.929772   -1.996455   -0.436260
      2          6           0        5.522225   -2.514102   -0.744654
      3          7           0        4.480055   -1.754206   -0.071880
      4          7           0        4.222833   -2.019739    1.235174
      5          6           0        3.309043   -1.122391    1.598792
      6          6           0        2.751171   -1.115014    2.989154
      7          6           0        2.974588   -0.258656    0.521311
      8          6           0        1.970787    0.859878    0.537130
      9          7           0        0.615555    0.326191    0.650366
     10          6           0       -0.358705    0.854652    0.012225
     11          7           0       -1.553858    0.087357    0.013040
     12          6           0       -2.726263    0.288176   -0.679074
     13          8           0       -2.881995    1.205445   -1.489460
     14          6           0       -3.813756   -0.706813   -0.409575
     15          6           0       -4.812749   -0.839382   -1.378566
     16          6           0       -5.863175   -1.746075   -1.205931
     17          6           0       -6.918146   -1.916835   -2.274476
     18          6           0       -5.900342   -2.503919   -0.030439
     19          6           0       -4.923712   -2.378435    0.967170
     20          6           0       -5.015222   -3.192474    2.237357
     21          6           0       -3.878973   -1.474296    0.762995
     22          7           0       -0.424106    2.034037   -0.713630
     23          6           0        0.071079    3.277952   -0.283871
     24          6           0        0.433923    3.583488    1.035185
     25          6           0        0.893293    4.859400    1.368015
     26          6           0        0.977932    5.860651    0.400831
     27          6           0        0.594640    5.582665   -0.914201
     28          6           0        0.154144    4.309191   -1.231395
     29          9           0       -0.233176    4.031268   -2.498760
     30          6           0        3.752720   -0.696153   -0.541757
     31          6           0        3.850921   -0.206249   -1.953322
     32          1           0        7.108921   -2.020190    0.642706
     33          1           0        7.058239   -0.965428   -0.783904
     34          1           0        7.682391   -2.621967   -0.929932
     35          1           0        5.322533   -2.484534   -1.820318
     36          1           0        5.418122   -3.551792   -0.415089
     37          1           0        1.658229   -1.192081    2.971499
     38          1           0        3.159657   -1.953092    3.560564
     39          1           0        3.000790   -0.186134    3.519455
     40          1           0        2.174337    1.520081    1.393518
     41          1           0        2.091586    1.486506   -0.357527
     42          1           0       -1.418251   -0.793760    0.491601
     43          1           0       -4.754039   -0.220609   -2.268607
     44          1           0       -6.594446   -2.635548   -3.038909
     45          1           0       -7.124158   -0.970903   -2.786059
     46          1           0       -7.858310   -2.288601   -1.854147
     47          1           0       -6.718362   -3.206941    0.118997
     48          1           0       -5.058230   -4.266616    2.020371
     49          1           0       -4.153215   -3.017587    2.888469
     50          1           0       -5.919009   -2.942818    2.806927
     51          1           0       -3.140548   -1.344356    1.550317
     52          1           0       -1.223102    2.075135   -1.349959
     53          1           0        0.338461    2.818429    1.798048
     54          1           0        1.172698    5.070146    2.396279
     55          1           0        1.331521    6.853231    0.662444
     56          1           0        0.633673    6.333518   -1.696782
     57          1           0        3.155315    0.621589   -2.113475
     58          1           0        3.597439   -0.990739   -2.677865
     59          1           0        4.857253    0.155904   -2.200115
 ---------------------------------------------------------------------

 SCF Done:  E(RB3LYP) =  -1380.26339573     A.U. after   15 cycles

 Excitation energies and oscillator strengths:

 Excited state symmetry could not be determined.
 Excited State   1:      Triplet-?Sym    3.3427 eV  370.91 nm  f=0.0000  <S**2>=2.000
     109 ->113         0.19182
     109 ->117        -0.10641
     111 ->113         0.12257
     112 ->113         0.52022
     112 ->115         0.27045
     112 ->116         0.17327
 This state for optimization and/or second-order correction.
 Total Energy, E(TD-HF/TD-DFT) =  -1380.14055448
 Copying the excited state density for this state as the 1-particle RhoCI density.

 Excited state symmetry could not be determined.
 Excited State   2:      Triplet-?Sym    3.4425 eV  360.16 nm  f=0.0000  <S**2>=2.000
     105 ->113         0.35613
     106 ->113        -0.39007
     107 ->113         0.22482
     107 ->114         0.30682

 Excited state symmetry could not be determined.
 Excited State   3:      Singlet-?Sym    3.8040 eV  325.93 nm  f=0.0243  <S**2>=0.000
     111 ->113         0.11570
     112 ->113         0.69069

 Excited state symmetry could not be determined.
 Excited State   4:      Singlet-?Sym    4.0612 eV  305.29 nm  f=0.0087  <S**2>=0.000
     111 ->113         0.68900
     112 ->113        -0.12343

 Alpha  occ. eigenvalues --  -24.70391 -19.13330 -14.38479 -14.37975 -14.35960
 Alpha  occ. eigenvalues --  -14.32000 -14.30578 -10.30799 -10.29654 -10.26682
 Alpha  occ. eigenvalues --  -10.23850 -10.22287 -10.20935 -10.20890 -10.20888
 Alpha  occ. eigenvalues --  -10.20747 -10.20677 -10.20256 -10.19727 -10.19475
 Alpha  occ. eigenvalues --  -10.19475 -10.19365 -10.19292 -10.19209 -10.19155
 Alpha  occ. eigenvalues --  -10.19044 -10.19011 -10.18604 -10.17895 -10.16472
 Alpha  occ. eigenvalues --  -10.16027  -1.21387  -1.05298  -1.02173  -0.98722
 Alpha  occ. eigenvalues --   -0.92344  -0.88413  -0.86917  -0.84873  -0.83366
 Alpha  occ. eigenvalues --   -0.79312  -0.79034  -0.78071  -0.75284  -0.74822
 Alpha  occ. eigenvalues --   -0.74265  -0.71624  -0.70114  -0.69141  -0.68960
 Alpha  occ. eigenvalues --   -0.68299  -0.65322  -0.63906  -0.61528  -0.61336
 Alpha  occ. eigenvalues --   -0.59365  -0.58255  -0.57511  -0.55255  -0.54890
 Alpha  occ. eigenvalues --   -0.53406  -0.52639  -0.51443  -0.50580  -0.49224
 Alpha  occ. eigenvalues --   -0.48826  -0.48101  -0.47531  -0.46370  -0.45842
 Alpha  occ. eigenvalues --   -0.45549  -0.45101  -0.44923  -0.44063  -0.43704
 Alpha  occ. eigenvalues --   -0.43359  -0.42847  -0.42613  -0.42070  -0.41837
 Alpha  occ. eigenvalues --   -0.41252  -0.41045  -0.40826  -0.40503  -0.40369
 Alpha  occ. eigenvalues --   -0.39884  -0.39715  -0.39097  -0.38232  -0.37809
 Alpha  occ. eigenvalues --   -0.37279  -0.36936  -0.36781  -0.35778  -0.35596
 Alpha  occ. eigenvalues --   -0.35361  -0.35037  -0.34773  -0.34736  -0.34628
 Alpha  occ. eigenvalues --   -0.33715  -0.30357  -0.27688  -0.26717  -0.25753
 Alpha  occ. eigenvalues --   -0.25401  -0.24824  -0.24737  -0.24300  -0.21850
 Alpha  occ. eigenvalues --   -0.21484  -0.20821
 Alpha virt. eigenvalues --   -0.04912  -0.00905  -0.00511   0.00413   0.02696
 Alpha virt. eigenvalues --    0.03674   0.06588   0.08163   0.08361   0.08734
 Alpha virt. eigenvalues --    0.08867   0.10634   0.11346   0.11464   0.12628

 Mulliken charges:
               1
     1  C   -0.443339
     2  C   -0.136481
     3  N   -0.310838
     4  N   -0.371321
     5  C    0.316127
     6  C   -0.526473
     7  C   -0.027073
     8  C   -0.259894
     9  N   -0.473118
    10  C    0.680216
    11  N   -0.684954
    12  C    0.586607
    13  O   -0.532541
    14  C    0.076881
    15  C   -0.212821
    16  C    0.175942
    17  C   -0.529569
    18  C   -0.220999
    19  C    0.180983
    20  C   -0.532629
    21  C   -0.248640
    22  N   -0.742558
    23  C    0.259848
    24  C   -0.164072
    25  C   -0.145004
    26  C   -0.132617
    27  C   -0.201035
    28  C    0.325929
    29  F   -0.294046
    30  C    0.357544
    31  C   -0.538552
    32  H    0.176259
    33  H    0.149995
    34  H    0.144858
    35  H    0.149438
    36  H    0.171491
    37  H    0.166588
    38  H    0.162872
    39  H    0.147989
    40  H    0.147104
    41  H    0.147689
    42  H    0.350493
    43  H    0.156945
    44  H    0.170123
    45  H    0.166363
    46  H    0.157873
    47  H    0.122912
    48  H    0.166440
    49  H    0.159244
    50  H    0.168385
    51  H    0.132151
    52  H    0.379652
    53  H    0.153472
    54  H    0.133776
    55  H    0.134231
    56  H    0.146333
    57  H    0.177132
    58  H    0.165554
    59  H    0.163135
 Sum of Mulliken charges =  -0.00000

 Dipole moment (field-independent basis, Debye):
    X=             -1.4237    Y=             -1.2491    Z=             -0.2830  Tot=              1.9150
 Quadrupole moment (field-independent basis, Debye-Ang):
   XX=           -160.1393   YY=           -171.0933   ZZ=           -176.8805
   XY=             18.0415   XZ=            -12.5249   YZ=              8.2635

 Normal termination of Gaussian 16 at Sat Nov  5 12:08:26 2022.
