 Gaussian 16, Revision B.01,
 Gaussian 16:  ES64L-G16RevB.01 20-Dec-2017

 -----------------------------
 #p b3lyp/6-31g(d) opt SCF=XQC
 -----------------------------

 ------------------------------
 Gaussian input prepared by ASE
 ------------------------------
 Symbolic Z-matrix:
 Charge =  0 Multiplicity = 1

 SCF Done:  E(RB3LYP) =  -1380.25288362     A.U. after   15 cycles
 SCF Done:  E(RB3LYP) =  -1380.25952243     A.U. after   13 cycles
 SCF Done:  E(RB3LYP) =  -1380.25904280     A.U. after   13 cycles
 SCF Done:  E(RB3LYP) =  -1380.26136347     A.U. after   13 cycles
 SCF Done:  E(RB3LYP) =  -1380.26211132     A.U. after   12 cycles
 SCF Done:  E(RB3LYP) =  -1380.26260231     A.U. after   11 cycles
 SCF Done:  E(RB3LYP) =  -1380.26303513     A.U. after   12 cycles
 SCF Done:  E(RB3LYP) =  -1380.26316984     A.U. after   12 cycles
 SCF Done:  E(RB3LYP) =  -1380.26326045     A.U. after   10 cycles
 SCF Done:  E(RB3LYP) =  -1380.26332787     A.U. after   11 cycles
 SCF Done:  E(RB3LYP) =  -1380.26339760     A.U. after    9 cycles
 SCF Done:  E(RB3LYP) =  -1380.26339782     A.U. after    9 cycles
 SCF Done:  E(RB3LYP) =  -1380.26339834     A.U. after    9 cycles
 SCF Done:  E(RB3LYP) =  -1380.26339940     A.U. after    9 cycles
 SCF Done:  E(RB3LYP) =  -1380.26339949     A.U. after    8 cycles
 SCF Done:  E(RB3LYP) =  -1380.26339960     A.U. after    8 cycles
 SCF Done:  E(RB3LYP) =  -1380.26339970     A.U. after    8 cycles
 SCF Done:  E(RB3LYP) =  -1380.26339971     A.U. after    6 cycles
 SCF Done:  E(RB3LYP) =  -1380.26339973     A.U. after    8 cycles
 SCF Done:  E(RB3LYP) =  -1380.26339973     A.U. after    6 cycles
 Optimization completed.
    -- Stationary point found.

                         Standard orientation:
 ---------------------------------------------------------------------
 Center     Atomic      Atomic             Coordinates (Angstroms)
 Number     Number       Type             X           Y           Z
 ---------------------------------------------------------------------
      1          6           0        6.630017   -3.126714   -1.192968
      2          6           0        5.148758   -3.399971   -1.467664
      3          7           0        4.262587   -2.622092   -0.615733
      4          7           0        4.040893   -3.049884    0.654270
      5          6           0        3.284505   -2.106656    1.211639
      6          6           0        2.808830   -2.240368    2.625936
      7          6           0        3.018559   -1.050406    0.299240
      8          6           0        2.185893    0.174981    0.552375
      9          7           0        0.776720   -0.185985    0.687406
     10          6           0       -0.145585    0.558696    0.207323
     11          7           0       -1.435709   -0.034800    0.185530
     12          6           0       -2.603243    0.423590   -0.380710
     13          8           0       -2.670590    1.467407   -1.035133
     14          6           0       -3.804817   -0.448555   -0.178584
     15          6           0       -4.863114   -0.296766   -1.079402
     16          6           0       -6.020729   -1.072401   -0.962752
     17          6           0       -7.145121   -0.935240   -1.963171
     18          6           0       -6.101818   -1.990999    0.089435
     19          6           0       -5.065094   -2.151188    1.019121
     20          6           0       -5.202782   -3.132247    2.160601
     21          6           0       -3.915157   -1.372433    0.871407
     22          7           0       -0.081923    1.834176   -0.332299
     23          6           0        0.607075    2.920362    0.235774
     24          6           0        1.079926    2.967942    1.554510
     25          6           0        1.732856    4.105153    2.034281
     26          6           0        1.906587    5.223648    1.219480
     27          6           0        1.417649    5.205124   -0.089755
     28          6           0        0.784561    4.065392   -0.555151
     29          9           0        0.294211    4.040102   -1.817051
     30          6           0        3.668514   -1.417470   -0.871158
     31          6           0        3.759240   -0.732842   -2.199772
     32          1           0        6.861692   -3.340198   -0.145315
     33          1           0        6.884576   -2.080502   -1.395495
     34          1           0        7.258673   -3.762404   -1.827082
     35          1           0        4.897784   -3.178571   -2.509680
     36          1           0        4.916364   -4.453134   -1.285758
     37          1           0        1.716654   -2.168691    2.678732
     38          1           0        3.124402   -3.203150    3.037289
     39          1           0        3.215816   -1.445719    3.265656
     40          1           0        2.526748    0.662304    1.478138
     41          1           0        2.346120    0.910694   -0.248075
     42          1           0       -1.400952   -0.989332    0.519350
     43          1           0       -4.765124    0.438746   -1.871815
     44          1           0       -6.968188   -1.563714   -2.846009
     45          1           0       -7.242049    0.097155   -2.314893
     46          1           0       -8.104562   -1.239918   -1.532542
     47          1           0       -7.002072   -2.594338    0.195516
     48          1           0       -5.409321   -4.144797    1.793452
     49          1           0       -4.290961   -3.175426    2.764178
     50          1           0       -6.030096   -2.856314    2.826168
     51          1           0       -3.124546   -1.464321    1.612030
     52          1           0       -0.900030    2.078226   -0.894562
     53          1           0        0.918026    2.113685    2.202910
     54          1           0        2.094165    4.115839    3.058561
     55          1           0        2.410941    6.108410    1.595648
     56          1           0        1.520700    6.055971   -0.755469
     57          1           0        3.180512    0.194360   -2.185498
     58          1           0        3.358483   -1.355615   -3.009826
     59          1           0        4.792042   -0.473111   -2.465528
 ---------------------------------------------------------------------

 The electronic state is 1-A.
 Alpha  occ. eigenvalues --  -24.70391 -19.13330 -14.38479 -14.37975 -14.35960
 Alpha  occ. eigenvalues --  -14.32000 -14.30578 -10.30799 -10.29654 -10.26682
 Alpha  occ. eigenvalues --  -10.23850 -10.22287 -10.20935 -10.20890 -10.20888
 Alpha  occ. eigenvalues --  -10.20746 -10.20677 -10.20256 -10.19727 -10.19475
 Alpha  occ. eigenvalues --  -10.19475 -10.19365 -10.19292 -10.19209 -10.19155
 Alpha  occ. eigenvalues --  -10.19044 -10.19011 -10.18604 -10.17895 -10.16472
 Alpha  occ. eigenvalues --  -10.16027  -1.21387  -1.05298  -1.02173  -0.98722
 Alpha  occ. eigenvalues --   -0.92344  -0.88413  -0.86917  -0.84873  -0.83366
 Alpha  occ. eigenvalues --   -0.79313  -0.79034  -0.78071  -0.75284  -0.74822
 Alpha  occ. eigenvalues --   -0.74265  -0.71624  -0.70114  -0.69141  -0.68960
 Alpha  occ. eigenvalues --   -0.68299  -0.65322  -0.63907  -0.61528  -0.61336
 Alpha  occ. eigenvalues --   -0.59365  -0.58255  -0.57511  -0.55255  -0.54890
 Alpha  occ. eigenvalues --   -0.53406  -0.52639  -0.51443  -0.50580  -0.49224
 Alpha  occ. eigenvalues --   -0.48826  -0.48101  -0.47531  -0.46370  -0.45842
 Alpha  occ. eigenvalues --   -0.45549  -0.45101  -0.44923  -0.44063  -0.43704
 Alpha  occ. eigenvalues --   -0.43359  -0.42847  -0.42613  -0.42070  -0.41837
 Alpha  occ. eigenvalues --   -0.41252  -0.41045  -0.40826  -0.40503  -0.40369
 Alpha  occ. eigenvalues --   -0.39884  -0.39715  -0.39097  -0.38232  -0.37809
 Alpha  occ. eigenvalues --   -0.37279  -0.36936  -0.36781  -0.35778  -0.35596
 Alpha  occ. eigenvalues --   -0.35361  -0.35037  -0.34773  -0.34736  -0.34628
 Alpha  occ. eigenvalues --   -0.33715  -0.30357  -0.27688  -0.26717  -0.25753
 Alpha  occ. eigenvalues --   -0.25401  -0.24824  -0.24737  -0.24300  -0.21850
 Alpha  occ. eigenvalues --   -0.21484  -0.20821
 Alpha virt. eigenvalues --   -0.04912  -0.00905  -0.00511   0.00413   0.02696
 Alpha virt. eigenvalues --    0.03674   0.06588   0.08163   0.08360   0.08734
 Alpha virt. eigenvalues --    0.08867   0.10634   0.11346   0.11464   0.12628

 Mulliken charges:
               1
     1  C   -0.443341
     2  C   -0.136482
     3  N   -0.310831
     4  N   -0.371318
     5  C    0.316134
     6  C   -0.526464
     7  C   -0.027086
     8  C   -0.259897
     9  N   -0.473114
    10  C    0.680222
    11  N   -0.684977
    12  C    0.586628
    13  O   -0.532546
    14  C    0.076894
    15  C   -0.212831
    16  C    0.175954
    17  C   -0.529576
    18  C   -0.221016
    19  C    0.181016
    20  C   -0.532638
    21  C   -0.248660
    22  N   -0.742554
    23  C    0.259844
    24  C   -0.164073
    25  C   -0.145003
    26  C   -0.132614
    27  C   -0.201038
    28  C    0.325929
    29  F   -0.294046
    30  C    0.357530
    31  C   -0.538548
    32  H    0.176259
    33  H    0.149997
    34  H    0.144858
    35  H    0.149438
    36  H    0.171491
    37  H    0.166586
    38  H    0.162869
    39  H    0.147988
    40  H    0.147104
    41  H    0.147691
    42  H    0.350493
    43  H    0.156946
    44  H    0.170123
    45  H    0.166364
    46  H    0.157874
    47  H    0.122911
    48  H    0.166441
    49  H    0.159245
    50  H    0.168386
    51  H    0.132150
    52  H    0.379652
    53  H    0.153472
    54  H    0.133776
    55  H    0.134231
    56  H    0.146334
    57  H    0.177132
    58  H    0.165556
    59  H    0.163136
 Sum of Mulliken charges =  -0.00000

 Dipole moment (field-independent basis, Debye):
    X=             -1.5996    Y=             -0.9911    Z=             -0.3548  Tot=              1.9150
 Quadrupole moment (field-independent basis, Debye-Ang):
   XX=           -156.8316   YY=           -178.0757   ZZ=           -172.8742
   XY=             18.4251   XZ=             -9.7534   YZ=              8.6826

 Normal termination of Gaussian 16 at Fri Nov  4 21:27:23 2022.
