 Gaussian 16, Revision B.01,
 Gaussian 16:  ES64L-G16RevB.01 20-Dec-2017

 -----------------------------
 #p b3lyp/6-31g(d) opt SCF=XQC
 -----------------------------

 ------------------------------
 Gaussian input prepared by ASE
 ------------------------------
 Symbolic Z-matrix:
 Charge =  0 Multiplicity = 1

 SCF Done:  E(RB3LYP) =  -1342.62379333     A.U. after   15 cycles
 SCF Done:  E(RB3LYP) =  -1342.63102536     A.U. after   13 cycles
 SCF Done:  E(RB3LYP) =  -1342.63178959     A.U. after   13 cycles
 SCF Done:  E(RB3LYP) =  -1342.63216819     A.U. after   12 cycles
 SCF Done:  E(RB3LYP) =  -1342.63240540     A.U. after   11 cycles
 SCF Done:  E(RB3LYP) =  -1342.63246870     A.U. after   12 cycles
 SCF Done:  E(RB3LYP) =  -1342.63251601     A.U. after   10 cycles
 SCF Done:  E(RB3LYP) =  -1342.63252739     A.U. after   10 cycles
 SCF Done:  E(RB3LYP) =  -1342.63253296     A.U. after   10 cycles
 SCF Done:  E(RB3LYP) =  -1342.63253464     A.U. after    8 cycles
 SCF Done:  E(RB3LYP) =  -1342.63253667     A.U. after    8 cycles
 SCF Done:  E(RB3LYP) =  -1342.63253706     A.U. after    9 cycles
 SCF Done:  E(RB3LYP) =  -1342.63253766     A.U. after    9 cycles
 SCF Done:  E(RB3LYP) =  -1342.63253838     A.U. after    9 cycles
 SCF Done:  E(RB3LYP) =  -1342.63253921     A.U. after    9 cycles
 SCF Done:  E(RB3LYP) =  -1342.63254024     A.U. after    9 cycles
 SCF Done:  E(RB3LYP) =  -1342.63254085     A.U. after    9 cycles
 SCF Done:  E(RB3LYP) =  -1342.63254100     A.U. after    7 cycles
 SCF Done:  E(RB3LYP) =  -1342.63254106     A.U. after    7 cycles
 SCF Done:  E(RB3LYP) =  -1342.63254108     A.U. after    6 cycles
 Optimization completed.
    -- Stationary point found.

                         Standard orientation:
 ---------------------------------------------------------------------
 Center     Atomic      Atomic             Coordinates (Angstroms)
 Number     Number       Type             X           Y           Z
 ---------------------------------------------------------------------
      1          6           0       -8.501536   -0.944366   -1.567167
      2          6           0       -7.250915   -1.289983   -0.791618
      3          6           0       -7.076357   -2.555592   -0.225979
      4          6           0       -5.903833   -2.860436    0.465188
      5          6           0       -4.875947   -1.929399    0.618773
      6          6           0       -3.619251   -2.289355    1.377037
      7          6           0       -5.056536   -0.648359    0.047505
      8          7           0       -4.017423    0.293174    0.208140
      9          6           0       -3.930541    1.584370   -0.235987
     10          8           0       -4.772217    2.192053   -0.883804
     11          6           0       -2.638804    2.291552    0.221186
     12          7           0       -1.542993    1.379922    0.532187
     13          6           0       -0.857333    0.901087   -0.682512
     14          6           0        0.530666    0.374830   -0.323041
     15          7           0        1.416717    1.431835    0.214831
     16          6           0        2.272205    2.018699   -0.816491
     17          6           0        3.529878    1.192643   -1.143446
     18          8           0        4.129557    1.371589   -2.195538
     19          7           0        3.882087    0.332808   -0.139392
     20          6           0        4.990191   -0.535835   -0.043581
     21          6           0        5.947790   -0.629436   -1.061239
     22          6           0        7.038066   -1.499534   -0.942945
     23          6           0        8.071611   -1.567788   -2.043937
     24          6           0        7.154829   -2.280019    0.209838
     25          6           0        6.200065   -2.184963    1.222429
     26          6           0        5.107230   -1.323082    1.125682
     27          6           0        4.087572   -1.245812    2.238288
     28          6           0        0.692708    2.450362    1.019048
     29          6           0        1.578674    2.973042    2.152703
     30          6           0       -0.598833    1.829470    1.571396
     31          6           0       -6.233525   -0.339718   -0.646157
     32          1           0       -9.312111   -1.648768   -1.353414
     33          1           0       -8.855599    0.064385   -1.327253
     34          1           0       -8.318510   -0.971401   -2.649518
     35          1           0       -7.856685   -3.306438   -0.323150
     36          1           0       -5.781621   -3.848903    0.902620
     37          1           0       -2.718023   -2.212064    0.752323
     38          1           0       -3.461881   -1.645048    2.253610
     39          1           0       -3.671518   -3.319853    1.739887
     40          1           0       -3.187968    0.004610    0.718597
     41          1           0       -2.902876    2.857660    1.122535
     42          1           0       -2.395458    3.027062   -0.562585
     43          1           0       -0.755834    1.713125   -1.425155
     44          1           0       -1.456158    0.114211   -1.157956
     45          1           0        0.432989   -0.435237    0.410650
     46          1           0        1.005068   -0.060233   -1.207281
     47          1           0        1.753197    2.197036   -1.771221
     48          1           0        2.628024    2.996374   -0.471321
     49          1           0        3.222398    0.350931    0.632639
     50          1           0        5.828210   -0.014708   -1.943892
     51          1           0        7.601089   -1.612260   -3.032660
     52          1           0        8.714754   -2.447065   -1.934531
     53          1           0        8.719609   -0.681518   -2.036994
     54          1           0        7.991863   -2.965176    0.319476
     55          1           0        6.302458   -2.799256    2.114350
     56          1           0        3.079453   -1.524464    1.899925
     57          1           0        4.016739   -0.237304    2.669888
     58          1           0        4.354176   -1.926688    3.051734
     59          1           0        0.404339    3.301181    0.375925
     60          1           0        1.802093    2.170253    2.864908
     61          1           0        2.531246    3.356941    1.772504
     62          1           0        1.082857    3.789395    2.690857
     63          1           0       -1.103657    2.555643    2.214896
     64          1           0       -0.326640    0.979254    2.212726
     65          1           0       -6.341911    0.650744   -1.068586
 ---------------------------------------------------------------------

 The electronic state is 1-A.
 Alpha  occ. eigenvalues --  -19.11684 -19.11683 -14.36884 -14.36874 -14.35372
 Alpha  occ. eigenvalues --  -14.35245 -10.29027 -10.29013 -10.23789 -10.23265
 Alpha  occ. eigenvalues --  -10.23212 -10.22940 -10.22929 -10.22890 -10.22834
 Alpha  occ. eigenvalues --  -10.22807 -10.19509 -10.19419 -10.19385 -10.19378
 Alpha  occ. eigenvalues --  -10.19348 -10.18907 -10.18867 -10.18354 -10.18313
 Alpha  occ. eigenvalues --  -10.17643 -10.17633 -10.17595 -10.17594 -10.17209
 Alpha  occ. eigenvalues --  -10.17172  -1.03527  -1.03511  -0.96645  -0.94258
 Alpha  occ. eigenvalues --   -0.93637  -0.91851  -0.84621  -0.84514  -0.80221
 Alpha  occ. eigenvalues --   -0.78437  -0.78279  -0.77282  -0.74683  -0.73329
 Alpha  occ. eigenvalues --   -0.71962  -0.71935  -0.71673  -0.70602  -0.66709
 Alpha  occ. eigenvalues --   -0.65673  -0.65484  -0.63769  -0.62582  -0.62239
 Alpha  occ. eigenvalues --   -0.58538  -0.58445  -0.56458  -0.56063  -0.55503
 Alpha  occ. eigenvalues --   -0.53689  -0.51956  -0.51765  -0.51089  -0.49912
 Alpha  occ. eigenvalues --   -0.48409  -0.47427  -0.47318  -0.46300  -0.45928
 Alpha  occ. eigenvalues --   -0.45727  -0.45237  -0.44648  -0.44393  -0.43667
 Alpha  occ. eigenvalues --   -0.43211  -0.42728  -0.41833  -0.41636  -0.41458
 Alpha  occ. eigenvalues --   -0.41113  -0.41001  -0.40906  -0.40663  -0.40404
 Alpha  occ. eigenvalues --   -0.40280  -0.39967  -0.39820  -0.39438  -0.39263
 Alpha  occ. eigenvalues --   -0.39224  -0.38230  -0.37928  -0.37551  -0.37137
 Alpha  occ. eigenvalues --   -0.37117  -0.36370  -0.35920  -0.34508  -0.34469
 Alpha  occ. eigenvalues --   -0.34060  -0.33944  -0.33489  -0.33452  -0.29674
 Alpha  occ. eigenvalues --   -0.29652  -0.25807  -0.25645  -0.23508  -0.23268
 Alpha  occ. eigenvalues --   -0.23239  -0.23030  -0.21151  -0.21102
 Alpha virt. eigenvalues --   -0.00992  -0.00899   0.00659   0.00725   0.04425
 Alpha virt. eigenvalues --    0.04804   0.05183   0.06768   0.07811   0.09510
 Alpha virt. eigenvalues --    0.10098   0.10419   0.10727   0.11241   0.11752

 Mulliken charges:
               1
     1  C   -0.527442
     2  C    0.163937
     3  C   -0.174583
     4  C   -0.199313
     5  C    0.148649
     6  C   -0.559560
     7  C    0.289896
     8  N   -0.729696
     9  C    0.590065
    10  O   -0.505804
    11  C   -0.221323
    12  N   -0.433763
    13  C   -0.129567
    14  C   -0.172216
    15  N   -0.432699
    16  C   -0.232080
    17  C    0.589609
    18  O   -0.507168
    19  N   -0.732467
    20  C    0.289606
    21  C   -0.223055
    22  C    0.163812
    23  C   -0.527380
    24  C   -0.174995
    25  C   -0.199256
    26  C    0.148575
    27  C   -0.561002
    28  C    0.043256
    29  C   -0.447427
    30  C   -0.149216
    31  C   -0.223315
    32  H    0.150828
    33  H    0.162531
    34  H    0.164956
    35  H    0.116459
    36  H    0.118343
    37  H    0.156840
    38  H    0.159466
    39  H    0.165250
    40  H    0.357212
    41  H    0.172291
    42  H    0.159778
    43  H    0.138423
    44  H    0.155349
    45  H    0.154985
    46  H    0.168415
    47  H    0.162755
    48  H    0.178207
    49  H    0.360377
    50  H    0.178614
    51  H    0.162862
    52  H    0.150634
    53  H    0.164838
    54  H    0.116492
    55  H    0.118170
    56  H    0.157549
    57  H    0.159836
    58  H    0.164841
    59  H    0.128165
    60  H    0.150120
    61  H    0.155859
    62  H    0.147759
    63  H    0.150651
    64  H    0.148573
    65  H    0.178493
 Sum of Mulliken charges =  -0.00000

 Dipole moment (field-independent basis, Debye):
    X=              0.6445    Y=             -0.9584    Z=              4.2769  Tot=              4.4301
 Quadrupole moment (field-independent basis, Debye-Ang):
   XX=           -210.5629   YY=           -180.4379   ZZ=           -186.9856
   XY=              4.9471   XZ=              5.1275   YZ=              5.7755

 Normal termination of Gaussian 16 at Fri Nov  4 20:50:37 2022.
