 Gaussian 16, Revision B.01,
 Gaussian 16:  ES64L-G16RevB.01 20-Dec-2017

 -------------------------------------------------------------------
 #p b3lyp/6-31g(d) 6D 10F nosymm GFInput td=(50-50,nstate=2) SCF=XQC
 -------------------------------------------------------------------

 ------------------------------
 Gaussian input prepared by ASE
 ------------------------------
 Symbolic Z-matrix:
 Charge =  0 Multiplicity = 1

                          Input orientation:
 ---------------------------------------------------------------------
 Center     Atomic      Atomic             Coordinates (Angstroms)
 Number     Number       Type             X           Y           Z
 ---------------------------------------------------------------------
      1          6           0        8.569308   -1.805866    0.480360
      2          6           0        7.332113   -1.392047   -0.283239
      3          6           0        7.202422   -1.655686   -1.649204
      4          6           0        6.041788   -1.286208   -2.328813
      5          6           0        4.982004   -0.647678   -1.683752
      6          6           0        3.739229   -0.256353   -2.449383
      7          6           0        5.117177   -0.379710   -0.301744
      8          7           0        4.045811    0.270388    0.347556
      9          6           0        3.913410    0.643204    1.657313
     10          8           0        4.732814    0.476073    2.550626
     11          6           0        2.597997    1.397457    1.937469
     12          7           0        1.535034    1.109574    0.980482
     13          6           0        0.865731   -0.173733    1.263437
     14          6           0       -0.502716   -0.207102    0.585981
     15          7           0       -1.424898    0.821359    1.118428
     16          6           0       -2.301153    0.294776    2.164746
     17          6           0       -3.529325   -0.470406    1.638342
     18          8           0       -4.135643   -1.242399    2.369738
     19          7           0       -3.850474   -0.145887    0.348751
     20          6           0       -4.927380   -0.585865   -0.450190
     21          6           0       -5.881821   -1.492519    0.027729
     22          6           0       -6.940843   -1.914547   -0.784756
     23          6           0       -7.972129   -2.876513   -0.240579
     24          6           0       -7.029370   -1.418091   -2.087596
     25          6           0       -6.077817   -0.514813   -2.561504
     26          6           0       -5.015934   -0.079768   -1.768013
     27          6           0       -3.998834    0.896607   -2.311855
     28          6           0       -0.736476    2.077585    1.513804
     29          6           0       -1.639427    3.288887    1.267366
     30          6           0        0.576422    2.200461    0.726483
     31          6           0        6.282138   -0.748972    0.382535
     32          1           0        9.404226   -2.017775   -0.195592
     33          1           0        8.887959   -1.025151    1.179962
     34          1           0        8.386585   -2.712386    1.072430
     35          1           0        8.008523   -2.149700   -2.186116
     36          1           0        5.954607   -1.495402   -3.392762
     37          1           0        2.835409   -0.741945   -2.054715
     38          1           0        3.559983    0.827934   -2.427763
     39          1           0        3.827842   -0.547346   -3.499997
     40          1           0        3.227338    0.507691   -0.205274
     41          1           0        2.842692    2.465539    1.893110
     42          1           0        2.328470    1.170827    2.981731
     43          1           0        0.735310   -0.320094    2.351001
     44          1           0        1.491439   -1.002068    0.908241
     45          1           0       -0.376189   -0.067028   -0.494955
     46          1           0       -0.962192   -1.190286    0.721801
     47          1           0       -1.789383   -0.375925    2.872513
     48          1           0       -2.690784    1.130181    2.757944
     49          1           0       -3.191287    0.510377   -0.059097
     50          1           0       -5.784480   -1.862252    1.040194
     51          1           0       -7.501029   -3.703497    0.302654
     52          1           0       -8.583978   -3.302363   -1.042466
     53          1           0       -8.650792   -2.376428    0.462810
     54          1           0       -7.841794   -1.736477   -2.736196
     55          1           0       -6.157990   -0.136897   -3.578418
     56          1           0       -2.981804    0.479401   -2.317129
     57          1           0       -3.963095    1.828837   -1.730430
     58          1           0       -4.240838    1.168885   -3.343195
     59          1           0       -0.478559    2.042612    2.587542
     60          1           0       -1.834070    3.409247    0.195336
     61          1           0       -2.605137    3.178193    1.771823
     62          1           0       -1.172156    4.206842    1.642722
     63          1           0        1.055929    3.153381    0.967902
     64          1           0        0.334648    2.234624   -0.345262
     65          1           0        6.355443   -0.526606    1.439128
 ---------------------------------------------------------------------

 SCF Done:  E(RB3LYP) =  -1342.63252956     A.U. after   15 cycles

 Excitation energies and oscillator strengths:

 Excited state symmetry could not be determined.
 Excited State   1:      Triplet-?Sym    3.4559 eV  358.76 nm  f=0.0000  <S**2>=2.000
     110 ->117        -0.33832
     113 ->115         0.49686
     113 ->116        -0.29566
 This state for optimization and/or second-order correction.
 Total Energy, E(TD-HF/TD-DFT) =  -1342.50552812
 Copying the excited state density for this state as the 1-particle RhoCI density.

 Excited state symmetry could not be determined.
 Excited State   2:      Triplet-?Sym    3.4563 eV  358.72 nm  f=0.0000  <S**2>=2.000
     111 ->118        -0.34135
     114 ->115         0.29783
     114 ->116         0.49625
     114 ->120         0.13051

 Excited state symmetry could not be determined.
 Excited State   3:      Singlet-?Sym    4.9257 eV  251.71 nm  f=0.0290  <S**2>=0.000
     107 ->116        -0.14679
     108 ->116        -0.10892
     109 ->115         0.19087
     109 ->116         0.16055
     110 ->115        -0.11247
     110 ->116         0.17477
     111 ->115         0.11195
     111 ->116         0.14003
     112 ->115        -0.17734
     112 ->116        -0.32102
     113 ->115        -0.11910
     113 ->117        -0.23473
     114 ->116         0.13590
     114 ->118         0.23614

 Excited state symmetry could not be determined.
 Excited State   4:      Singlet-?Sym    4.9276 eV  251.61 nm  f=0.0172  <S**2>=0.000
     107 ->115        -0.10123
     108 ->116        -0.11175
     109 ->116         0.21913
     110 ->115         0.30317
     110 ->116        -0.11844
     112 ->115        -0.20362
     112 ->116        -0.17572
     113 ->115         0.17907
     113 ->116        -0.11181
     113 ->117         0.40506

 Alpha  occ. eigenvalues --  -19.11684 -19.11683 -14.36884 -14.36874 -14.35372
 Alpha  occ. eigenvalues --  -14.35245 -10.29027 -10.29013 -10.23788 -10.23265
 Alpha  occ. eigenvalues --  -10.23211 -10.22940 -10.22929 -10.22890 -10.22834
 Alpha  occ. eigenvalues --  -10.22807 -10.19509 -10.19419 -10.19385 -10.19378
 Alpha  occ. eigenvalues --  -10.19348 -10.18907 -10.18867 -10.18354 -10.18313
 Alpha  occ. eigenvalues --  -10.17643 -10.17633 -10.17595 -10.17594 -10.17209
 Alpha  occ. eigenvalues --  -10.17172  -1.03527  -1.03511  -0.96645  -0.94258
 Alpha  occ. eigenvalues --   -0.93637  -0.91851  -0.84621  -0.84514  -0.80221
 Alpha  occ. eigenvalues --   -0.78437  -0.78279  -0.77282  -0.74683  -0.73329
 Alpha  occ. eigenvalues --   -0.71962  -0.71935  -0.71673  -0.70602  -0.66709
 Alpha  occ. eigenvalues --   -0.65673  -0.65484  -0.63769  -0.62582  -0.62239
 Alpha  occ. eigenvalues --   -0.58538  -0.58445  -0.56458  -0.56063  -0.55503
 Alpha  occ. eigenvalues --   -0.53689  -0.51955  -0.51765  -0.51089  -0.49912
 Alpha  occ. eigenvalues --   -0.48409  -0.47427  -0.47318  -0.46300  -0.45928
 Alpha  occ. eigenvalues --   -0.45727  -0.45237  -0.44648  -0.44393  -0.43667
 Alpha  occ. eigenvalues --   -0.43211  -0.42728  -0.41833  -0.41636  -0.41458
 Alpha  occ. eigenvalues --   -0.41113  -0.41001  -0.40906  -0.40663  -0.40404
 Alpha  occ. eigenvalues --   -0.40280  -0.39967  -0.39820  -0.39438  -0.39263
 Alpha  occ. eigenvalues --   -0.39224  -0.38230  -0.37928  -0.37551  -0.37137
 Alpha  occ. eigenvalues --   -0.37117  -0.36370  -0.35920  -0.34508  -0.34469
 Alpha  occ. eigenvalues --   -0.34060  -0.33944  -0.33489  -0.33452  -0.29674
 Alpha  occ. eigenvalues --   -0.29652  -0.25807  -0.25645  -0.23508  -0.23268
 Alpha  occ. eigenvalues --   -0.23239  -0.23030  -0.21151  -0.21102
 Alpha virt. eigenvalues --   -0.00992  -0.00899   0.00659   0.00725   0.04425
 Alpha virt. eigenvalues --    0.04804   0.05183   0.06768   0.07811   0.09510
 Alpha virt. eigenvalues --    0.10098   0.10419   0.10727   0.11241   0.11752

 Mulliken charges:
               1
     1  C   -0.527446
     2  C    0.163938
     3  C   -0.174584
     4  C   -0.199314
     5  C    0.148648
     6  C   -0.559563
     7  C    0.289906
     8  N   -0.729721
     9  C    0.590088
    10  O   -0.505808
    11  C   -0.221337
    12  N   -0.433787
    13  C   -0.129570
    14  C   -0.172206
    15  N   -0.432685
    16  C   -0.232087
    17  C    0.589606
    18  O   -0.507171
    19  N   -0.732459
    20  C    0.289604
    21  C   -0.223048
    22  C    0.163810
    23  C   -0.527380
    24  C   -0.174994
    25  C   -0.199253
    26  C    0.148566
    27  C   -0.561003
    28  C    0.043254
    29  C   -0.447439
    30  C   -0.149170
    31  C   -0.223317
    32  H    0.150829
    33  H    0.162533
    34  H    0.164957
    35  H    0.116459
    36  H    0.118344
    37  H    0.156839
    38  H    0.159468
    39  H    0.165250
    40  H    0.357222
    41  H    0.172295
    42  H    0.159778
    43  H    0.138423
    44  H    0.155348
    45  H    0.154981
    46  H    0.168414
    47  H    0.162757
    48  H    0.178208
    49  H    0.360369
    50  H    0.178616
    51  H    0.162861
    52  H    0.150634
    53  H    0.164836
    54  H    0.116492
    55  H    0.118170
    56  H    0.157554
    57  H    0.159838
    58  H    0.164840
    59  H    0.128164
    60  H    0.150118
    61  H    0.155863
    62  H    0.147762
    63  H    0.150645
    64  H    0.148566
    65  H    0.178493
 Sum of Mulliken charges =  -0.00000

 Dipole moment (field-independent basis, Debye):
    X=             -0.6074    Y=              2.9460    Z=             -3.2523  Tot=              4.4301
 Quadrupole moment (field-independent basis, Debye-Ang):
   XX=           -210.2364   YY=           -180.5698   ZZ=           -188.8039
   XY=             -7.5716   XZ=             -2.0686   YZ=              5.6166

 Normal termination of Gaussian 16 at Sat Nov  5 12:13:39 2022.
