 Gaussian 16, Revision B.01,
 Gaussian 16:  ES64L-G16RevB.01 20-Dec-2017

 -------------------------------------------------------------------
 #p b3lyp/6-31g(d) 6D 10F nosymm GFInput td=(50-50,nstate=2) SCF=XQC
 -------------------------------------------------------------------

 ------------------------------
 Gaussian input prepared by ASE
 ------------------------------
 Symbolic Z-matrix:
 Charge =  0 Multiplicity = 1

                          Input orientation:
 ---------------------------------------------------------------------
 Center     Atomic      Atomic             Coordinates (Angstroms)
 Number     Number       Type             X           Y           Z
 ---------------------------------------------------------------------
      1          6           0       -6.307327    4.896092   -1.251597
      2          8           0       -6.058720    3.496707   -1.271376
      3          6           0       -4.878794    3.041424   -0.771004
      4          6           0       -3.866890    3.854628   -0.242410
      5          6           0       -2.694168    3.275735    0.236096
      6          6           0       -2.497555    1.887122    0.201269
      7          6           0       -1.245840    1.354840    0.755483
      8          7           0       -0.623843    1.904195    1.788984
      9          7           0        0.518270    1.192658    2.020205
     10          6           0        0.585639    0.235708    1.118008
     11         16           0        1.894072   -0.946699    1.015016
     12          6           0        3.263775    0.078673    0.327161
     13          6           0        3.668310    1.332803    1.102583
     14          8           0        3.943163    2.342261    0.499338
     15          6           0        3.699385    1.287812    2.652679
     16          6           0        4.306521    2.515509    3.187222
     17          7           0        4.787110    3.461479    3.655711
     18          6           0        4.407695    0.064299    3.199325
     19          7           0        5.366728   -0.552386    2.571054
     20          6           0        5.869827   -1.605935    3.312562
     21          6           0        6.985462   -2.434138    2.746428
     22          6           0        5.272783   -1.776771    4.531469
     23         16           0        4.030969   -0.594366    4.778026
     24          7           0       -0.513003    0.284175    0.285030
     25          6           0       -0.742152   -0.554696   -0.894711
     26          6           0       -1.313256   -1.946945   -0.557993
     27          6           0       -1.506617   -2.777911   -1.809210
     28          6           0       -0.460509   -3.565547   -2.308977
     29          6           0       -0.619443   -4.303692   -3.482249
     30          6           0       -1.830589   -4.264674   -4.175540
     31          6           0       -2.880375   -3.484755   -3.687600
     32          6           0       -2.717273   -2.747801   -2.513934
     33          6           0       -3.530941    1.083825   -0.314576
     34          6           0       -4.701700    1.649856   -0.798393
     35          1           0       -6.305803    5.289836   -0.227246
     36          1           0       -7.298526    5.027962   -1.688340
     37          1           0       -5.569831    5.443837   -1.852124
     38          1           0       -3.979243    4.931772   -0.202279
     39          1           0       -1.911670    3.903215    0.649427
     40          1           0        4.123553   -0.599759    0.321576
     41          1           0        3.044081    0.388072   -0.696475
     42          1           0        2.638228    1.276616    2.954061
     43          1           0        7.286094   -3.220807    3.444001
     44          1           0        6.682923   -2.906063    1.804195
     45          1           0        7.859843   -1.809606    2.530741
     46          1           0        5.492961   -2.521088    5.284387
     47          1           0        0.215004   -0.669599   -1.410588
     48          1           0       -1.414982   -0.009230   -1.559588
     49          1           0       -2.263075   -1.832358   -0.022637
     50          1           0       -0.622331   -2.450811    0.127034
     51          1           0        0.483219   -3.605338   -1.769104
     52          1           0        0.200944   -4.913153   -3.851803
     53          1           0       -1.956993   -4.841796   -5.087434
     54          1           0       -3.828552   -3.452951   -4.217636
     55          1           0       -3.543108   -2.147827   -2.137002
     56          1           0       -3.439510    0.002815   -0.308553
     57          1           0       -5.503945    1.032778   -1.190126
 ---------------------------------------------------------------------

 SCF Done:  E(RB3LYP) =  -2187.04279897     A.U. after   15 cycles

 Excitation energies and oscillator strengths:

 Excited state symmetry could not be determined.
 Excited State   1:      Triplet-?Sym    3.3540 eV  369.66 nm  f=0.0000  <S**2>=2.000
     122 ->132         0.13897
     123 ->132        -0.17152
     128 ->129         0.16175
     128 ->130        -0.37645
     128 ->131         0.45332
     128 ->133         0.14141
     128 ->135         0.13858
 This state for optimization and/or second-order correction.
 Total Energy, E(TD-HF/TD-DFT) =  -2186.91954208
 Copying the excited state density for this state as the 1-particle RhoCI density.

 Excited state symmetry could not be determined.
 Excited State   2:      Triplet-?Sym    3.3943 eV  365.27 nm  f=0.0000  <S**2>=2.000
     118 ->130        -0.10080
     126 ->130        -0.11855
     127 ->129         0.33369
     127 ->130         0.46458
     127 ->131         0.28203
     127 ->137         0.11206

 Excited state symmetry could not be determined.
 Excited State   3:      Singlet-?Sym    4.2345 eV  292.79 nm  f=0.0144  <S**2>=0.000
     121 ->129        -0.23096
     121 ->131         0.10572
     123 ->129        -0.17931
     125 ->129         0.21863
     126 ->129         0.28438
     127 ->129         0.32170
     128 ->129        -0.31529

 Excited state symmetry could not be determined.
 Excited State   4:      Singlet-?Sym    4.2906 eV  288.97 nm  f=0.0427  <S**2>=0.000
     121 ->129        -0.21628
     126 ->129         0.11487
     127 ->129         0.11097
     128 ->129         0.61229

 Alpha  occ. eigenvalues --  -88.92320 -88.91292 -19.19270 -19.16323 -14.41930
 Alpha  occ. eigenvalues --  -14.35839 -14.34797 -14.34671 -14.32366 -10.30576
 Alpha  occ. eigenvalues --  -10.27931 -10.27263 -10.26500 -10.26420 -10.25520
 Alpha  occ. eigenvalues --  -10.25216 -10.25062 -10.24138 -10.23545 -10.22524
 Alpha  occ. eigenvalues --  -10.21958 -10.21458 -10.21451 -10.21183 -10.21167
 Alpha  occ. eigenvalues --  -10.20541 -10.20269 -10.20207 -10.20197 -10.20197
 Alpha  occ. eigenvalues --  -10.20137 -10.20089 -10.20074 -10.19551  -7.98459
 Alpha  occ. eigenvalues --   -7.97301  -5.94845  -5.94490  -5.94174  -5.93848
 Alpha  occ. eigenvalues --   -5.93449  -5.92749  -1.07880  -1.07303  -1.06673
 Alpha  occ. eigenvalues --   -0.97671  -0.94070  -0.89291  -0.87529  -0.86873
 Alpha  occ. eigenvalues --   -0.84799  -0.82332  -0.80744  -0.80670  -0.79833
 Alpha  occ. eigenvalues --   -0.76805  -0.76359  -0.76188  -0.75570  -0.74670
 Alpha  occ. eigenvalues --   -0.71670  -0.70036  -0.68158  -0.67458  -0.64333
 Alpha  occ. eigenvalues --   -0.62467  -0.61763  -0.60263  -0.60081  -0.59523
 Alpha  occ. eigenvalues --   -0.58672  -0.57553  -0.55687  -0.54995  -0.53382
 Alpha  occ. eigenvalues --   -0.52328  -0.51153  -0.50263  -0.49821  -0.49605
 Alpha  occ. eigenvalues --   -0.49196  -0.48354  -0.48061  -0.47707  -0.46677
 Alpha  occ. eigenvalues --   -0.46095  -0.45408  -0.44694  -0.44492  -0.44181
 Alpha  occ. eigenvalues --   -0.43766  -0.43629  -0.43360  -0.43092  -0.42740
 Alpha  occ. eigenvalues --   -0.42009  -0.41762  -0.41471  -0.39962  -0.39660
 Alpha  occ. eigenvalues --   -0.39294  -0.39092  -0.38169  -0.37826  -0.37292
 Alpha  occ. eigenvalues --   -0.36922  -0.36696  -0.36500  -0.35499  -0.35089
 Alpha  occ. eigenvalues --   -0.34768  -0.34018  -0.33874  -0.32696  -0.32071
 Alpha  occ. eigenvalues --   -0.31327  -0.30219  -0.29111  -0.28938  -0.28829
 Alpha  occ. eigenvalues --   -0.27039  -0.26733  -0.26665  -0.26190  -0.25663
 Alpha  occ. eigenvalues --   -0.25507  -0.24383  -0.22340
 Alpha virt. eigenvalues --   -0.04752  -0.03662  -0.03257  -0.01697  -0.01506
 Alpha virt. eigenvalues --   -0.01306  -0.00513   0.01381   0.02960   0.03831
 Alpha virt. eigenvalues --    0.04872   0.05129   0.05613   0.05913   0.07086

 Mulliken charges:
               1
     1  C   -0.220541
     2  O   -0.503497
     3  C    0.387195
     4  C   -0.201802
     5  C   -0.161717
     6  C    0.111437
     7  C    0.403993
     8  N   -0.342579
     9  N   -0.310370
    10  C    0.225109
    11  S    0.153693
    12  C   -0.526635
    13  C    0.510789
    14  O   -0.400496
    15  C   -0.347243
    16  C    0.393065
    17  N   -0.463990
    18  C    0.101745
    19  N   -0.446539
    20  C    0.320018
    21  C   -0.506493
    22  C   -0.386149
    23  S    0.280337
    24  N   -0.457617
    25  C   -0.160758
    26  C   -0.370198
    27  C    0.161790
    28  C   -0.182455
    29  C   -0.126764
    30  C   -0.128514
    31  C   -0.126812
    32  C   -0.181618
    33  C   -0.178940
    34  C   -0.184314
    35  H    0.159529
    36  H    0.175354
    37  H    0.157665
    38  H    0.143790
    39  H    0.171216
    40  H    0.232073
    41  H    0.206262
    42  H    0.277868
    43  H    0.156987
    44  H    0.166946
    45  H    0.179142
    46  H    0.179827
    47  H    0.185868
    48  H    0.184621
    49  H    0.165069
    50  H    0.174648
    51  H    0.134950
    52  H    0.135317
    53  H    0.135042
    54  H    0.135357
    55  H    0.126943
    56  H    0.138495
    57  H    0.143905
 Sum of Mulliken charges =  -0.00000

 Dipole moment (field-independent basis, Debye):
    X=             -4.9095    Y=             -5.9198    Z=             -4.7070  Tot=              9.0168
 Quadrupole moment (field-independent basis, Debye-Ang):
   XX=           -200.4845   YY=           -205.7594   ZZ=           -212.6423
   XY=            -49.9861   XZ=              1.6276   YZ=            -21.4810

 Normal termination of Gaussian 16 at Sat Nov  5 12:18:37 2022.
