 Gaussian 16, Revision B.01,
 Gaussian 16:  ES64L-G16RevB.01 20-Dec-2017

 -----------------------------
 #p b3lyp/6-31g(d) opt SCF=XQC
 -----------------------------

 ------------------------------
 Gaussian input prepared by ASE
 ------------------------------
 Symbolic Z-matrix:
 Charge =  0 Multiplicity = 1

 SCF Done:  E(RB3LYP) =  -2187.00037403     A.U. after   17 cycles
 SCF Done:  E(RB3LYP) =  -2187.01597847     A.U. after   16 cycles
 SCF Done:  E(RB3LYP) =  -2187.00336293     A.U. after   16 cycles
 SCF Done:  E(RB3LYP) =  -2187.02574829     A.U. after   13 cycles
 SCF Done:  E(RB3LYP) =  -2187.02862841     A.U. after   15 cycles
 SCF Done:  E(RB3LYP) =  -2187.03279972     A.U. after   14 cycles
 SCF Done:  E(RB3LYP) =  -2187.03427115     A.U. after   15 cycles
 SCF Done:  E(RB3LYP) =  -2187.03548467     A.U. after   15 cycles
 SCF Done:  E(RB3LYP) =  -2187.03709783     A.U. after   14 cycles
 SCF Done:  E(RB3LYP) =  -2187.03812861     A.U. after   15 cycles
 SCF Done:  E(RB3LYP) =  -2187.04278743     A.U. after   11 cycles
 SCF Done:  E(RB3LYP) =  -2187.04279252     A.U. after   10 cycles
 SCF Done:  E(RB3LYP) =  -2187.04279587     A.U. after   10 cycles
 SCF Done:  E(RB3LYP) =  -2187.04279742     A.U. after    9 cycles
 SCF Done:  E(RB3LYP) =  -2187.04279888     A.U. after    9 cycles
 SCF Done:  E(RB3LYP) =  -2187.04280017     A.U. after    9 cycles
 SCF Done:  E(RB3LYP) =  -2187.04280104     A.U. after    8 cycles
 SCF Done:  E(RB3LYP) =  -2187.04280125     A.U. after    8 cycles
 SCF Done:  E(RB3LYP) =  -2187.04280131     A.U. after    7 cycles
 SCF Done:  E(RB3LYP) =  -2187.04280134     A.U. after    7 cycles
 Optimization completed.
    -- Stationary point found.

                         Standard orientation:
 ---------------------------------------------------------------------
 Center     Atomic      Atomic             Coordinates (Angstroms)
 Number     Number       Type             X           Y           Z
 ---------------------------------------------------------------------
      1          6           0        7.441892   -3.987143   -0.309545
      2          8           0        7.034634   -2.710289    0.164017
      3          6           0        5.705295   -2.424117    0.193102
      4          6           0        4.690045   -3.294897   -0.226029
      5          6           0        3.359532   -2.889532   -0.156934
      6          6           0        3.006348   -1.620141    0.324756
      7          6           0        1.578501   -1.283106    0.394957
      8          7           0        0.638566   -2.178773    0.661597
      9          7           0       -0.571115   -1.547598    0.611988
     10          6           0       -0.354473   -0.286757    0.299580
     11         16           0       -1.624587    0.927591    0.118305
     12          6           0       -2.370012    0.442546   -1.497148
     13          6           0       -2.901623   -0.984663   -1.632173
     14          8           0       -2.725632   -1.589956   -2.662271
     15          6           0       -3.641617   -1.633889   -0.433547
     16          6           0       -4.245262   -2.912138   -0.837627
     17          7           0       -4.747408   -3.921206   -1.111375
     18          6           0       -4.686132   -0.725938    0.184611
     19          7           0       -5.329866    0.188331   -0.482089
     20          6           0       -6.258800    0.839828    0.308821
     21          6           0       -7.098372    1.928525   -0.291951
     22          6           0       -6.313640    0.395073    1.601325
     23         16           0       -5.167494   -0.877487    1.861926
     24          7           0        0.997488   -0.055017    0.152226
     25          6           0        1.617883    1.198415   -0.285978
     26          6           0        1.769602    2.237401    0.843351
     27          6           0        2.392231    3.518862    0.329904
     28          6           0        1.589256    4.535669   -0.204709
     29          6           0        2.159231    5.702720   -0.714425
     30          6           0        3.545080    5.870581   -0.697371
     31          6           0        4.355586    4.865601   -0.166803
     32          6           0        3.781601    3.699804    0.341777
     33          6           0        4.036069   -0.765770    0.759492
     34          6           0        5.365460   -1.157139    0.690950
     35          1           0        7.029441   -4.794931    0.308268
     36          1           0        8.530662   -3.997079   -0.238210
     37          1           0        7.144790   -4.141679   -1.354728
     38          1           0        4.922739   -4.281871   -0.608403
     39          1           0        2.572169   -3.563726   -0.476933
     40          1           0       -3.218976    1.125042   -1.611071
     41          1           0       -1.666768    0.604645   -2.316291
     42          1           0       -2.847921   -1.852139    0.300907
     43          1           0       -7.791628    2.344123    0.444602
     44          1           0       -6.469839    2.742697   -0.671577
     45          1           0       -7.680282    1.545888   -1.138162
     46          1           0       -6.955421    0.741148    2.399899
     47          1           0        0.995505    1.615530   -1.082308
     48          1           0        2.589260    0.950145   -0.718510
     49          1           0        2.376611    1.812519    1.651377
     50          1           0        0.779020    2.441230    1.264921
     51          1           0        0.508226    4.413383   -0.214200
     52          1           0        1.520480    6.482814   -1.120010
     53          1           0        3.990124    6.780429   -1.090705
     54          1           0        5.434915    4.990214   -0.144196
     55          1           0        4.420436    2.924381    0.759701
     56          1           0        3.800186    0.202194    1.188891
     57          1           0        6.161805   -0.503592    1.032340
 ---------------------------------------------------------------------

 The electronic state is 1-A.
 Alpha  occ. eigenvalues --  -88.92320 -88.91293 -19.19270 -19.16323 -14.41930
 Alpha  occ. eigenvalues --  -14.35840 -14.34798 -14.34670 -14.32365 -10.30576
 Alpha  occ. eigenvalues --  -10.27931 -10.27263 -10.26500 -10.26420 -10.25520
 Alpha  occ. eigenvalues --  -10.25216 -10.25062 -10.24138 -10.23545 -10.22524
 Alpha  occ. eigenvalues --  -10.21958 -10.21458 -10.21451 -10.21183 -10.21167
 Alpha  occ. eigenvalues --  -10.20541 -10.20269 -10.20207 -10.20197 -10.20197
 Alpha  occ. eigenvalues --  -10.20137 -10.20089 -10.20074 -10.19550  -7.98458
 Alpha  occ. eigenvalues --   -7.97302  -5.94845  -5.94489  -5.94173  -5.93848
 Alpha  occ. eigenvalues --   -5.93450  -5.92749  -1.07881  -1.07303  -1.06673
 Alpha  occ. eigenvalues --   -0.97671  -0.94070  -0.89291  -0.87529  -0.86872
 Alpha  occ. eigenvalues --   -0.84800  -0.82332  -0.80744  -0.80670  -0.79833
 Alpha  occ. eigenvalues --   -0.76805  -0.76359  -0.76188  -0.75570  -0.74670
 Alpha  occ. eigenvalues --   -0.71670  -0.70036  -0.68158  -0.67458  -0.64333
 Alpha  occ. eigenvalues --   -0.62467  -0.61763  -0.60263  -0.60081  -0.59523
 Alpha  occ. eigenvalues --   -0.58672  -0.57554  -0.55687  -0.54995  -0.53382
 Alpha  occ. eigenvalues --   -0.52328  -0.51153  -0.50263  -0.49821  -0.49605
 Alpha  occ. eigenvalues --   -0.49196  -0.48354  -0.48061  -0.47707  -0.46677
 Alpha  occ. eigenvalues --   -0.46095  -0.45408  -0.44694  -0.44492  -0.44181
 Alpha  occ. eigenvalues --   -0.43766  -0.43629  -0.43360  -0.43092  -0.42740
 Alpha  occ. eigenvalues --   -0.42009  -0.41762  -0.41471  -0.39962  -0.39660
 Alpha  occ. eigenvalues --   -0.39294  -0.39091  -0.38169  -0.37826  -0.37292
 Alpha  occ. eigenvalues --   -0.36922  -0.36696  -0.36500  -0.35499  -0.35089
 Alpha  occ. eigenvalues --   -0.34768  -0.34018  -0.33874  -0.32696  -0.32071
 Alpha  occ. eigenvalues --   -0.31327  -0.30219  -0.29111  -0.28938  -0.28829
 Alpha  occ. eigenvalues --   -0.27039  -0.26733  -0.26665  -0.26190  -0.25663
 Alpha  occ. eigenvalues --   -0.25507  -0.24383  -0.22340
 Alpha virt. eigenvalues --   -0.04752  -0.03662  -0.03257  -0.01697  -0.01506
 Alpha virt. eigenvalues --   -0.01306  -0.00513   0.01381   0.02960   0.03831
 Alpha virt. eigenvalues --    0.04872   0.05129   0.05613   0.05913   0.07086

 Mulliken charges:
               1
     1  C   -0.220544
     2  O   -0.503502
     3  C    0.387198
     4  C   -0.201797
     5  C   -0.161717
     6  C    0.111427
     7  C    0.404003
     8  N   -0.342583
     9  N   -0.310361
    10  C    0.225096
    11  S    0.153667
    12  C   -0.526630
    13  C    0.510792
    14  O   -0.400500
    15  C   -0.347250
    16  C    0.393066
    17  N   -0.463990
    18  C    0.101743
    19  N   -0.446546
    20  C    0.320031
    21  C   -0.506498
    22  C   -0.386167
    23  S    0.280370
    24  N   -0.457609
    25  C   -0.160747
    26  C   -0.370209
    27  C    0.161795
    28  C   -0.182453
    29  C   -0.126757
    30  C   -0.128519
    31  C   -0.126813
    32  C   -0.181611
    33  C   -0.178936
    34  C   -0.184315
    35  H    0.159530
    36  H    0.175355
    37  H    0.157665
    38  H    0.143790
    39  H    0.171217
    40  H    0.232073
    41  H    0.206264
    42  H    0.277866
    43  H    0.156986
    44  H    0.166947
    45  H    0.179141
    46  H    0.179827
    47  H    0.185868
    48  H    0.184620
    49  H    0.165070
    50  H    0.174649
    51  H    0.134942
    52  H    0.135316
    53  H    0.135042
    54  H    0.135356
    55  H    0.126940
    56  H    0.138500
    57  H    0.143903
 Sum of Mulliken charges =  -0.00000

 Dipole moment (field-independent basis, Debye):
    X=              5.6231    Y=              6.9392    Z=              1.2378  Tot=              9.0169
 Quadrupole moment (field-independent basis, Debye-Ang):
   XX=           -179.4708   YY=           -211.2966   ZZ=           -216.2782
   XY=            -41.8389   XZ=            -18.6808   YZ=             -6.6024

 Normal termination of Gaussian 16 at Fri Nov  4 21:14:51 2022.
