 Gaussian 16, Revision B.01,
 Gaussian 16:  ES64L-G16RevB.01 20-Dec-2017

 -------------------------------------------------------------------
 #p b3lyp/6-31g(d) 6D 10F nosymm GFInput td=(50-50,nstate=2) SCF=XQC
 -------------------------------------------------------------------

 ------------------------------
 Gaussian input prepared by ASE
 ------------------------------
 Symbolic Z-matrix:
 Charge =  0 Multiplicity = 1

                          Input orientation:
 ---------------------------------------------------------------------
 Center     Atomic      Atomic             Coordinates (Angstroms)
 Number     Number       Type             X           Y           Z
 ---------------------------------------------------------------------
      1          6           0        7.855276   -2.970922   -0.952342
      2          6           0        6.414930   -2.503128   -1.117211
      3          8           0        5.579944   -3.197706   -1.679781
      4          7           0        6.154665   -1.258827   -0.587078
      5          6           0        4.940768   -0.537611   -0.568955
      6          6           0        4.941535    0.721019    0.049048
      7          6           0        3.793336    1.502986    0.114031
      8          6           0        2.601257    1.025823   -0.449709
      9          7           0        1.387959    1.748249   -0.435739
     10          6           0        1.116877    2.948866    0.153773
     11          8           0        1.913642    3.656545    0.761885
     12          6           0       -0.354775    3.372334   -0.000105
     13          7           0       -1.271851    2.568073    0.816447
     14          6           0       -1.832720    1.439435    0.224097
     15          8           0       -1.471847    1.067836   -0.891176
     16          7           0       -2.816799    0.771593    0.953659
     17          6           0       -3.421705   -0.387973    0.328262
     18          6           0       -4.491143   -0.214157   -0.543245
     19          6           0       -5.083552   -1.326883   -1.151288
     20          6           0       -6.258618   -1.155471   -2.085956
     21          6           0       -4.572678   -2.595826   -0.858830
     22          6           0       -3.500877   -2.782547    0.023480
     23          6           0       -2.994831   -4.169416    0.345755
     24          6           0       -2.923579   -1.655985    0.616138
     25          6           0       -3.256053    1.106135    2.273113
     26          8           0       -4.132648    0.470904    2.832199
     27          6           0       -2.528453    2.223391    2.826662
     28         16           0       -2.722365    2.836377    4.440894
     29          6           0       -1.474864    4.004702    4.160140
     30          6           0       -0.933076    3.939789    2.904095
     31          6           0       -1.554480    2.912021    2.131193
     32          6           0        2.598897   -0.232262   -1.068485
     33          6           0        3.747538   -1.013398   -1.133800
     34          1           0        8.275847   -3.164430   -1.944013
     35          1           0        8.503034   -2.262684   -0.425896
     36          1           0        7.854267   -3.920650   -0.408681
     37          1           0        6.932772   -0.788136   -0.146543
     38          1           0        5.860217    1.102912    0.490984
     39          1           0        3.810331    2.471189    0.594505
     40          1           0        0.586893    1.290705   -0.869768
     41          1           0       -0.434186    4.414561    0.308091
     42          1           0       -0.680323    3.277527   -1.037886
     43          1           0       -4.856823    0.787629   -0.750786
     44          1           0       -6.412757   -2.047462   -2.701318
     45          1           0       -7.186591   -0.976352   -1.527223
     46          1           0       -6.115684   -0.301690   -2.757739
     47          1           0       -5.021949   -3.466406   -1.333106
     48          1           0       -1.928458   -4.160142    0.594236
     49          1           0       -3.526696   -4.593487    1.207762
     50          1           0       -3.140804   -4.854245   -0.496187
     51          1           0       -2.086662   -1.761053    1.300746
     52          1           0       -1.188575    4.681621    4.954389
     53          1           0       -0.105130    4.549572    2.564199
     54          1           0        1.678864   -0.611164   -1.508188
     55          1           0        3.732707   -1.981781   -1.613088
 ---------------------------------------------------------------------

 SCF Done:  E(RB3LYP) =  -1845.98301260     A.U. after   15 cycles

 Excitation energies and oscillator strengths:

 Excited state symmetry could not be determined.
 Excited State   1:      Triplet-?Sym    3.0082 eV  412.15 nm  f=0.0000  <S**2>=2.000
     115 ->122         0.27620
     119 ->122         0.14326
     120 ->122         0.61134
 This state for optimization and/or second-order correction.
 Total Energy, E(TD-HF/TD-DFT) =  -1845.87246190
 Copying the excited state density for this state as the 1-particle RhoCI density.

 Excited state symmetry could not be determined.
 Excited State   2:      Triplet-?Sym    3.2142 eV  385.74 nm  f=0.0000  <S**2>=2.000
     116 ->126         0.22618
     121 ->123         0.63746
     121 ->131        -0.12426

 Excited state symmetry could not be determined.
 Excited State   3:      Singlet-?Sym    3.5519 eV  349.06 nm  f=0.0048  <S**2>=0.000
     121 ->122         0.70636

 Excited state symmetry could not be determined.
 Excited State   4:      Singlet-?Sym    4.2874 eV  289.18 nm  f=0.1534  <S**2>=0.000
     119 ->122        -0.12009
     120 ->122         0.66692
     121 ->123         0.13567

 Alpha  occ. eigenvalues --  -88.93106 -19.14113 -19.13074 -19.13032 -19.11635
 Alpha  occ. eigenvalues --  -14.41461 -14.40076 -14.37922 -14.37713 -10.34583
 Alpha  occ. eigenvalues --  -10.31261 -10.30206 -10.29591 -10.26727 -10.25053
 Alpha  occ. eigenvalues --  -10.24439 -10.23429 -10.23313 -10.23191 -10.23152
 Alpha  occ. eigenvalues --  -10.21865 -10.20009 -10.19972 -10.19764 -10.19460
 Alpha  occ. eigenvalues --  -10.19218 -10.18965 -10.18938 -10.18742 -10.18634
 Alpha  occ. eigenvalues --  -10.18512 -10.18502 -10.18395  -7.99120  -5.95543
 Alpha  occ. eigenvalues --   -5.95170  -5.94805  -1.08527  -1.04900  -1.04533
 Alpha  occ. eigenvalues --   -1.03672  -0.98855  -0.95208  -0.94462  -0.94045
 Alpha  occ. eigenvalues --   -0.89839  -0.85851  -0.84478  -0.79147  -0.78292
 Alpha  occ. eigenvalues --   -0.77207  -0.76169  -0.75257  -0.74942  -0.74339
 Alpha  occ. eigenvalues --   -0.72014  -0.69281  -0.68619  -0.66735  -0.65717
 Alpha  occ. eigenvalues --   -0.64234  -0.62494  -0.60844  -0.59721  -0.58672
 Alpha  occ. eigenvalues --   -0.57950  -0.57803  -0.56133  -0.54747  -0.53518
 Alpha  occ. eigenvalues --   -0.52698  -0.50855  -0.50765  -0.48882  -0.48661
 Alpha  occ. eigenvalues --   -0.48157  -0.47068  -0.46449  -0.46066  -0.45379
 Alpha  occ. eigenvalues --   -0.44853  -0.44024  -0.43892  -0.43367  -0.42763
 Alpha  occ. eigenvalues --   -0.42640  -0.42370  -0.41970  -0.41590  -0.41452
 Alpha  occ. eigenvalues --   -0.41387  -0.41247  -0.41009  -0.40811  -0.40723
 Alpha  occ. eigenvalues --   -0.40205  -0.39714  -0.39575  -0.39434  -0.38683
 Alpha  occ. eigenvalues --   -0.37631  -0.36859  -0.35940  -0.35304  -0.35014
 Alpha  occ. eigenvalues --   -0.34541  -0.34340  -0.33141  -0.32328  -0.30261
 Alpha  occ. eigenvalues --   -0.28462  -0.27794  -0.27080  -0.26786  -0.26232
 Alpha  occ. eigenvalues --   -0.25248  -0.25158  -0.24604  -0.23916  -0.23276
 Alpha  occ. eigenvalues --   -0.20379
 Alpha virt. eigenvalues --   -0.05825  -0.02325  -0.00661  -0.00402  -0.00197
 Alpha virt. eigenvalues --    0.00371   0.01083   0.02056   0.02609   0.05898
 Alpha virt. eigenvalues --    0.06289   0.08213   0.09323   0.09571   0.10120

 Mulliken charges:
               1
     1  C   -0.540757
     2  C    0.602446
     3  O   -0.494689
     4  N   -0.712320
     5  C    0.361961
     6  C   -0.214195
     7  C   -0.166274
     8  C    0.356101
     9  N   -0.730906
    10  C    0.607153
    11  O   -0.507297
    12  C   -0.274708
    13  N   -0.580190
    14  C    0.800479
    15  O   -0.540574
    16  N   -0.675356
    17  C    0.290694
    18  C   -0.169506
    19  C    0.168801
    20  C   -0.531683
    21  C   -0.221713
    22  C    0.168917
    23  C   -0.531341
    24  C   -0.172417
    25  C    0.632613
    26  O   -0.492461
    27  C   -0.276969
    28  S    0.316499
    29  C   -0.350729
    30  C   -0.110865
    31  C    0.365948
    32  C   -0.215935
    33  C   -0.167860
    34  H    0.190359
    35  H    0.143350
    36  H    0.190235
    37  H    0.328964
    38  H    0.123419
    39  H    0.182642
    40  H    0.380852
    41  H    0.190073
    42  H    0.207104
    43  H    0.126944
    44  H    0.157376
    45  H    0.169974
    46  H    0.161572
    47  H    0.118213
    48  H    0.160814
    49  H    0.171359
    50  H    0.158714
    51  H    0.130167
    52  H    0.190881
    53  H    0.188276
    54  H    0.145626
    55  H    0.190219
 Sum of Mulliken charges =  -0.00000

 Dipole moment (field-independent basis, Debye):
    X=              1.9270    Y=              2.0358    Z=              0.5757  Tot=              2.8617
 Quadrupole moment (field-independent basis, Debye-Ang):
   XX=           -168.6220   YY=           -186.1510   ZZ=           -197.3764
   XY=             -1.2668   XZ=             19.1078   YZ=              3.6068

 Normal termination of Gaussian 16 at Sat Nov  5 12:25:15 2022.
