 Gaussian 16, Revision B.01,
 Gaussian 16:  ES64L-G16RevB.01 20-Dec-2017

 -----------------------------
 #p b3lyp/6-31g(d) opt SCF=XQC
 -----------------------------

 ------------------------------
 Gaussian input prepared by ASE
 ------------------------------
 Symbolic Z-matrix:
 Charge =  0 Multiplicity = 1

 SCF Done:  E(RB3LYP) =  -1845.97489461     A.U. after   15 cycles
 SCF Done:  E(RB3LYP) =  -1845.98174722     A.U. after   13 cycles
 SCF Done:  E(RB3LYP) =  -1845.98198457     A.U. after   13 cycles
 SCF Done:  E(RB3LYP) =  -1845.98243367     A.U. after   12 cycles
 SCF Done:  E(RB3LYP) =  -1845.98237003     A.U. after   13 cycles
 SCF Done:  E(RB3LYP) =  -1845.98266708     A.U. after   12 cycles
 SCF Done:  E(RB3LYP) =  -1845.98269532     A.U. after   10 cycles
 SCF Done:  E(RB3LYP) =  -1845.98271907     A.U. after   10 cycles
 SCF Done:  E(RB3LYP) =  -1845.98273545     A.U. after   11 cycles
 SCF Done:  E(RB3LYP) =  -1845.98274461     A.U. after   11 cycles
 SCF Done:  E(RB3LYP) =  -1845.98298354     A.U. after   10 cycles
 SCF Done:  E(RB3LYP) =  -1845.98299281     A.U. after   10 cycles
 SCF Done:  E(RB3LYP) =  -1845.98300092     A.U. after    9 cycles
 SCF Done:  E(RB3LYP) =  -1845.98300750     A.U. after   10 cycles
 SCF Done:  E(RB3LYP) =  -1845.98301018     A.U. after    9 cycles
 SCF Done:  E(RB3LYP) =  -1845.98301248     A.U. after    9 cycles
 SCF Done:  E(RB3LYP) =  -1845.98301280     A.U. after    8 cycles
 SCF Done:  E(RB3LYP) =  -1845.98301285     A.U. after    7 cycles
 SCF Done:  E(RB3LYP) =  -1845.98301288     A.U. after    6 cycles
 SCF Done:  E(RB3LYP) =  -1845.98301289     A.U. after    6 cycles
 Optimization completed.
    -- Stationary point found.

                         Standard orientation:
 ---------------------------------------------------------------------
 Center     Atomic      Atomic             Coordinates (Angstroms)
 Number     Number       Type             X           Y           Z
 ---------------------------------------------------------------------
      1          6           0        8.621824    1.449730   -1.231555
      2          6           0        7.188100    1.505210   -0.719728
      3          8           0        6.625481    2.571866   -0.515204
      4          7           0        6.606744    0.273344   -0.515780
      5          6           0        5.307732   -0.029647   -0.052328
      6          6           0        4.956549   -1.382495    0.059708
      7          6           0        3.700181   -1.775778    0.507954
      8          6           0        2.755858   -0.799601    0.857051
      9          7           0        1.458074   -1.101798    1.324619
     10          6           0        0.861651   -2.322198    1.456506
     11          8           0        1.375681   -3.411596    1.223200
     12          6           0       -0.596629   -2.226518    1.939236
     13          7           0       -1.506746   -1.699301    0.915348
     14          6           0       -1.722640   -0.323654    0.899096
     15          8           0       -1.076879    0.424315    1.630999
     16          7           0       -2.703195    0.147133    0.025277
     17          6           0       -2.949067    1.575829    0.025607
     18          6           0       -3.826447    2.117839    0.958271
     19          6           0       -4.072217    3.495646    0.966452
     20          6           0       -5.037577    4.096822    1.961658
     21          6           0       -3.417226    4.294167    0.023006
     22          6           0       -2.537544    3.757303   -0.925692
     23          6           0       -1.872539    4.642270   -1.954258
     24          6           0       -2.305543    2.379023   -0.912271
     25          6           0       -3.460415   -0.646090   -0.893001
     26          8           0       -4.307770   -0.149767   -1.614227
     27          6           0       -3.074042   -2.036772   -0.864684
     28         16           0       -3.706152   -3.267340   -1.915988
     29          6           0       -2.654580   -4.440068   -1.195593
     30          6           0       -1.859730   -3.930393   -0.203706
     31          6           0       -2.114009   -2.538604   -0.008524
     32          6           0        3.105573    0.553565    0.746101
     33          6           0        4.362288    0.946192    0.298522
     34          1           0        9.267658    1.973793   -0.520223
     35          1           0        9.009494    0.436952   -1.380984
     36          1           0        8.675512    1.992456   -2.180300
     37          1           0        7.179786   -0.532304   -0.724656
     38          1           0        5.680225   -2.150266   -0.208519
     39          1           0        3.444752   -2.823091    0.588285
     40          1           0        0.859264   -0.304384    1.536734
     41          1           0       -0.921915   -3.229746    2.213552
     42          1           0       -0.676256   -1.571360    2.808942
     43          1           0       -4.312215    1.466676    1.679649
     44          1           0       -4.899382    5.179178    2.048179
     45          1           0       -6.078479    3.920701    1.660152
     46          1           0       -4.911020    3.658970    2.958119
     47          1           0       -3.596138    5.367791    0.026860
     48          1           0       -0.900436    4.241839   -2.260284
     49          1           0       -2.488979    4.728434   -2.858885
     50          1           0       -1.715863    5.655326   -1.569112
     51          1           0       -1.624948    1.927563   -1.628602
     52          1           0       -2.664942   -5.460061   -1.556868
     53          1           0       -1.100426   -4.496520    0.321477
     54          1           0        2.379601    1.318108    1.014064
     55          1           0        4.619582    1.992536    0.216885
 ---------------------------------------------------------------------

 The electronic state is 1-A.
 Alpha  occ. eigenvalues --  -88.93106 -19.14113 -19.13074 -19.13032 -19.11635
 Alpha  occ. eigenvalues --  -14.41461 -14.40076 -14.37922 -14.37713 -10.34583
 Alpha  occ. eigenvalues --  -10.31261 -10.30206 -10.29591 -10.26727 -10.25053
 Alpha  occ. eigenvalues --  -10.24439 -10.23429 -10.23313 -10.23192 -10.23153
 Alpha  occ. eigenvalues --  -10.21865 -10.20009 -10.19972 -10.19764 -10.19460
 Alpha  occ. eigenvalues --  -10.19218 -10.18965 -10.18938 -10.18743 -10.18634
 Alpha  occ. eigenvalues --  -10.18512 -10.18502 -10.18395  -7.99120  -5.95543
 Alpha  occ. eigenvalues --   -5.95170  -5.94804  -1.08527  -1.04900  -1.04533
 Alpha  occ. eigenvalues --   -1.03672  -0.98855  -0.95208  -0.94462  -0.94045
 Alpha  occ. eigenvalues --   -0.89839  -0.85851  -0.84478  -0.79147  -0.78292
 Alpha  occ. eigenvalues --   -0.77207  -0.76169  -0.75257  -0.74942  -0.74339
 Alpha  occ. eigenvalues --   -0.72014  -0.69281  -0.68619  -0.66735  -0.65717
 Alpha  occ. eigenvalues --   -0.64234  -0.62494  -0.60844  -0.59721  -0.58672
 Alpha  occ. eigenvalues --   -0.57950  -0.57803  -0.56133  -0.54747  -0.53518
 Alpha  occ. eigenvalues --   -0.52698  -0.50855  -0.50765  -0.48882  -0.48661
 Alpha  occ. eigenvalues --   -0.48157  -0.47068  -0.46449  -0.46066  -0.45379
 Alpha  occ. eigenvalues --   -0.44853  -0.44024  -0.43892  -0.43367  -0.42763
 Alpha  occ. eigenvalues --   -0.42640  -0.42370  -0.41970  -0.41590  -0.41452
 Alpha  occ. eigenvalues --   -0.41387  -0.41247  -0.41009  -0.40811  -0.40723
 Alpha  occ. eigenvalues --   -0.40205  -0.39714  -0.39575  -0.39434  -0.38683
 Alpha  occ. eigenvalues --   -0.37631  -0.36859  -0.35940  -0.35304  -0.35014
 Alpha  occ. eigenvalues --   -0.34541  -0.34340  -0.33141  -0.32328  -0.30261
 Alpha  occ. eigenvalues --   -0.28462  -0.27794  -0.27080  -0.26786  -0.26232
 Alpha  occ. eigenvalues --   -0.25248  -0.25158  -0.24604  -0.23916  -0.23276
 Alpha  occ. eigenvalues --   -0.20379
 Alpha virt. eigenvalues --   -0.05825  -0.02325  -0.00661  -0.00402  -0.00197
 Alpha virt. eigenvalues --    0.00371   0.01083   0.02056   0.02609   0.05898
 Alpha virt. eigenvalues --    0.06289   0.08213   0.09323   0.09571   0.10120

 Mulliken charges:
               1
     1  C   -0.540757
     2  C    0.602462
     3  O   -0.494697
     4  N   -0.712329
     5  C    0.361973
     6  C   -0.214203
     7  C   -0.166275
     8  C    0.356103
     9  N   -0.730914
    10  C    0.607190
    11  O   -0.507310
    12  C   -0.274721
    13  N   -0.580196
    14  C    0.800505
    15  O   -0.540568
    16  N   -0.675386
    17  C    0.290669
    18  C   -0.169496
    19  C    0.168803
    20  C   -0.531680
    21  C   -0.221722
    22  C    0.168922
    23  C   -0.531339
    24  C   -0.172410
    25  C    0.632643
    26  O   -0.492464
    27  C   -0.277006
    28  S    0.316518
    29  C   -0.350735
    30  C   -0.110861
    31  C    0.365957
    32  C   -0.215939
    33  C   -0.167863
    34  H    0.190359
    35  H    0.143350
    36  H    0.190234
    37  H    0.328964
    38  H    0.123419
    39  H    0.182642
    40  H    0.380850
    41  H    0.190073
    42  H    0.207104
    43  H    0.126941
    44  H    0.157375
    45  H    0.169973
    46  H    0.161572
    47  H    0.118215
    48  H    0.160814
    49  H    0.171358
    50  H    0.158713
    51  H    0.130166
    52  H    0.190881
    53  H    0.188275
    54  H    0.145623
    55  H    0.190222
 Sum of Mulliken charges =  -0.00000

 Dipole moment (field-independent basis, Debye):
    X=              1.3727    Y=             -2.4841    Z=              0.3667  Tot=              2.8617
 Quadrupole moment (field-independent basis, Debye-Ang):
   XX=           -176.4633   YY=           -183.1041   ZZ=           -194.0988
   XY=            -11.3567   XZ=            -19.0085   YZ=              2.4361

 Normal termination of Gaussian 16 at Fri Nov  4 21:56:50 2022.
