 Gaussian 16, Revision B.01,
 Gaussian 16:  ES64L-G16RevB.01 20-Dec-2017

 -------------------------------------------------------------------
 #p b3lyp/6-31g(d) 6D 10F nosymm GFInput td=(50-50,nstate=2) SCF=XQC
 -------------------------------------------------------------------

 ------------------------------
 Gaussian input prepared by ASE
 ------------------------------
 Symbolic Z-matrix:
 Charge =  0 Multiplicity = 1

                          Input orientation:
 ---------------------------------------------------------------------
 Center     Atomic      Atomic             Coordinates (Angstroms)
 Number     Number       Type             X           Y           Z
 ---------------------------------------------------------------------
      1          6           0        5.640160   -2.099678   -0.226243
      2          8           0        5.796396   -0.708038    0.010261
      3          6           0        4.683594    0.080445   -0.047812
      4          6           0        3.394003   -0.392918   -0.297550
      5          6           0        2.300753    0.489540   -0.320441
      6          6           0        0.879467    0.006821   -0.559686
      7          6           0        0.658934   -0.932065   -1.772225
      8          6           0        0.308499   -0.215769   -3.085716
      9          8           0        0.943869    0.682880   -3.608117
     10          6           0       -0.959865   -0.805617   -3.581877
     11          6           0       -1.621036   -0.527142   -4.781527
     12          6           0       -2.818433   -1.187111   -5.044356
     13          6           0       -3.336599   -2.102077   -4.113727
     14          6           0       -2.673696   -2.369947   -2.913903
     15          6           0       -1.473174   -1.711036   -2.644773
     16          6           0       -0.558946   -1.838405   -1.442023
     17          6           0       -1.096529   -1.392914   -0.030972
     18          6           0       -2.352023   -0.532961    0.004988
     19          6           0       -2.500833    0.644534   -0.741051
     20          6           0       -3.672126    1.405528   -0.641037
     21          8           0       -3.908256    2.550128   -1.341527
     22          6           0       -2.908255    3.007677   -2.241024
     23          6           0       -4.708630    1.008225    0.221681
     24          8           0       -5.824997    1.789109    0.377759
     25          6           0       -6.860168    1.541116   -0.573812
     26          6           0       -4.568067   -0.178382    0.957882
     27          8           0       -5.631971   -0.506750    1.745833
     28          6           0       -5.540720   -1.675808    2.542606
     29          6           0       -3.394217   -0.936858    0.850723
     30          6           0        0.182547   -0.733627    0.635820
     31          6           0       -0.078647    0.181706    1.864192
     32          6           0        0.533964   -0.530165    3.048939
     33          6           0        0.534458   -0.159029    4.394507
     34          6           0        1.180664   -0.983255    5.318220
     35          6           0        1.822717   -2.167352    4.917616
     36          6           0        1.823481   -2.540883    3.577853
     37          6           0        1.174084   -1.709226    2.659704
     38          6           0        1.037472   -1.899106    1.204539
     39          8           0        1.481430   -2.839562    0.559873
     40          6           0        2.529086    1.850115   -0.107746
     41          6           0        3.817837    2.332777    0.145608
     42          8           0        3.974825    3.673209    0.407923
     43          6           0        4.709742    4.411060   -0.574183
     44          6           0        4.906053    1.455028    0.181033
     45          8           0        6.177900    1.935382    0.390267
     46          6           0        6.664734    1.757008    1.722755
     47          1           0        5.260997   -2.294296   -1.237770
     48          1           0        6.637639   -2.531482   -0.125009
     49          1           0        4.963999   -2.562288    0.504186
     50          1           0        3.231439   -1.449510   -0.462210
     51          1           0        0.279365    0.909551   -0.721569
     52          1           0        1.552708   -1.537464   -1.950494
     53          1           0       -1.191239    0.183122   -5.482683
     54          1           0       -3.354468   -1.000890   -5.970985
     55          1           0       -4.272100   -2.610975   -4.331978
     56          1           0       -3.095077   -3.074886   -2.202053
     57          1           0       -0.226939   -2.874735   -1.335749
     58          1           0       -1.340955   -2.298636    0.533909
     59          1           0       -1.724618    0.959899   -1.423160
     60          1           0       -1.971394    3.240004   -1.718316
     61          1           0       -2.707735    2.273224   -3.031434
     62          1           0       -3.306937    3.920989   -2.686210
     63          1           0       -6.514684    1.740897   -1.595332
     64          1           0       -7.223042    0.507886   -0.501627
     65          1           0       -7.673520    2.227522   -0.325943
     66          1           0       -4.707187   -1.616199    3.254944
     67          1           0       -5.424494   -2.579154    1.928603
     68          1           0       -6.481344   -1.734068    3.093497
     69          1           0       -3.283393   -1.850113    1.424384
     70          1           0       -1.146141    0.370223    2.015803
     71          1           0        0.396017    1.160974    1.725611
     72          1           0        0.044078    0.754127    4.722425
     73          1           0        1.187988   -0.704079    6.368834
     74          1           0        2.316857   -2.788225    5.659721
     75          1           0        2.308752   -3.450692    3.235806
     76          1           0        1.715190    2.568343   -0.140342
     77          1           0        5.735243    4.041699   -0.663738
     78          1           0        4.717465    5.447423   -0.227611
     79          1           0        4.211352    4.359200   -1.551227
     80          1           0        6.729420    0.693741    1.978960
     81          1           0        7.664734    2.197194    1.743360
     82          1           0        6.022548    2.275064    2.446137
 ---------------------------------------------------------------------

 SCF Done:  E(RB3LYP) =  -2071.43552113     A.U. after   15 cycles

 Excitation energies and oscillator strengths:

 Excited state symmetry could not be determined.
 Excited State   1:      Triplet-?Sym    3.0519 eV  406.25 nm  f=0.0000  <S**2>=2.000
     159 ->166         0.16394
     160 ->165        -0.18723
     160 ->166        -0.57480
     160 ->174         0.12446
     161 ->166        -0.13688
     164 ->166         0.18261
 This state for optimization and/or second-order correction.
 Total Energy, E(TD-HF/TD-DFT) =  -2071.32336554
 Copying the excited state density for this state as the 1-particle RhoCI density.

 Excited state symmetry could not be determined.
 Excited State   2:      Triplet-?Sym    3.1111 eV  398.53 nm  f=0.0000  <S**2>=2.000
     158 ->165        -0.18401
     159 ->165        -0.54966
     159 ->173         0.10899
     160 ->165        -0.22231
     160 ->166         0.13424
     163 ->165         0.22604

 Excited state symmetry could not be determined.
 Excited State   3:      Singlet-?Sym    3.4049 eV  364.13 nm  f=0.0023  <S**2>=0.000
     159 ->165        -0.11656
     160 ->166        -0.11032
     163 ->165         0.20070
     164 ->165         0.64558

 Excited state symmetry could not be determined.
 Excited State   4:      Singlet-?Sym    3.4962 eV  354.62 nm  f=0.0013  <S**2>=0.000
     159 ->166         0.13805
     160 ->165        -0.18924
     160 ->166        -0.49913
     161 ->166        -0.14378
     164 ->165        -0.18322
     164 ->166         0.31198

 Alpha  occ. eigenvalues --  -19.17846 -19.17629 -19.17343 -19.15348 -19.15171
 Alpha  occ. eigenvalues --  -19.15091 -19.13992 -19.12998 -10.27258 -10.26431
 Alpha  occ. eigenvalues --  -10.24689 -10.24629 -10.24271 -10.24111 -10.23695
 Alpha  occ. eigenvalues --  -10.23486 -10.23127 -10.22911 -10.22652 -10.22196
 Alpha  occ. eigenvalues --  -10.22181 -10.21792 -10.21048 -10.20915 -10.20816
 Alpha  occ. eigenvalues --  -10.20816 -10.20494 -10.20413 -10.20397 -10.20320
 Alpha  occ. eigenvalues --  -10.20194 -10.20095 -10.20071 -10.19997 -10.19894
 Alpha  occ. eigenvalues --  -10.19810 -10.19778 -10.19479 -10.19250 -10.19224
 Alpha  occ. eigenvalues --  -10.19104 -10.18984 -10.18394 -10.18198 -10.17557
 Alpha  occ. eigenvalues --  -10.17347  -1.07005  -1.06331  -1.06265  -1.04389
 Alpha  occ. eigenvalues --   -1.03739  -1.03161  -1.02743  -1.02556  -0.88791
 Alpha  occ. eigenvalues --   -0.87662  -0.85734  -0.84755  -0.83324  -0.81111
 Alpha  occ. eigenvalues --   -0.77797  -0.77632  -0.76240  -0.75734  -0.75436
 Alpha  occ. eigenvalues --   -0.74845  -0.74177  -0.72241  -0.71346  -0.70523
 Alpha  occ. eigenvalues --   -0.70078  -0.69929  -0.68697  -0.67816  -0.67124
 Alpha  occ. eigenvalues --   -0.66402  -0.65142  -0.63741  -0.61180  -0.60303
 Alpha  occ. eigenvalues --   -0.59549  -0.59180  -0.58805  -0.58257  -0.57087
 Alpha  occ. eigenvalues --   -0.56516  -0.54836  -0.54321  -0.52714  -0.52389
 Alpha  occ. eigenvalues --   -0.51103  -0.50448  -0.50246  -0.49875  -0.49219
 Alpha  occ. eigenvalues --   -0.49043  -0.48335  -0.48124  -0.47640  -0.47444
 Alpha  occ. eigenvalues --   -0.47016  -0.46614  -0.46602  -0.46455  -0.45733
 Alpha  occ. eigenvalues --   -0.45476  -0.45269  -0.45105  -0.44723  -0.44252
 Alpha  occ. eigenvalues --   -0.44220  -0.44007  -0.43534  -0.43405  -0.43321
 Alpha  occ. eigenvalues --   -0.43195  -0.42758  -0.42532  -0.42366  -0.41808
 Alpha  occ. eigenvalues --   -0.41115  -0.40963  -0.40503  -0.40203  -0.39372
 Alpha  occ. eigenvalues --   -0.38818  -0.38506  -0.37880  -0.37521  -0.37407
 Alpha  occ. eigenvalues --   -0.37365  -0.36938  -0.36812  -0.36334  -0.35924
 Alpha  occ. eigenvalues --   -0.35495  -0.35280  -0.34640  -0.34315  -0.34280
 Alpha  occ. eigenvalues --   -0.34162  -0.34036  -0.33674  -0.33509  -0.33239
 Alpha  occ. eigenvalues --   -0.32971  -0.32502  -0.31809  -0.31361  -0.29881
 Alpha  occ. eigenvalues --   -0.29269  -0.27302  -0.26281  -0.26120  -0.25841
 Alpha  occ. eigenvalues --   -0.25650  -0.25499  -0.25165  -0.24424  -0.23485
 Alpha  occ. eigenvalues --   -0.21800  -0.21732  -0.21157  -0.20767
 Alpha virt. eigenvalues --   -0.06116  -0.05272  -0.01262  -0.01200   0.00129
 Alpha virt. eigenvalues --    0.00721   0.01885   0.02003   0.04280   0.04901
 Alpha virt. eigenvalues --    0.07235   0.07927   0.08960   0.09266   0.09495

 Mulliken charges:
               1
     1  C   -0.218954
     2  O   -0.512181
     3  C    0.356939
     4  C   -0.291827
     5  C    0.199385
     6  C   -0.217903
     7  C   -0.208713
     8  C    0.374457
     9  O   -0.472371
    10  C    0.052275
    11  C   -0.172008
    12  C   -0.137146
    13  C   -0.124135
    14  C   -0.181660
    15  C    0.134995
    16  C   -0.203432
    17  C   -0.216154
    18  C    0.182389
    19  C   -0.281204
    20  C    0.362636
    21  O   -0.509477
    22  C   -0.221993
    23  C    0.242577
    24  O   -0.512563
    25  C   -0.201993
    26  C    0.364041
    27  O   -0.506348
    28  C   -0.212821
    29  C   -0.302052
    30  C   -0.004292
    31  C   -0.390790
    32  C    0.112944
    33  C   -0.193261
    34  C   -0.119986
    35  C   -0.140026
    36  C   -0.165879
    37  C    0.086710
    38  C    0.395130
    39  O   -0.515605
    40  C   -0.263144
    41  C    0.335314
    42  O   -0.531146
    43  C   -0.216140
    44  C    0.257117
    45  O   -0.522296
    46  C   -0.205993
    47  H    0.156260
    48  H    0.166485
    49  H    0.161231
    50  H    0.163963
    51  H    0.150841
    52  H    0.183625
    53  H    0.154576
    54  H    0.136203
    55  H    0.136539
    56  H    0.133481
    57  H    0.177709
    58  H    0.139146
    59  H    0.141842
    60  H    0.155429
    61  H    0.162468
    62  H    0.170195
    63  H    0.148934
    64  H    0.143016
    65  H    0.156834
    66  H    0.152656
    67  H    0.148585
    68  H    0.171063
    69  H    0.127729
    70  H    0.180075
    71  H    0.175724
    72  H    0.138444
    73  H    0.139303
    74  H    0.137391
    75  H    0.151999
    76  H    0.126362
    77  H    0.172420
    78  H    0.153116
    79  H    0.144193
    80  H    0.155248
    81  H    0.155262
    82  H    0.148234
 Sum of Mulliken charges =  -0.00000

 Dipole moment (field-independent basis, Debye):
    X=             -2.1209    Y=             -3.2625    Z=              2.1367  Tot=              4.4394
 Quadrupole moment (field-independent basis, Debye-Ang):
   XX=           -255.6678   YY=           -255.8394   ZZ=           -243.5928
   XY=              6.7171   XZ=             18.3432   YZ=             -7.3399

 Normal termination of Gaussian 16 at Sat Nov  5 12:27:22 2022.
