 Gaussian 16, Revision B.01,
 Gaussian 16:  ES64L-G16RevB.01 20-Dec-2017

 -----------------------------
 #p b3lyp/6-31g(d) opt SCF=XQC
 -----------------------------

 ------------------------------
 Gaussian input prepared by ASE
 ------------------------------
 Symbolic Z-matrix:
 Charge =  0 Multiplicity = 1

 SCF Done:  E(RB3LYP) =  -2071.40373658     A.U. after   15 cycles
 SCF Done:  E(RB3LYP) =  -2071.42208123     A.U. after   14 cycles
 SCF Done:  E(RB3LYP) =  -2071.42661670     A.U. after   13 cycles
 SCF Done:  E(RB3LYP) =  -2071.42852871     A.U. after   13 cycles
 SCF Done:  E(RB3LYP) =  -2071.43001791     A.U. after   13 cycles
 SCF Done:  E(RB3LYP) =  -2071.43134205     A.U. after   14 cycles
 SCF Done:  E(RB3LYP) =  -2071.43221515     A.U. after   13 cycles
 SCF Done:  E(RB3LYP) =  -2071.43271067     A.U. after   13 cycles
 SCF Done:  E(RB3LYP) =  -2071.43310093     A.U. after   13 cycles
 SCF Done:  E(RB3LYP) =  -2071.43326154     A.U. after   12 cycles
 SCF Done:  E(RB3LYP) =  -2071.43550781     A.U. after   12 cycles
 SCF Done:  E(RB3LYP) =  -2071.43551815     A.U. after   10 cycles
 SCF Done:  E(RB3LYP) =  -2071.43552400     A.U. after   10 cycles
 SCF Done:  E(RB3LYP) =  -2071.43552530     A.U. after    9 cycles
 SCF Done:  E(RB3LYP) =  -2071.43552556     A.U. after    8 cycles
 SCF Done:  E(RB3LYP) =  -2071.43552558     A.U. after    7 cycles
 SCF Done:  E(RB3LYP) =  -2071.43552559     A.U. after    6 cycles
 SCF Done:  E(RB3LYP) =  -2071.43552562     A.U. after    7 cycles
 SCF Done:  E(RB3LYP) =  -2071.43552565     A.U. after    7 cycles
 SCF Done:  E(RB3LYP) =  -2071.43552567     A.U. after    6 cycles
 Optimization completed.
    -- Stationary point found.

                         Standard orientation:
 ---------------------------------------------------------------------
 Center     Atomic      Atomic             Coordinates (Angstroms)
 Number     Number       Type             X           Y           Z
 ---------------------------------------------------------------------
      1          6           0       -5.329846    0.499755    2.693684
      2          8           0       -5.620594    0.670950    1.314132
      3          6           0       -4.571957    0.758955    0.444636
      4          6           0       -3.229423    0.664478    0.816337
      5          6           0       -2.212773    0.747219   -0.150114
      6          6           0       -0.742380    0.619273    0.213041
      7          6           0       -0.240103    1.486285    1.394737
      8          6           0        0.296133    2.869895    0.995714
      9          8           0       -0.291896    3.707382    0.334650
     10          6           0        1.670946    2.981970    1.543591
     11          6           0        2.520644    4.091077    1.501773
     12          6           0        3.787789    3.973986    2.066601
     13          6           0        4.187074    2.762812    2.654273
     14          6           0        3.334928    1.656642    2.686048
     15          6           0        2.063634    1.767961    2.121011
     16          6           0        0.954977    0.736550    2.045428
     17          6           0        1.193125   -0.571600    1.202486
     18          6           0        2.359610   -0.576669    0.224547
     19          6           0        2.562794    0.422699   -0.737322
     20          6           0        3.641643    0.343785   -1.626646
     21          8           0        3.924328    1.277164   -2.578194
     22          6           0        3.077740    2.413608   -2.679349
     23          6           0        4.526703   -0.747457   -1.578324
     24          8           0        5.540054   -0.865598   -2.494609
     25          6           0        6.746620   -0.192311   -2.134814
     26          6           0        4.334028   -1.741219   -0.606163
     27          8           0        5.255015   -2.747381   -0.608474
     28          6           0        5.098399   -3.801902    0.326045
     29          6           0        3.253812   -1.654434    0.282821
     30          6           0       -0.228201   -0.825637    0.546281
     31          6           0       -0.259364   -1.790793   -0.671280
     32          6           0       -1.029389   -3.009044   -0.214549
     33          6           0       -1.301882   -4.188980   -0.908666
     34          6           0       -2.049356   -5.183718   -0.274665
     35          6           0       -2.525409   -5.016300    1.036878
     36          6           0       -2.255053   -3.842320    1.731983
     37          6           0       -1.505973   -2.851399    1.089083
     38          6           0       -1.092141   -1.540664    1.621002
     39          8           0       -1.345620   -1.107883    2.737066
     40          6           0       -2.567757    0.944257   -1.485666
     41          6           0       -3.910759    1.037643   -1.867310
     42          8           0       -4.203517    1.170770   -3.204016
     43          6           0       -4.793942    2.418208   -3.583959
     44          6           0       -4.925091    0.943441   -0.909098
     45          8           0       -6.243265    1.075453   -1.279376
     46          6           0       -6.953138   -0.161027   -1.386839
     47          1           0       -4.759231    1.348868    3.091469
     48          1           0       -6.297433    0.447444    3.196383
     49          1           0       -4.769480   -0.425699    2.878758
     50          1           0       -2.968316    0.513327    1.855040
     51          1           0       -0.185222    0.918168   -0.682217
     52          1           0       -1.042958    1.636819    2.122667
     53          1           0        2.179761    5.015460    1.043367
     54          1           0        4.470909    4.818939    2.059195
     55          1           0        5.178981    2.685392    3.092336
     56          1           0        3.665235    0.724857    3.137606
     57          1           0        0.679978    0.412138    3.052719
     58          1           0        1.390442   -1.389013    1.903963
     59          1           0        1.905398    1.278916   -0.781618
     60          1           0        2.047340    2.128107   -2.927689
     61          1           0        3.075808    3.001033   -1.752361
     62          1           0        3.488636    3.016725   -3.490946
     63          1           0        6.581738    0.887016   -2.031659
     64          1           0        7.159131   -0.594298   -1.200633
     65          1           0        7.452355   -0.374578   -2.948971
     66          1           0        4.146219   -4.330180    0.184516
     67          1           0        5.158187   -3.440631    1.361636
     68          1           0        5.923716   -4.491054    0.137440
     69          1           0        3.101637   -2.425553    1.029562
     70          1           0        0.746946   -2.054852   -1.011400
     71          1           0       -0.765673   -1.322260   -1.524278
     72          1           0       -0.942910   -4.335369   -1.924325
     73          1           0       -2.268204   -6.106727   -0.805646
     74          1           0       -3.104183   -5.808441    1.503686
     75          1           0       -2.606649   -3.682424    2.747389
     76          1           0       -1.812176    1.036975   -2.260162
     77          1           0       -5.758225    2.568363   -3.090287
     78          1           0       -4.935210    2.366365   -4.666352
     79          1           0       -4.122385    3.253599   -3.345568
     80          1           0       -6.991666   -0.677759   -0.421507
     81          1           0       -7.967384    0.096220   -1.701984
     82          1           0       -6.491130   -0.812870   -2.138981
 ---------------------------------------------------------------------

 The electronic state is 1-A.
 Alpha  occ. eigenvalues --  -19.17846 -19.17629 -19.17344 -19.15348 -19.15172
 Alpha  occ. eigenvalues --  -19.15091 -19.13992 -19.12998 -10.27258 -10.26431
 Alpha  occ. eigenvalues --  -10.24689 -10.24629 -10.24271 -10.24111 -10.23695
 Alpha  occ. eigenvalues --  -10.23486 -10.23127 -10.22911 -10.22652 -10.22196
 Alpha  occ. eigenvalues --  -10.22181 -10.21792 -10.21048 -10.20915 -10.20816
 Alpha  occ. eigenvalues --  -10.20816 -10.20494 -10.20413 -10.20397 -10.20320
 Alpha  occ. eigenvalues --  -10.20194 -10.20095 -10.20071 -10.19997 -10.19894
 Alpha  occ. eigenvalues --  -10.19810 -10.19778 -10.19479 -10.19250 -10.19224
 Alpha  occ. eigenvalues --  -10.19104 -10.18984 -10.18395 -10.18198 -10.17557
 Alpha  occ. eigenvalues --  -10.17347  -1.07005  -1.06331  -1.06265  -1.04389
 Alpha  occ. eigenvalues --   -1.03739  -1.03161  -1.02743  -1.02556  -0.88791
 Alpha  occ. eigenvalues --   -0.87662  -0.85734  -0.84755  -0.83325  -0.81111
 Alpha  occ. eigenvalues --   -0.77797  -0.77632  -0.76240  -0.75734  -0.75436
 Alpha  occ. eigenvalues --   -0.74845  -0.74177  -0.72241  -0.71346  -0.70523
 Alpha  occ. eigenvalues --   -0.70078  -0.69929  -0.68697  -0.67816  -0.67124
 Alpha  occ. eigenvalues --   -0.66402  -0.65142  -0.63741  -0.61180  -0.60303
 Alpha  occ. eigenvalues --   -0.59549  -0.59180  -0.58805  -0.58257  -0.57087
 Alpha  occ. eigenvalues --   -0.56516  -0.54836  -0.54321  -0.52714  -0.52389
 Alpha  occ. eigenvalues --   -0.51103  -0.50448  -0.50246  -0.49875  -0.49219
 Alpha  occ. eigenvalues --   -0.49043  -0.48335  -0.48124  -0.47640  -0.47444
 Alpha  occ. eigenvalues --   -0.47016  -0.46614  -0.46602  -0.46455  -0.45733
 Alpha  occ. eigenvalues --   -0.45476  -0.45269  -0.45105  -0.44723  -0.44252
 Alpha  occ. eigenvalues --   -0.44220  -0.44008  -0.43534  -0.43405  -0.43321
 Alpha  occ. eigenvalues --   -0.43195  -0.42758  -0.42532  -0.42366  -0.41808
 Alpha  occ. eigenvalues --   -0.41115  -0.40963  -0.40504  -0.40204  -0.39372
 Alpha  occ. eigenvalues --   -0.38818  -0.38506  -0.37880  -0.37522  -0.37406
 Alpha  occ. eigenvalues --   -0.37365  -0.36938  -0.36812  -0.36334  -0.35924
 Alpha  occ. eigenvalues --   -0.35495  -0.35280  -0.34640  -0.34315  -0.34280
 Alpha  occ. eigenvalues --   -0.34162  -0.34036  -0.33674  -0.33509  -0.33239
 Alpha  occ. eigenvalues --   -0.32971  -0.32502  -0.31809  -0.31362  -0.29881
 Alpha  occ. eigenvalues --   -0.29269  -0.27302  -0.26281  -0.26120  -0.25841
 Alpha  occ. eigenvalues --   -0.25650  -0.25499  -0.25165  -0.24424  -0.23485
 Alpha  occ. eigenvalues --   -0.21800  -0.21732  -0.21157  -0.20767
 Alpha virt. eigenvalues --   -0.06116  -0.05272  -0.01262  -0.01200   0.00129
 Alpha virt. eigenvalues --    0.00721   0.01884   0.02003   0.04280   0.04901
 Alpha virt. eigenvalues --    0.07235   0.07927   0.08960   0.09266   0.09495

 Mulliken charges:
               1
     1  C   -0.218953
     2  O   -0.512185
     3  C    0.356976
     4  C   -0.291868
     5  C    0.199366
     6  C   -0.217844
     7  C   -0.208734
     8  C    0.374447
     9  O   -0.472372
    10  C    0.052286
    11  C   -0.172006
    12  C   -0.137137
    13  C   -0.124136
    14  C   -0.181671
    15  C    0.134964
    16  C   -0.203395
    17  C   -0.216092
    18  C    0.182331
    19  C   -0.281234
    20  C    0.362676
    21  O   -0.509498
    22  C   -0.221992
    23  C    0.242577
    24  O   -0.512561
    25  C   -0.201995
    26  C    0.364028
    27  O   -0.506337
    28  C   -0.212824
    29  C   -0.302017
    30  C   -0.004388
    31  C   -0.390784
    32  C    0.112948
    33  C   -0.193263
    34  C   -0.119991
    35  C   -0.140022
    36  C   -0.165878
    37  C    0.086697
    38  C    0.395209
    39  O   -0.515636
    40  C   -0.263140
    41  C    0.335326
    42  O   -0.531143
    43  C   -0.216138
    44  C    0.257088
    45  O   -0.522286
    46  C   -0.205986
    47  H    0.156259
    48  H    0.166485
    49  H    0.161230
    50  H    0.163966
    51  H    0.150841
    52  H    0.183630
    53  H    0.154576
    54  H    0.136203
    55  H    0.136540
    56  H    0.133485
    57  H    0.177705
    58  H    0.139142
    59  H    0.141848
    60  H    0.155431
    61  H    0.162465
    62  H    0.170195
    63  H    0.148937
    64  H    0.143017
    65  H    0.156834
    66  H    0.152653
    67  H    0.148587
    68  H    0.171064
    69  H    0.127728
    70  H    0.180079
    71  H    0.175724
    72  H    0.138444
    73  H    0.139303
    74  H    0.137390
    75  H    0.151998
    76  H    0.126362
    77  H    0.172421
    78  H    0.153116
    79  H    0.144192
    80  H    0.155245
    81  H    0.155261
    82  H    0.148233
 Sum of Mulliken charges =  -0.00000

 Dipole moment (field-independent basis, Debye):
    X=              1.9085    Y=             -3.2389    Z=              2.3607  Tot=              4.4391
 Quadrupole moment (field-independent basis, Debye-Ang):
   XX=           -247.8824   YY=           -245.6842   ZZ=           -261.2054
   XY=             16.5669   XZ=              9.5392   YZ=             -6.8930

 1\1\GINC-NODE18\FOpt\RB3LYP\6-31G(d)\C38H36O8\WYKGROUP\05-Nov-2022\0\\
 #p b3lyp/6-31g(d) opt SCF=XQC\\Gaussian input prepared by ASE\\0,1\C,5
 .6401597408,-2.0996780515,-0.226243465\O,5.7963956845,-0.7080384331,0.
 0102612124\C,4.6835935428,0.0804451879,-0.0478118161\C,3.3940028961,-0
 .3929175255,-0.297549564\C,2.3007529381,0.4895403194,-0.3204407378\C,0
 .8794672523,0.0068214156,-0.5596857736\C,0.6589342554,-0.932065364,-1.
 7722251161\C,0.3084987115,-0.2157690009,-3.0857164612\O,0.9438688838,0
 .6828798788,-3.6081172974\C,-0.9598645709,-0.8056166968,-3.5818772015\

 Normal termination of Gaussian 16 at Sat Nov  5 02:30:34 2022.
