 Gaussian 16, Revision B.01,
 Gaussian 16:  ES64L-G16RevB.01 20-Dec-2017

 -------------------------------------------------------------------
 #p b3lyp/6-31g(d) 6D 10F nosymm GFInput td=(50-50,nstate=2) SCF=XQC
 -------------------------------------------------------------------

 ------------------------------
 Gaussian input prepared by ASE
 ------------------------------
 Symbolic Z-matrix:
 Charge =  0 Multiplicity = 1

                          Input orientation:
 ---------------------------------------------------------------------
 Center     Atomic      Atomic             Coordinates (Angstroms)
 Number     Number       Type             X           Y           Z
 ---------------------------------------------------------------------
      1          6           0        9.452773   -0.057147   -0.565752
      2          6           0        8.078591   -0.389934   -0.102046
      3          7           0        6.943424    0.091445   -0.512604
      4          6           0        6.027836   -0.585293    0.274006
      5          6           0        4.579674   -0.373042    0.172109
      6          6           0        4.069761    0.546355   -0.755095
      7          6           0        2.700121    0.755967   -0.868622
      8          6           0        1.820413    0.045547   -0.045024
      9          7           0        0.422879    0.256543   -0.169770
     10          6           0       -0.590595   -0.528378    0.270679
     11          6           0       -1.777258    0.084436   -0.089329
     12          6           0       -3.083575   -0.530006    0.246776
     13          8           0       -3.139249   -1.594092    0.857308
     14          7           0       -4.200273    0.168592   -0.169130
     15          6           0       -5.558643   -0.158217    0.002199
     16          6           0       -6.506568    0.738741   -0.522277
     17          6           0       -7.867477    0.480277   -0.390446
     18          6           0       -8.317123   -0.668690    0.261801
     19          6           0       -7.358568   -1.536747    0.769917
     20          9           0       -7.770724   -2.654575    1.404787
     21          6           0       -5.991185   -1.318335    0.661020
     22          6           0       -1.367864    1.275171   -0.773176
     23          6           0       -2.181224    2.366572   -1.404178
     24          7           0       -0.044166    1.365067   -0.815503
     25          6           0        2.318234   -0.865628    0.895948
     26          6           0        3.687477   -1.075746    0.996251
     27          7           0        6.566841   -1.435130    1.120464
     28          8           0        7.943700   -1.308224    0.872956
     29          1           0        9.955324   -0.948847   -0.955316
     30          1           0        9.393832    0.696302   -1.352374
     31          1           0       10.056379    0.330062    0.262010
     32          1           0        4.758711    1.091747   -1.390906
     33          1           0        2.299108    1.462869   -1.584098
     34          1           0       -0.440923   -1.465446    0.782740
     35          1           0       -4.035350    1.033495   -0.663159
     36          1           0       -6.173429    1.639097   -1.033561
     37          1           0       -8.586936    1.182896   -0.801024
     38          1           0       -9.371306   -0.894150    0.378433
     39          1           0       -5.283687   -2.022646    1.072568
     40          1           0       -2.814075    1.988067   -2.217700
     41          1           0       -1.509144    3.116571   -1.827919
     42          1           0       -2.826423    2.871701   -0.673486
     43          1           0        1.646376   -1.396977    1.561312
     44          1           0        4.074311   -1.780268    1.725078
 ---------------------------------------------------------------------

 SCF Done:  E(RB3LYP) =  -1295.79498668     A.U. after   15 cycles

 Excitation energies and oscillator strengths:

 Excited state symmetry could not be determined.
 Excited State   1:      Triplet-?Sym    2.9575 eV  419.22 nm  f=0.0000  <S**2>=2.000
      92 -> 99        -0.14732
      93 ->101        -0.11590
      97 -> 99         0.56211
      98 -> 99         0.29252
 This state for optimization and/or second-order correction.
 Total Energy, E(TD-HF/TD-DFT) =  -1295.68630001
 Copying the excited state density for this state as the 1-particle RhoCI density.

 Excited state symmetry could not be determined.
 Excited State   2:      Triplet-?Sym    3.4333 eV  361.12 nm  f=0.0000  <S**2>=2.000
      96 ->103         0.24924
      97 -> 99        -0.14681
      97 ->100        -0.12438
      98 -> 99         0.30904
      98 ->100         0.41780
      98 ->101        -0.22749
      98 ->105         0.17903

 Excited state symmetry could not be determined.
 Excited State   3:      Singlet-?Sym    4.0382 eV  307.03 nm  f=0.5745  <S**2>=0.000
      98 -> 99         0.69871

 Excited state symmetry could not be determined.
 Excited State   4:      Singlet-?Sym    4.3720 eV  283.59 nm  f=0.7031  <S**2>=0.000
      97 -> 99         0.67846
      98 ->100         0.12888

 Alpha  occ. eigenvalues --  -24.69697 -19.25006 -19.12132 -14.43744 -14.38972
 Alpha  occ. eigenvalues --  -14.38348 -14.36329 -14.34602 -10.30412 -10.30357
 Alpha  occ. eigenvalues --  -10.26870 -10.26425 -10.25496 -10.24654 -10.24080
 Alpha  occ. eigenvalues --  -10.23820 -10.21876 -10.21677 -10.21160 -10.20925
 Alpha  occ. eigenvalues --  -10.20902 -10.20664 -10.20463 -10.20446 -10.20161
 Alpha  occ. eigenvalues --  -10.19641 -10.19038 -10.18623  -1.20873  -1.16688
 Alpha  occ. eigenvalues --   -1.06884  -1.04163  -0.94844  -0.94513  -0.89639
 Alpha  occ. eigenvalues --   -0.88304  -0.85488  -0.84772  -0.80956  -0.77672
 Alpha  occ. eigenvalues --   -0.76679  -0.75725  -0.75258  -0.74914  -0.73120
 Alpha  occ. eigenvalues --   -0.68072  -0.65077  -0.64070  -0.62764  -0.61795
 Alpha  occ. eigenvalues --   -0.59834  -0.59698  -0.58249  -0.57501  -0.56282
 Alpha  occ. eigenvalues --   -0.55140  -0.53060  -0.50332  -0.50249  -0.49686
 Alpha  occ. eigenvalues --   -0.48368  -0.48160  -0.47493  -0.47239  -0.46481
 Alpha  occ. eigenvalues --   -0.46071  -0.45233  -0.44280  -0.43911  -0.43661
 Alpha  occ. eigenvalues --   -0.43486  -0.43452  -0.43039  -0.42842  -0.42332
 Alpha  occ. eigenvalues --   -0.42033  -0.41012  -0.39473  -0.38986  -0.38881
 Alpha  occ. eigenvalues --   -0.38466  -0.37979  -0.36683  -0.36388  -0.35254
 Alpha  occ. eigenvalues --   -0.34338  -0.34121  -0.31254  -0.30978  -0.30501
 Alpha  occ. eigenvalues --   -0.29967  -0.28194  -0.26998  -0.26306  -0.25874
 Alpha  occ. eigenvalues --   -0.24729  -0.23333  -0.22201
 Alpha virt. eigenvalues --   -0.06022  -0.03283  -0.01786  -0.01060   0.00022
 Alpha virt. eigenvalues --    0.01444   0.02211   0.06094   0.07465   0.07673
 Alpha virt. eigenvalues --    0.09009   0.09177   0.10383   0.10738   0.12100

 Mulliken charges:
               1
     1  C   -0.534420
     2  C    0.567734
     3  N   -0.511725
     4  C    0.382755
     5  C    0.117577
     6  C   -0.187789
     7  C   -0.157152
     8  C    0.347045
     9  N   -0.391454
    10  C    0.097337
    11  C   -0.115627
    12  C    0.609016
    13  O   -0.528478
    14  N   -0.779988
    15  C    0.371865
    16  C   -0.205603
    17  C   -0.132937
    18  C   -0.200058
    19  C    0.384094
    20  F   -0.298539
    21  C   -0.245594
    22  C    0.323980
    23  C   -0.563270
    24  N   -0.353607
    25  C   -0.174172
    26  C   -0.187962
    27  N   -0.226085
    28  O   -0.350108
    29  H    0.193211
    30  H    0.198069
    31  H    0.193206
    32  H    0.170113
    33  H    0.174583
    34  H    0.200251
    35  H    0.350394
    36  H    0.122353
    37  H    0.138461
    38  H    0.143615
    39  H    0.200852
    40  H    0.170324
    41  H    0.193378
    42  H    0.171025
    43  H    0.152087
    44  H    0.171243
 Sum of Mulliken charges =  -0.00000

 Dipole moment (field-independent basis, Debye):
    X=              2.5392    Y=              3.7876    Z=             -2.7201  Tot=              5.3096
 Quadrupole moment (field-independent basis, Debye-Ang):
   XX=           -126.8161   YY=           -162.1869   ZZ=           -160.1557
   XY=            -14.1418   XZ=              2.5729   YZ=             -0.0667

 Normal termination of Gaussian 16 at Sat Nov  5 12:16:35 2022.
