 Gaussian 16, Revision B.01,
 Gaussian 16:  ES64L-G16RevB.01 20-Dec-2017

 -----------------------------
 #p b3lyp/6-31g(d) opt SCF=XQC
 -----------------------------

 ------------------------------
 Gaussian input prepared by ASE
 ------------------------------
 Symbolic Z-matrix:
 Charge =  0 Multiplicity = 1

 SCF Done:  E(RB3LYP) =  -1295.78844971     A.U. after   15 cycles
 SCF Done:  E(RB3LYP) =  -1295.79415151     A.U. after   12 cycles
 SCF Done:  E(RB3LYP) =  -1295.79461807     A.U. after   12 cycles
 SCF Done:  E(RB3LYP) =  -1295.79474265     A.U. after   11 cycles
 SCF Done:  E(RB3LYP) =  -1295.79477572     A.U. after   11 cycles
 SCF Done:  E(RB3LYP) =  -1295.79482423     A.U. after   10 cycles
 SCF Done:  E(RB3LYP) =  -1295.79485226     A.U. after   11 cycles
 SCF Done:  E(RB3LYP) =  -1295.79487193     A.U. after   11 cycles
 SCF Done:  E(RB3LYP) =  -1295.79488392     A.U. after   10 cycles
 SCF Done:  E(RB3LYP) =  -1295.79489501     A.U. after   11 cycles
 SCF Done:  E(RB3LYP) =  -1295.79496954     A.U. after   11 cycles
 SCF Done:  E(RB3LYP) =  -1295.79498309     A.U. after   11 cycles
 SCF Done:  E(RB3LYP) =  -1295.79498594     A.U. after   10 cycles
 SCF Done:  E(RB3LYP) =  -1295.79498648     A.U. after    9 cycles
 SCF Done:  E(RB3LYP) =  -1295.79498682     A.U. after    7 cycles
 SCF Done:  E(RB3LYP) =  -1295.79498539     A.U. after   10 cycles
 SCF Done:  E(RB3LYP) =  -1295.79498585     A.U. after   10 cycles
 SCF Done:  E(RB3LYP) =  -1295.79498688     A.U. after    9 cycles
 SCF Done:  E(RB3LYP) =  -1295.79498710     A.U. after    9 cycles
 SCF Done:  E(RB3LYP) =  -1295.79498714     A.U. after    7 cycles
 Optimization completed.
    -- Stationary point found.

                         Standard orientation:
 ---------------------------------------------------------------------
 Center     Atomic      Atomic             Coordinates (Angstroms)
 Number     Number       Type             X           Y           Z
 ---------------------------------------------------------------------
      1          6           0        9.510618    0.346851   -0.374021
      2          6           0        8.127462   -0.164168   -0.174305
      3          7           0        7.002545    0.481062   -0.258723
      4          6           0        6.070350   -0.501690    0.024547
      5          6           0        4.625877   -0.245800    0.049515
      6          6           0        4.137049    1.039125   -0.224394
      7          6           0        2.771199    1.297958   -0.210269
      8          6           0        1.874072    0.266211    0.085633
      9          7           0        0.480483    0.532782    0.091016
     10          6           0       -0.546571   -0.349279    0.025033
     11          6           0       -1.722181    0.378992    0.054708
     12          6           0       -3.038957   -0.298754   -0.006369
     13          8           0       -3.113374   -1.522401   -0.079021
     14          7           0       -4.143018    0.530804    0.023852
     15          6           0       -5.506775    0.184726   -0.017654
     16          6           0       -6.438654    1.237052    0.031163
     17          6           0       -7.803741    0.969817   -0.005941
     18          6           0       -8.273491   -0.341550   -0.091875
     19          6           0       -7.330478   -1.360905   -0.138495
     20          9           0       -7.762199   -2.637290   -0.221742
     21          6           0       -5.959621   -1.139836   -0.104129
     22          6           0       -1.291850    1.743234    0.136929
     23          6           0       -2.085815    3.014464    0.203760
     24          7           0        0.033149    1.821017    0.156369
     25          6           0        2.350732   -1.019192    0.375514
     26          6           0        3.716339   -1.271196    0.350048
     27          7           0        6.589984   -1.684647    0.269156
     28          8           0        7.971006   -1.464321    0.137473
     29          1           0       10.008256   -0.193368   -1.186405
     30          1           0        9.469233    1.408935   -0.619374
     31          1           0       10.108312    0.207816    0.533113
     32          1           0        4.839412    1.832924   -0.454457
     33          1           0        2.386430    2.287453   -0.423061
     34          1           0       -0.413122   -1.415932   -0.059516
     35          1           0       -3.962903    1.522322    0.085266
     36          1           0       -6.089756    2.265060    0.098280
     37          1           0       -8.510636    1.793639    0.032616
     38          1           0       -9.331356   -0.577625   -0.122313
     39          1           0       -5.264716   -1.965418   -0.142852
     40          1           0       -2.712829    3.153432   -0.686816
     41          1           0       -1.400686    3.863475    0.263141
     42          1           0       -2.734332    3.046672    1.089050
     43          1           0        1.665252   -1.817702    0.638064
     44          1           0        4.086795   -2.265794    0.575252
 ---------------------------------------------------------------------

 The electronic state is 1-A.
 Alpha  occ. eigenvalues --  -24.69697 -19.25006 -19.12132 -14.43744 -14.38972
 Alpha  occ. eigenvalues --  -14.38348 -14.36329 -14.34602 -10.30412 -10.30357
 Alpha  occ. eigenvalues --  -10.26870 -10.26425 -10.25496 -10.24654 -10.24080
 Alpha  occ. eigenvalues --  -10.23820 -10.21876 -10.21677 -10.21160 -10.20925
 Alpha  occ. eigenvalues --  -10.20902 -10.20664 -10.20464 -10.20446 -10.20161
 Alpha  occ. eigenvalues --  -10.19641 -10.19038 -10.18623  -1.20873  -1.16688
 Alpha  occ. eigenvalues --   -1.06884  -1.04163  -0.94844  -0.94513  -0.89639
 Alpha  occ. eigenvalues --   -0.88304  -0.85488  -0.84772  -0.80956  -0.77672
 Alpha  occ. eigenvalues --   -0.76679  -0.75725  -0.75258  -0.74914  -0.73120
 Alpha  occ. eigenvalues --   -0.68072  -0.65077  -0.64070  -0.62764  -0.61795
 Alpha  occ. eigenvalues --   -0.59834  -0.59698  -0.58249  -0.57501  -0.56282
 Alpha  occ. eigenvalues --   -0.55140  -0.53060  -0.50332  -0.50249  -0.49686
 Alpha  occ. eigenvalues --   -0.48368  -0.48160  -0.47493  -0.47239  -0.46481
 Alpha  occ. eigenvalues --   -0.46071  -0.45233  -0.44280  -0.43911  -0.43661
 Alpha  occ. eigenvalues --   -0.43486  -0.43452  -0.43039  -0.42842  -0.42332
 Alpha  occ. eigenvalues --   -0.42033  -0.41012  -0.39473  -0.38986  -0.38881
 Alpha  occ. eigenvalues --   -0.38466  -0.37979  -0.36683  -0.36388  -0.35254
 Alpha  occ. eigenvalues --   -0.34338  -0.34121  -0.31254  -0.30978  -0.30501
 Alpha  occ. eigenvalues --   -0.29968  -0.28194  -0.26998  -0.26306  -0.25874
 Alpha  occ. eigenvalues --   -0.24729  -0.23333  -0.22201
 Alpha virt. eigenvalues --   -0.06022  -0.03283  -0.01786  -0.01061   0.00022
 Alpha virt. eigenvalues --    0.01444   0.02211   0.06094   0.07465   0.07673
 Alpha virt. eigenvalues --    0.09009   0.09177   0.10383   0.10738   0.12100

 Mulliken charges:
               1
     1  C   -0.534420
     2  C    0.567729
     3  N   -0.511726
     4  C    0.382760
     5  C    0.117595
     6  C   -0.187801
     7  C   -0.157151
     8  C    0.347046
     9  N   -0.391456
    10  C    0.097354
    11  C   -0.115634
    12  C    0.608999
    13  O   -0.528466
    14  N   -0.779971
    15  C    0.371866
    16  C   -0.205614
    17  C   -0.132931
    18  C   -0.200059
    19  C    0.384102
    20  F   -0.298539
    21  C   -0.245598
    22  C    0.323977
    23  C   -0.563269
    24  N   -0.353609
    25  C   -0.174179
    26  C   -0.187972
    27  N   -0.226086
    28  O   -0.350105
    29  H    0.193211
    30  H    0.198068
    31  H    0.193206
    32  H    0.170113
    33  H    0.174582
    34  H    0.200249
    35  H    0.350394
    36  H    0.122354
    37  H    0.138460
    38  H    0.143614
    39  H    0.200850
    40  H    0.170325
    41  H    0.193378
    42  H    0.171025
    43  H    0.152088
    44  H    0.171243
 Sum of Mulliken charges =  -0.00000

 Dipole moment (field-independent basis, Debye):
    X=              2.6122    Y=              4.6188    Z=             -0.1890  Tot=              5.3097
 Quadrupole moment (field-independent basis, Debye-Ang):
   XX=           -126.9137   YY=           -158.9545   ZZ=           -160.9077
   XY=            -12.9196   XZ=             -5.2423   YZ=             -0.5537

 Normal termination of Gaussian 16 at Fri Nov  4 20:42:03 2022.
