 Gaussian 16, Revision B.01,
 Gaussian 16:  ES64L-G16RevB.01 20-Dec-2017

 -------------------------------------------------------------------
 #p b3lyp/6-31g(d) 6D 10F nosymm GFInput td=(50-50,nstate=2) SCF=XQC
 -------------------------------------------------------------------

 ------------------------------
 Gaussian input prepared by ASE
 ------------------------------
 Symbolic Z-matrix:
 Charge =  0 Multiplicity = 1

                          Input orientation:
 ---------------------------------------------------------------------
 Center     Atomic      Atomic             Coordinates (Angstroms)
 Number     Number       Type             X           Y           Z
 ---------------------------------------------------------------------
      1          6           0        4.007044    4.158647    1.924581
      2          8           0        4.030660    3.625032    0.607095
      3          6           0        3.803339    2.295448    0.441783
      4          6           0        3.584498    1.387903    1.486576
      5          6           0        3.362361    0.040656    1.196238
      6          6           0        3.352128   -0.408258   -0.123907
      7          7           0        3.131282   -1.795555   -0.414149
      8          6           0        4.123891   -2.701464   -0.648210
      9          6           0        5.573516   -2.340472   -0.613377
     10          6           0        3.530321   -3.942749   -0.895954
     11          6           0        2.146518   -3.789970   -0.810114
     12          6           0        1.870049   -2.442336   -0.507844
     13          6           0        0.699004   -1.682546   -0.308784
     14          6           0       -0.656978   -1.960538   -0.314883
     15          6           0       -1.266969   -3.259478   -0.564485
     16          8           0       -0.696269   -4.318636   -0.806138
     17          7           0       -2.667258   -3.262488   -0.521894
     18          6           0       -3.534715   -2.228923   -0.270006
     19         16           0       -5.181651   -2.492494   -0.291703
     20          7           0       -2.931798   -1.011888   -0.018939
     21          6           0       -3.751998    0.140390    0.310541
     22          6           0       -4.087742    0.329647    1.650364
     23          6           0       -4.849712    1.432649    2.014824
     24          6           0       -5.260235    2.336082    1.034956
     25          6           0       -4.920292    2.155928   -0.308745
     26          6           0       -5.378483    3.157369   -1.343207
     27          6           0       -4.147811    1.036702   -0.689624
     28          6           0       -3.769490    0.835774   -2.135929
     29          6           0       -1.523151   -0.794375   -0.034406
     30          8           0       -1.099858    0.331937    0.180827
     31          6           0        3.567561    0.502321   -1.167122
     32          6           0        3.795369    1.841883   -0.887676
     33          1           0        3.031206    4.003722    2.401785
     34          1           0        4.793413    3.717802    2.550849
     35          1           0        4.190793    5.228452    1.814745
     36          1           0        3.580018    1.714560    2.519565
     37          1           0        3.189496   -0.666149    2.002350
     38          1           0        5.857948   -1.898004    0.348787
     39          1           0        6.179447   -3.236052   -0.771921
     40          1           0        5.833279   -1.611069   -1.390115
     41          1           0        4.072340   -4.853915   -1.111266
     42          1           0        1.381257   -4.536595   -0.942803
     43          1           0        0.885082   -0.630755   -0.098808
     44          1           0       -3.100203   -4.160233   -0.705933
     45          1           0       -3.754741   -0.392012    2.389575
     46          1           0       -5.122715    1.588888    3.054520
     47          1           0       -5.856302    3.201073    1.316369
     48          1           0       -4.531979    3.607153   -1.877920
     49          1           0       -5.947570    3.967966   -0.878241
     50          1           0       -6.020517    2.692892   -2.102879
     51          1           0       -3.236126   -0.102783   -2.294368
     52          1           0       -3.124798    1.649795   -2.491095
     53          1           0       -4.658124    0.823642   -2.777988
     54          1           0        3.546051    0.153031   -2.195172
     55          1           0        3.959616    2.562397   -1.682163
 ---------------------------------------------------------------------

 SCF Done:  E(RB3LYP) =  -1754.66251055     A.U. after   16 cycles

 Excitation energies and oscillator strengths:

 Excited state symmetry could not be determined.
 Excited State   1:      Triplet-?Sym    2.0445 eV  606.44 nm  f=0.0000  <S**2>=2.000
     115 ->118        -0.19527
     116 ->118         0.66076
 This state for optimization and/or second-order correction.
 Total Energy, E(TD-HF/TD-DFT) =  -1754.58737753
 Copying the excited state density for this state as the 1-particle RhoCI density.

 Excited state symmetry could not be determined.
 Excited State   2:      Triplet-?Sym    2.3996 eV  516.68 nm  f=0.0000  <S**2>=2.000
     117 ->118         0.67635
     117 ->120         0.13151
     117 ->121        -0.10790

 Excited state symmetry could not be determined.
 Excited State   3:      Singlet-?Sym    2.5437 eV  487.41 nm  f=0.0002  <S**2>=0.000
     117 ->118         0.69396

 Excited state symmetry could not be determined.
 Excited State   4:      Singlet-?Sym    3.2747 eV  378.62 nm  f=0.7336  <S**2>=0.000
     115 ->118         0.25118
     116 ->118         0.65786

 Alpha  occ. eigenvalues --  -88.82548 -19.19640 -19.12625 -19.12417 -14.40346
 Alpha  occ. eigenvalues --  -14.39491 -14.38546 -10.31165 -10.30300 -10.30167
 Alpha  occ. eigenvalues --  -10.27027 -10.25523 -10.24642 -10.24396 -10.23205
 Alpha  occ. eigenvalues --  -10.22493 -10.22099 -10.21692 -10.21562 -10.21050
 Alpha  occ. eigenvalues --  -10.20843 -10.20698 -10.20696 -10.19253 -10.19065
 Alpha  occ. eigenvalues --  -10.18946 -10.18865 -10.18235 -10.18078 -10.17998
 Alpha  occ. eigenvalues --  -10.17842 -10.17616  -7.88803  -5.85340  -5.84816
 Alpha  occ. eigenvalues --   -5.84355  -1.08304  -1.05667  -1.04257  -1.00705
 Alpha  occ. eigenvalues --   -0.98916  -0.92246  -0.87741  -0.84836  -0.82481
 Alpha  occ. eigenvalues --   -0.81477  -0.78528  -0.77354  -0.77219  -0.75985
 Alpha  occ. eigenvalues --   -0.75598  -0.75035  -0.71215  -0.70881  -0.69384
 Alpha  occ. eigenvalues --   -0.66902  -0.64898  -0.63853  -0.63556  -0.63455
 Alpha  occ. eigenvalues --   -0.62513  -0.60077  -0.57575  -0.57452  -0.57154
 Alpha  occ. eigenvalues --   -0.56351  -0.54635  -0.53238  -0.51026  -0.50231
 Alpha  occ. eigenvalues --   -0.49213  -0.48615  -0.48423  -0.47418  -0.46583
 Alpha  occ. eigenvalues --   -0.46345  -0.45555  -0.45080  -0.44893  -0.44663
 Alpha  occ. eigenvalues --   -0.44145  -0.43678  -0.43232  -0.42725  -0.42062
 Alpha  occ. eigenvalues --   -0.41587  -0.40866  -0.40749  -0.40301  -0.40254
 Alpha  occ. eigenvalues --   -0.39827  -0.39465  -0.39268  -0.38464  -0.38347
 Alpha  occ. eigenvalues --   -0.38147  -0.37851  -0.37736  -0.37244  -0.36803
 Alpha  occ. eigenvalues --   -0.34553  -0.34112  -0.34075  -0.33871  -0.33312
 Alpha  occ. eigenvalues --   -0.29741  -0.27609  -0.27527  -0.27456  -0.26218
 Alpha  occ. eigenvalues --   -0.26119  -0.24303  -0.24027  -0.23243  -0.22761
 Alpha  occ. eigenvalues --   -0.21155  -0.20366
 Alpha virt. eigenvalues --   -0.08534  -0.02530  -0.01765  -0.01423   0.00567
 Alpha virt. eigenvalues --    0.00729   0.01170   0.03916   0.07315   0.08301
 Alpha virt. eigenvalues --    0.08463   0.09210   0.10011   0.10045   0.10764

 Mulliken charges:
               1
     1  C   -0.222061
     2  O   -0.502973
     3  C    0.396033
     4  C   -0.203462
     5  C   -0.132424
     6  C    0.205446
     7  N   -0.595276
     8  C    0.355837
     9  C   -0.526381
    10  C   -0.230394
    11  C   -0.182573
    12  C    0.327562
    13  C   -0.263356
    14  C   -0.018233
    15  C    0.587708
    16  O   -0.516380
    17  N   -0.652452
    18  C    0.358142
    19  S   -0.237849
    20  N   -0.619901
    21  C    0.200933
    22  C   -0.101543
    23  C   -0.145583
    24  C   -0.166085
    25  C    0.105909
    26  C   -0.532817
    27  C    0.175368
    28  C   -0.532359
    29  C    0.590529
    30  O   -0.502705
    31  C   -0.130629
    32  C   -0.183069
    33  H    0.163460
    34  H    0.155082
    35  H    0.177776
    36  H    0.146218
    37  H    0.153355
    38  H    0.177282
    39  H    0.173820
    40  H    0.177290
    41  H    0.138971
    42  H    0.208609
    43  H    0.203043
    44  H    0.365877
    45  H    0.134224
    46  H    0.128979
    47  H    0.120216
    48  H    0.160120
    49  H    0.153662
    50  H    0.163629
    51  H    0.158564
    52  H    0.164582
    53  H    0.165583
    54  H    0.151660
    55  H    0.153041
 Sum of Mulliken charges =  -0.00000

 Dipole moment (field-independent basis, Debye):
    X=              7.8966    Y=              3.7945    Z=              1.3112  Tot=              8.8586
 Quadrupole moment (field-independent basis, Debye-Ang):
   XX=           -185.4973   YY=           -189.4644   ZZ=           -177.9459
   XY=            -15.5167   XZ=              4.0782   YZ=              3.9730

 Normal termination of Gaussian 16 at Sat Nov  5 12:09:18 2022.
