 Gaussian 16, Revision B.01,
 Gaussian 16:  ES64L-G16RevB.01 20-Dec-2017

 -----------------------------
 #p b3lyp/6-31g(d) opt SCF=XQC
 -----------------------------

 ------------------------------
 Gaussian input prepared by ASE
 ------------------------------
 Symbolic Z-matrix:
 Charge =  0 Multiplicity = 1

 SCF Done:  E(RB3LYP) =  -1754.65308781     A.U. after   16 cycles
 SCF Done:  E(RB3LYP) =  -1754.66088708     A.U. after   13 cycles
 SCF Done:  E(RB3LYP) =  -1754.66133676     A.U. after   12 cycles
 SCF Done:  E(RB3LYP) =  -1754.66146334     A.U. after   12 cycles
 SCF Done:  E(RB3LYP) =  -1754.66179978     A.U. after   11 cycles
 SCF Done:  E(RB3LYP) =  -1754.66200084     A.U. after   12 cycles
 SCF Done:  E(RB3LYP) =  -1754.66219725     A.U. after   12 cycles
 SCF Done:  E(RB3LYP) =  -1754.66231044     A.U. after   11 cycles
 SCF Done:  E(RB3LYP) =  -1754.66240807     A.U. after   11 cycles
 SCF Done:  E(RB3LYP) =  -1754.66246306     A.U. after   12 cycles
 SCF Done:  E(RB3LYP) =  -1754.66250270     A.U. after    9 cycles
 SCF Done:  E(RB3LYP) =  -1754.66250292     A.U. after    8 cycles
 SCF Done:  E(RB3LYP) =  -1754.66250304     A.U. after    7 cycles
 SCF Done:  E(RB3LYP) =  -1754.66250310     A.U. after    7 cycles
 SCF Done:  E(RB3LYP) =  -1754.66250314     A.U. after    6 cycles
 SCF Done:  E(RB3LYP) =  -1754.66250317     A.U. after    7 cycles
 SCF Done:  E(RB3LYP) =  -1754.66250320     A.U. after    7 cycles
 SCF Done:  E(RB3LYP) =  -1754.66250324     A.U. after    7 cycles
 SCF Done:  E(RB3LYP) =  -1754.66250327     A.U. after    6 cycles
 SCF Done:  E(RB3LYP) =  -1754.66250329     A.U. after    6 cycles
 Optimization completed.
    -- Stationary point found.

                         Standard orientation:
 ---------------------------------------------------------------------
 Center     Atomic      Atomic             Coordinates (Angstroms)
 Number     Number       Type             X           Y           Z
 ---------------------------------------------------------------------
      1          6           0       -4.236821    4.977697   -0.997222
      2          8           0       -4.252217    4.197112    0.190853
      3          6           0       -4.058826    2.855902    0.088136
      4          6           0       -3.883328    2.165622   -1.118443
      5          6           0       -3.693430    0.782733   -1.101909
      6          6           0       -3.672611    0.083864    0.104557
      7          7           0       -3.485110   -1.338237    0.113206
      8          6           0       -4.498113   -2.248704    0.188056
      9          6           0       -5.937612   -1.853694    0.256981
     10          6           0       -3.934798   -3.528158    0.175180
     11          6           0       -2.549009   -3.394303    0.089767
     12          6           0       -2.240764   -2.020493    0.050406
     13          6           0       -1.052843   -1.264349   -0.022676
     14          6           0        0.294853   -1.570147   -0.101459
     15          6           0        0.873023   -2.906875   -0.124143
     16          8           0        0.277608   -3.979047   -0.081260
     17          7           0        2.271743   -2.934608   -0.197952
     18          6           0        3.162872   -1.892541   -0.262536
     19         16           0        4.802037   -2.194140   -0.329744
     20          7           0        2.589488   -0.635990   -0.257444
     21          6           0        3.435310    0.538770   -0.373857
     22          6           0        3.752777    0.978753   -1.658107
     23          6           0        4.538433    2.113433   -1.817133
     24          6           0        4.990720    2.797510   -0.689154
     25          6           0        4.669375    2.365791    0.600771
     26          6           0        5.172960    3.134131    1.800350
     27          6           0        3.873052    1.212239    0.772963
     28          6           0        3.514562    0.740968    2.160293
     29          6           0        1.187861   -0.392460   -0.168146
     30          8           0        0.792124    0.763885   -0.149675
     31          6           0       -3.844647    0.777348    1.310107
     32          6           0       -4.040236    2.150704    1.302877
     33          1           0       -3.274083    4.896187   -1.517296
     34          1           0       -5.045836    4.686761   -1.679705
     35          1           0       -4.389042    6.009317   -0.676447
     36          1           0       -3.887817    2.688051   -2.067568
     37          1           0       -3.554190    0.243593   -2.034225
     38          1           0       -6.226431   -1.224765   -0.593591
     39          1           0       -6.565172   -2.748393    0.251118
     40          1           0       -6.163591   -1.284592    1.166862
     41          1           0       -4.497922   -4.450765    0.220497
     42          1           0       -1.802448   -4.170345    0.056841
     43          1           0       -1.213455   -0.187702   -0.018937
     44          1           0        2.682889   -3.860996   -0.202580
     45          1           0        3.387175    0.423916   -2.516363
     46          1           0        4.797505    2.463755   -2.812153
     47          1           0        5.605439    3.686517   -0.809516
     48          1           0        4.348624    3.490384    2.431497
     49          1           0        5.756017    4.006397    1.490000
     50          1           0        5.815058    2.514821    2.440048
     51          1           0        2.958343   -0.197559    2.144303
     52          1           0        2.898856    1.484690    2.682007
     53          1           0        4.413563    0.582316    2.767486
     54          1           0       -3.814893    0.233082    2.249385
     55          1           0       -4.170686    2.705355    2.226280
 ---------------------------------------------------------------------

 The electronic state is 1-A.
 Alpha  occ. eigenvalues --  -88.82548 -19.19640 -19.12625 -19.12417 -14.40346
 Alpha  occ. eigenvalues --  -14.39491 -14.38546 -10.31164 -10.30300 -10.30167
 Alpha  occ. eigenvalues --  -10.27027 -10.25523 -10.24642 -10.24396 -10.23205
 Alpha  occ. eigenvalues --  -10.22493 -10.22099 -10.21692 -10.21562 -10.21050
 Alpha  occ. eigenvalues --  -10.20843 -10.20697 -10.20696 -10.19253 -10.19064
 Alpha  occ. eigenvalues --  -10.18946 -10.18865 -10.18235 -10.18078 -10.17998
 Alpha  occ. eigenvalues --  -10.17842 -10.17616  -7.88802  -5.85340  -5.84816
 Alpha  occ. eigenvalues --   -5.84355  -1.08304  -1.05667  -1.04257  -1.00705
 Alpha  occ. eigenvalues --   -0.98916  -0.92246  -0.87741  -0.84836  -0.82481
 Alpha  occ. eigenvalues --   -0.81477  -0.78528  -0.77354  -0.77219  -0.75985
 Alpha  occ. eigenvalues --   -0.75598  -0.75035  -0.71215  -0.70881  -0.69384
 Alpha  occ. eigenvalues --   -0.66902  -0.64897  -0.63853  -0.63556  -0.63455
 Alpha  occ. eigenvalues --   -0.62513  -0.60077  -0.57575  -0.57452  -0.57154
 Alpha  occ. eigenvalues --   -0.56351  -0.54635  -0.53238  -0.51026  -0.50231
 Alpha  occ. eigenvalues --   -0.49213  -0.48615  -0.48423  -0.47418  -0.46583
 Alpha  occ. eigenvalues --   -0.46345  -0.45555  -0.45080  -0.44893  -0.44663
 Alpha  occ. eigenvalues --   -0.44145  -0.43678  -0.43232  -0.42725  -0.42062
 Alpha  occ. eigenvalues --   -0.41587  -0.40866  -0.40749  -0.40301  -0.40254
 Alpha  occ. eigenvalues --   -0.39828  -0.39465  -0.39268  -0.38464  -0.38347
 Alpha  occ. eigenvalues --   -0.38147  -0.37851  -0.37736  -0.37244  -0.36803
 Alpha  occ. eigenvalues --   -0.34553  -0.34112  -0.34075  -0.33871  -0.33312
 Alpha  occ. eigenvalues --   -0.29741  -0.27609  -0.27527  -0.27456  -0.26217
 Alpha  occ. eigenvalues --   -0.26119  -0.24303  -0.24027  -0.23243  -0.22761
 Alpha  occ. eigenvalues --   -0.21155  -0.20366
 Alpha virt. eigenvalues --   -0.08534  -0.02530  -0.01765  -0.01423   0.00567
 Alpha virt. eigenvalues --    0.00729   0.01170   0.03916   0.07314   0.08302
 Alpha virt. eigenvalues --    0.08464   0.09210   0.10011   0.10045   0.10764

 Mulliken charges:
               1
     1  C   -0.222065
     2  O   -0.502968
     3  C    0.396032
     4  C   -0.203467
     5  C   -0.132425
     6  C    0.205437
     7  N   -0.595279
     8  C    0.355830
     9  C   -0.526376
    10  C   -0.230396
    11  C   -0.182578
    12  C    0.327602
    13  C   -0.263394
    14  C   -0.018204
    15  C    0.587687
    16  O   -0.516365
    17  N   -0.652479
    18  C    0.358167
    19  S   -0.237846
    20  N   -0.619906
    21  C    0.200938
    22  C   -0.101541
    23  C   -0.145596
    24  C   -0.166077
    25  C    0.105904
    26  C   -0.532822
    27  C    0.175353
    28  C   -0.532351
    29  C    0.590522
    30  O   -0.502702
    31  C   -0.130618
    32  C   -0.183069
    33  H    0.163462
    34  H    0.155081
    35  H    0.177777
    36  H    0.146217
    37  H    0.153359
    38  H    0.177280
    39  H    0.173819
    40  H    0.177289
    41  H    0.138971
    42  H    0.208609
    43  H    0.203045
    44  H    0.365879
    45  H    0.134224
    46  H    0.128981
    47  H    0.120216
    48  H    0.160122
    49  H    0.153664
    50  H    0.163631
    51  H    0.158564
    52  H    0.164581
    53  H    0.165583
    54  H    0.151658
    55  H    0.153040
 Sum of Mulliken charges =  -0.00000

 Dipole moment (field-independent basis, Debye):
    X=             -7.8104    Y=              4.1636    Z=             -0.3670  Tot=              8.8585
 Quadrupole moment (field-independent basis, Debye-Ang):
   XX=           -179.6121   YY=           -184.6038   ZZ=           -180.2172
   XY=              9.5593   XZ=              7.2133   YZ=             -6.5761

 Normal termination of Gaussian 16 at Fri Nov  4 21:02:15 2022.
