 Gaussian 16, Revision B.01,
 Gaussian 16:  ES64L-G16RevB.01 20-Dec-2017

 -----------------------------
 #p b3lyp/6-31g(d) opt SCF=XQC
 -----------------------------

 ------------------------------
 Gaussian input prepared by ASE
 ------------------------------
 Symbolic Z-matrix:
 Charge =  0 Multiplicity = 1

 SCF Done:  E(RB3LYP) =  -1499.99840820     A.U. after   15 cycles
 SCF Done:  E(RB3LYP) =  -1500.00731690     A.U. after   13 cycles
 SCF Done:  E(RB3LYP) =  -1500.00902790     A.U. after   12 cycles
 SCF Done:  E(RB3LYP) =  -1500.00932711     A.U. after   12 cycles
 SCF Done:  E(RB3LYP) =  -1500.00956624     A.U. after   12 cycles
 SCF Done:  E(RB3LYP) =  -1500.00973722     A.U. after   11 cycles
 SCF Done:  E(RB3LYP) =  -1500.00974910     A.U. after   11 cycles
 SCF Done:  E(RB3LYP) =  -1500.00978387     A.U. after   10 cycles
 SCF Done:  E(RB3LYP) =  -1500.00979163     A.U. after   10 cycles
 SCF Done:  E(RB3LYP) =  -1500.00979847     A.U. after   10 cycles
 SCF Done:  E(RB3LYP) =  -1500.00980112     A.U. after    8 cycles
 SCF Done:  E(RB3LYP) =  -1500.00980216     A.U. after    9 cycles
 SCF Done:  E(RB3LYP) =  -1500.00980260     A.U. after    8 cycles
 SCF Done:  E(RB3LYP) =  -1500.00980279     A.U. after    7 cycles
 SCF Done:  E(RB3LYP) =  -1500.00980285     A.U. after    6 cycles
 SCF Done:  E(RB3LYP) =  -1500.00980288     A.U. after    6 cycles
 Optimization completed.
    -- Stationary point found.

                         Standard orientation:
 ---------------------------------------------------------------------
 Center     Atomic      Atomic             Coordinates (Angstroms)
 Number     Number       Type             X           Y           Z
 ---------------------------------------------------------------------
      1          6           0        0.655797   -3.071393   -0.150777
      2          6           0        0.544163   -1.538610   -0.110305
      3          6           0        1.625577   -0.898557   -1.008985
      4          7           0        3.038405   -1.134053   -0.632733
      5          6           0        3.938666   -1.629373   -1.710661
      6          6           0        4.863515   -2.770329   -1.263526
      7          6           0        4.714164   -0.487562   -2.391948
      8          8           0        3.866717    0.543165   -2.885767
      9          6           0        3.630956   -0.581571    0.478511
     10          8           0        4.855604   -0.542758    0.617842
     11          6           0        2.799114   -0.142080    1.671814
     12          6           0        2.971260   -0.934536    2.819095
     13          6           0        2.333046   -0.623416    4.015346
     14          6           0        1.531099    0.516929    4.090989
     15          6           0        1.380979    1.326280    2.968534
     16          6           0        2.002224    1.016661    1.744844
     17          6           0        1.819085    1.954982    0.596143
     18          6           0        2.922190    2.689443    0.134730
     19          6           0        2.784647    3.621733   -0.891337
     20          6           0        1.532828    3.837999   -1.468420
     21          6           0        0.435399    3.099555   -1.030904
     22          6           0        0.557920    2.147949   -0.010445
     23          6           0       -0.646440    1.276733    0.300498
     24          8           0       -0.904441    0.384391   -0.798996
     25          6           0       -0.851225   -1.035517   -0.575957
     26          6           0       -2.009589   -1.519618    0.329185
     27          7           0       -3.374145   -1.349672   -0.162875
     28          6           0       -3.669000   -2.090969   -1.380485
     29          6           0       -3.884224    0.019943   -0.184602
     30          6           0       -5.402883    0.084820   -0.137485
     31          6           0       -6.129367   -0.733230    0.738455
     32          6           0       -7.518079   -0.635325    0.816105
     33          6           0       -8.204245    0.285793    0.019870
     34          6           0       -7.490844    1.102630   -0.857592
     35          6           0       -6.100165    0.997481   -0.936238
     36          1           0        1.690753   -3.373160    0.042218
     37          1           0        0.370230   -3.465634   -1.135541
     38          1           0        0.029028   -3.559400    0.601330
     39          1           0        0.697943   -1.219412    0.924725
     40          1           0        1.453139    0.168518   -1.122587
     41          1           0        1.502932   -1.326360   -2.008654
     42          1           0        3.260266   -2.050386   -2.462607
     43          1           0        5.364590   -3.199162   -2.139551
     44          1           0        5.618215   -2.420046   -0.559347
     45          1           0        4.281708   -3.566522   -0.786891
     46          1           0        5.376547   -0.012754   -1.668119
     47          1           0        5.334637   -0.917417   -3.195248
     48          1           0        3.341302    0.177363   -3.614276
     49          1           0        3.620233   -1.803058    2.758806
     50          1           0        2.471381   -1.258810    4.885795
     51          1           0        1.038058    0.783253    5.022006
     52          1           0        0.784461    2.232800    3.031174
     53          1           0        3.892564    2.522858    0.593719
     54          1           0        3.651519    4.179135   -1.234572
     55          1           0        1.414231    4.570090   -2.262745
     56          1           0       -0.534828    3.241265   -1.501329
     57          1           0       -0.506458    0.728324    1.234192
     58          1           0       -1.538743    1.905158    0.415506
     59          1           0       -1.018176   -1.434116   -1.585418
     60          1           0       -1.873460   -2.590751    0.519105
     61          1           0       -1.937755   -1.021676    1.305110
     62          1           0       -3.191332   -1.675968   -2.287582
     63          1           0       -4.750081   -2.095435   -1.549740
     64          1           0       -3.340082   -3.130345   -1.266437
     65          1           0       -3.485505    0.524531    0.705495
     66          1           0       -3.520429    0.596202   -1.052714
     67          1           0       -5.591009   -1.455604    1.345643
     68          1           0       -8.067455   -1.277944    1.499797
     69          1           0       -9.286782    0.362114    0.080818
     70          1           0       -8.015440    1.817192   -1.486902
     71          1           0       -5.548472    1.631785   -1.627278
 ---------------------------------------------------------------------

 The electronic state is 1-A.
 Alpha  occ. eigenvalues --  -19.14624 -19.14200 -19.10650 -14.35985 -14.32374
 Alpha  occ. eigenvalues --  -10.28294 -10.23640 -10.23437 -10.22536 -10.22201
 Alpha  occ. eigenvalues --  -10.21337 -10.20900 -10.20637 -10.20585 -10.20372
 Alpha  occ. eigenvalues --  -10.19922 -10.19838 -10.19557 -10.19485 -10.19460
 Alpha  occ. eigenvalues --  -10.19444 -10.19402 -10.19377 -10.18807 -10.18735
 Alpha  occ. eigenvalues --  -10.18712 -10.18701 -10.18627 -10.18417 -10.18357
 Alpha  occ. eigenvalues --  -10.18295 -10.18214 -10.18178 -10.17858 -10.17284
 Alpha  occ. eigenvalues --   -1.02714  -1.02290  -1.01221  -0.92230  -0.91695
 Alpha  occ. eigenvalues --   -0.87063  -0.84773  -0.84472  -0.80808  -0.78059
 Alpha  occ. eigenvalues --   -0.77246  -0.76488  -0.75837  -0.75090  -0.73586
 Alpha  occ. eigenvalues --   -0.72636  -0.71991  -0.69552  -0.69137  -0.67921
 Alpha  occ. eigenvalues --   -0.67238  -0.64955  -0.63656  -0.62256  -0.60753
 Alpha  occ. eigenvalues --   -0.59981  -0.59444  -0.59232  -0.57960  -0.57006
 Alpha  occ. eigenvalues --   -0.55759  -0.54178  -0.51693  -0.51295  -0.50488
 Alpha  occ. eigenvalues --   -0.50105  -0.49653  -0.48832  -0.48232  -0.47351
 Alpha  occ. eigenvalues --   -0.46888  -0.46269  -0.45758  -0.45294  -0.45248
 Alpha  occ. eigenvalues --   -0.44554  -0.44256  -0.43651  -0.43295  -0.43088
 Alpha  occ. eigenvalues --   -0.42868  -0.42591  -0.41942  -0.41671  -0.41190
 Alpha  occ. eigenvalues --   -0.40992  -0.40597  -0.39972  -0.39674  -0.39167
 Alpha  occ. eigenvalues --   -0.38878  -0.38015  -0.37969  -0.37619  -0.37185
 Alpha  occ. eigenvalues --   -0.36796  -0.36673  -0.36268  -0.35795  -0.35515
 Alpha  occ. eigenvalues --   -0.35030  -0.34799  -0.34498  -0.34342  -0.34219
 Alpha  occ. eigenvalues --   -0.33365  -0.33256  -0.32855  -0.32832  -0.32134
 Alpha  occ. eigenvalues --   -0.29952  -0.27138  -0.26497  -0.26108  -0.25904
 Alpha  occ. eigenvalues --   -0.24410  -0.24299  -0.23959  -0.23684  -0.23171
 Alpha  occ. eigenvalues --   -0.22795  -0.20088
 Alpha virt. eigenvalues --   -0.02244  -0.01357  -0.00164   0.00346   0.00669
 Alpha virt. eigenvalues --    0.00930   0.02728   0.06138   0.08016   0.09014
 Alpha virt. eigenvalues --    0.09303   0.09783   0.10188   0.10458   0.10995

 Mulliken charges:
               1
     1  C   -0.468764
     2  C   -0.133771
     3  C   -0.148593
     4  N   -0.428621
     5  C    0.009899
     6  C   -0.464306
     7  C   -0.033434
     8  O   -0.610039
     9  C    0.512401
    10  O   -0.527362
    11  C    0.039118
    12  C   -0.157680
    13  C   -0.129396
    14  C   -0.128940
    15  C   -0.169905
    16  C    0.027043
    17  C   -0.011506
    18  C   -0.148594
    19  C   -0.118456
    20  C   -0.123414
    21  C   -0.168803
    22  C    0.104862
    23  C   -0.119827
    24  O   -0.496573
    25  C    0.147863
    26  C   -0.165148
    27  N   -0.371783
    28  C   -0.310386
    29  C   -0.197684
    30  C    0.144071
    31  C   -0.163793
    32  C   -0.131068
    33  C   -0.130249
    34  C   -0.128606
    35  C   -0.188090
    36  H    0.160439
    37  H    0.137240
    38  H    0.152888
    39  H    0.151603
    40  H    0.209129
    41  H    0.130657
    42  H    0.119796
    43  H    0.137487
    44  H    0.195275
    45  H    0.146617
    46  H    0.188342
    47  H    0.114953
    48  H    0.383687
    49  H    0.147827
    50  H    0.134750
    51  H    0.134543
    52  H    0.137708
    53  H    0.153573
    54  H    0.135965
    55  H    0.130018
    56  H    0.132282
    57  H    0.148251
    58  H    0.140753
    59  H    0.129643
    60  H    0.142470
    61  H    0.140659
    62  H    0.126543
    63  H    0.165111
    64  H    0.141929
    65  H    0.146485
    66  H    0.138633
    67  H    0.135169
    68  H    0.126041
    69  H    0.125601
    70  H    0.125967
    71  H    0.121501
 Sum of Mulliken charges =  -0.00000

 Dipole moment (field-independent basis, Debye):
    X=             -1.7241    Y=             -1.5134    Z=             -1.0535  Tot=              2.5244
 Quadrupole moment (field-independent basis, Debye-Ang):
   XX=           -224.8143   YY=           -198.6781   ZZ=           -192.1881
   XY=             -6.2761   XZ=             -6.8818   YZ=              0.3034

 Normal termination of Gaussian 16 at Fri Nov  4 08:21:50 2022.
