 Gaussian 16, Revision B.01,
 Gaussian 16:  ES64L-G16RevB.01 20-Dec-2017

 -------------------------------------------------------------------
 #p b3lyp/6-31g(d) 6D 10F nosymm GFInput td=(50-50,nstate=2) SCF=XQC
 -------------------------------------------------------------------

 ------------------------------
 Gaussian input prepared by ASE
 ------------------------------
 Symbolic Z-matrix:
 Charge =  0 Multiplicity = 1

                          Input orientation:
 ---------------------------------------------------------------------
 Center     Atomic      Atomic             Coordinates (Angstroms)
 Number     Number       Type             X           Y           Z
 ---------------------------------------------------------------------
      1          6           0       -0.081008    2.429743    1.713099
      2          6           0       -0.320010    1.236504    0.773640
      3          6           0       -1.172351    1.671581   -0.439196
      4          7           0       -2.546208    2.148341   -0.159331
      5          6           0       -2.930500    3.455562   -0.760356
      6          6           0       -3.681361    4.380572    0.207952
      7          6           0       -3.676786    3.285389   -2.095789
      8          8           0       -2.958985    2.496466   -3.037481
      9          6           0       -3.564042    1.326463    0.264637
     10          8           0       -4.747997    1.666909    0.209621
     11          6           0       -3.267478    0.019835    0.981475
     12          6           0       -3.619297    0.014561    2.341648
     13          6           0       -3.474989   -1.128286    3.121523
     14          6           0       -3.002976   -2.305035    2.536977
     15          6           0       -2.682994   -2.318260    1.182382
     16          6           0       -2.803264   -1.167132    0.382590
     17          6           0       -2.472179   -1.272550   -1.070946
     18          6           0       -3.503211   -1.147659   -2.014637
     19          6           0       -3.251765   -1.301656   -3.376237
     20          6           0       -1.958994   -1.591151   -3.814166
     21          6           0       -0.924788   -1.697445   -2.886701
     22          6           0       -1.156430   -1.531527   -1.515309
     23          6           0        0.045155   -1.507182   -0.586984
     24          8           0        0.823182   -0.319119   -0.821300
     25          6           0        1.008525    0.619778    0.252403
     26          6           0        1.896411    0.037954    1.378717
     27          7           0        3.276397   -0.307007    1.047566
     28          6           0        4.093397    0.823418    0.630813
     29          6           0        3.460283   -1.490505    0.209701
     30          6           0        4.834617   -2.120952    0.372478
     31          6           0        5.404458   -2.282041    1.642749
     32          6           0        6.641968   -2.906616    1.793117
     33          6           0        7.329996   -3.383837    0.674122
     34          6           0        6.772986   -3.225777   -0.595075
     35          6           0        5.535530   -2.594578   -0.741774
     36          1           0       -1.033499    2.921196    1.938222
     37          1           0        0.579161    3.175491    1.249666
     38          1           0        0.364969    2.132365    2.666685
     39          1           0       -0.858195    0.469237    1.337982
     40          1           0       -1.206355    0.886808   -1.190372
     41          1           0       -0.650788    2.510164   -0.910519
     42          1           0       -1.975286    3.944906   -0.986210
     43          1           0       -3.774994    5.377923   -0.238050
     44          1           0       -4.676761    3.998424    0.434401
     45          1           0       -3.123541    4.483319    1.144906
     46          1           0       -4.619863    2.766530   -1.923996
     47          1           0       -3.903532    4.285855   -2.499160
     48          1           0       -2.164402    2.987803   -3.297912
     49          1           0       -4.013232    0.926307    2.780584
     50          1           0       -3.741718   -1.104294    4.174530
     51          1           0       -2.899250   -3.210966    3.128026
     52          1           0       -2.346435   -3.240140    0.715049
     53          1           0       -4.509244   -0.930653   -1.666998
     54          1           0       -4.063878   -1.199950   -4.090452
     55          1           0       -1.755367   -1.722438   -4.873540
     56          1           0        0.090073   -1.889569   -3.227095
     57          1           0       -0.261798   -1.582631    0.458109
     58          1           0        0.698191   -2.362190   -0.803440
     59          1           0        1.567849    1.426192   -0.240159
     60          1           0        1.940686    0.769044    2.194484
     61          1           0        1.414238   -0.857408    1.792686
     62          1           0        3.849913    1.208117   -0.377126
     63          1           0        5.146791    0.527224    0.625147
     64          1           0        3.976726    1.644802    1.347201
     65          1           0        2.701811   -2.222329    0.517942
     66          1           0        3.275029   -1.288463   -0.859364
     67          1           0        4.870116   -1.897894    2.507180
     68          1           0        7.071306   -3.022855    2.785268
     69          1           0        8.294534   -3.870948    0.791654
     70          1           0        7.303290   -3.586557   -1.472826
     71          1           0        5.108163   -2.467188   -1.734433
 ---------------------------------------------------------------------

 SCF Done:  E(RB3LYP) =  -1500.00979475     A.U. after   15 cycles

 Excitation energies and oscillator strengths:

 Excited state symmetry could not be determined.
 Excited State   1:      Triplet-?Sym    3.5336 eV  350.87 nm  f=0.0000  <S**2>=2.000
     118 ->130        -0.10772
     119 ->133        -0.21613
     120 ->128        -0.12522
     120 ->129         0.10400
     121 ->130         0.22794
     123 ->128        -0.13080
     123 ->129        -0.28381
     125 ->128         0.38077
     126 ->128        -0.17359
     126 ->129         0.10009
     126 ->130         0.12386
 This state for optimization and/or second-order correction.
 Total Energy, E(TD-HF/TD-DFT) =  -1499.87993639
 Copying the excited state density for this state as the 1-particle RhoCI density.

 Excited state symmetry could not be determined.
 Excited State   2:      Triplet-?Sym    3.7018 eV  334.93 nm  f=0.0000  <S**2>=2.000
     118 ->128        -0.13876
     119 ->128         0.19253
     119 ->129         0.22149
     120 ->128         0.10935
     120 ->130        -0.11932
     121 ->128         0.19490
     121 ->129        -0.15303
     121 ->130         0.27573
     123 ->130         0.11203
     123 ->133         0.21867
     125 ->130         0.15620
     125 ->133        -0.20871
     126 ->128         0.17015
     126 ->129        -0.17118

 Excited state symmetry could not be determined.
 Excited State   3:      Singlet-?Sym    4.3573 eV  284.54 nm  f=0.0018  <S**2>=0.000
     127 ->128         0.69922

 Excited state symmetry could not be determined.
 Excited State   4:      Singlet-?Sym    4.6154 eV  268.63 nm  f=0.0004  <S**2>=0.000
     127 ->129         0.69889

 Alpha  occ. eigenvalues --  -19.14624 -19.14200 -19.10650 -14.35985 -14.32374
 Alpha  occ. eigenvalues --  -10.28294 -10.23640 -10.23437 -10.22536 -10.22201
 Alpha  occ. eigenvalues --  -10.21337 -10.20900 -10.20637 -10.20585 -10.20372
 Alpha  occ. eigenvalues --  -10.19922 -10.19838 -10.19557 -10.19485 -10.19460
 Alpha  occ. eigenvalues --  -10.19444 -10.19402 -10.19377 -10.18807 -10.18735
 Alpha  occ. eigenvalues --  -10.18712 -10.18701 -10.18627 -10.18417 -10.18357
 Alpha  occ. eigenvalues --  -10.18295 -10.18214 -10.18178 -10.17858 -10.17284
 Alpha  occ. eigenvalues --   -1.02714  -1.02290  -1.01221  -0.92230  -0.91695
 Alpha  occ. eigenvalues --   -0.87063  -0.84773  -0.84472  -0.80808  -0.78059
 Alpha  occ. eigenvalues --   -0.77246  -0.76489  -0.75837  -0.75090  -0.73587
 Alpha  occ. eigenvalues --   -0.72636  -0.71991  -0.69552  -0.69137  -0.67921
 Alpha  occ. eigenvalues --   -0.67238  -0.64955  -0.63656  -0.62256  -0.60753
 Alpha  occ. eigenvalues --   -0.59981  -0.59444  -0.59232  -0.57960  -0.57006
 Alpha  occ. eigenvalues --   -0.55759  -0.54178  -0.51693  -0.51295  -0.50488
 Alpha  occ. eigenvalues --   -0.50105  -0.49653  -0.48832  -0.48232  -0.47351
 Alpha  occ. eigenvalues --   -0.46888  -0.46269  -0.45758  -0.45294  -0.45248
 Alpha  occ. eigenvalues --   -0.44554  -0.44256  -0.43651  -0.43295  -0.43088
 Alpha  occ. eigenvalues --   -0.42868  -0.42591  -0.41942  -0.41671  -0.41190
 Alpha  occ. eigenvalues --   -0.40992  -0.40597  -0.39972  -0.39674  -0.39167
 Alpha  occ. eigenvalues --   -0.38878  -0.38015  -0.37969  -0.37619  -0.37185
 Alpha  occ. eigenvalues --   -0.36796  -0.36673  -0.36268  -0.35795  -0.35515
 Alpha  occ. eigenvalues --   -0.35030  -0.34799  -0.34498  -0.34342  -0.34219
 Alpha  occ. eigenvalues --   -0.33365  -0.33256  -0.32855  -0.32832  -0.32134
 Alpha  occ. eigenvalues --   -0.29952  -0.27137  -0.26497  -0.26108  -0.25904
 Alpha  occ. eigenvalues --   -0.24410  -0.24299  -0.23959  -0.23684  -0.23171
 Alpha  occ. eigenvalues --   -0.22795  -0.20088
 Alpha virt. eigenvalues --   -0.02244  -0.01357  -0.00164   0.00346   0.00669
 Alpha virt. eigenvalues --    0.00930   0.02728   0.06138   0.08016   0.09014
 Alpha virt. eigenvalues --    0.09303   0.09782   0.10188   0.10458   0.10995

 Mulliken charges:
               1
     1  C   -0.468771
     2  C   -0.133790
     3  C   -0.148588
     4  N   -0.428618
     5  C    0.009896
     6  C   -0.464292
     7  C   -0.033441
     8  O   -0.610039
     9  C    0.512416
    10  O   -0.527384
    11  C    0.039121
    12  C   -0.157661
    13  C   -0.129404
    14  C   -0.128935
    15  C   -0.169918
    16  C    0.027033
    17  C   -0.011469
    18  C   -0.148624
    19  C   -0.118438
    20  C   -0.123421
    21  C   -0.168779
    22  C    0.104830
    23  C   -0.119821
    24  O   -0.496569
    25  C    0.147866
    26  C   -0.165151
    27  N   -0.371769
    28  C   -0.310384
    29  C   -0.197699
    30  C    0.144092
    31  C   -0.163806
    32  C   -0.131070
    33  C   -0.130236
    34  C   -0.128613
    35  C   -0.188102
    36  H    0.160439
    37  H    0.137243
    38  H    0.152892
    39  H    0.151609
    40  H    0.209133
    41  H    0.130657
    42  H    0.119798
    43  H    0.137484
    44  H    0.195273
    45  H    0.146613
    46  H    0.188345
    47  H    0.114955
    48  H    0.383682
    49  H    0.147830
    50  H    0.134750
    51  H    0.134543
    52  H    0.137709
    53  H    0.153570
    54  H    0.135966
    55  H    0.130018
    56  H    0.132280
    57  H    0.148248
    58  H    0.140752
    59  H    0.129643
    60  H    0.142468
    61  H    0.140661
    62  H    0.126542
    63  H    0.165111
    64  H    0.141929
    65  H    0.146485
    66  H    0.138636
    67  H    0.135167
    68  H    0.126041
    69  H    0.125600
    70  H    0.125968
    71  H    0.121501
 Sum of Mulliken charges =  -0.00000

 Dipole moment (field-independent basis, Debye):
    X=              2.2516    Y=              1.0829    Z=              0.3615  Tot=              2.5245
 Quadrupole moment (field-independent basis, Debye-Ang):
   XX=           -227.6386   YY=           -193.9240   ZZ=           -195.3351
   XY=              2.9617   XZ=             -3.7285   YZ=             -3.3184

 Normal termination of Gaussian 16 at Sat Nov  5 12:33:36 2022.
