 Gaussian 16, Revision B.01,
 Gaussian 16:  ES64L-G16RevB.01 20-Dec-2017

 -----------------------------
 #p b3lyp/6-31g(d) opt SCF=XQC
 -----------------------------

 ------------------------------
 Gaussian input prepared by ASE
 ------------------------------
 Symbolic Z-matrix:
 Charge =  0 Multiplicity = 1

 SCF Done:  E(RB3LYP) =  -1284.23875574     A.U. after   15 cycles
 SCF Done:  E(RB3LYP) =  -1284.24249098     A.U. after   12 cycles
 SCF Done:  E(RB3LYP) =  -1284.24276128     A.U. after   11 cycles
 SCF Done:  E(RB3LYP) =  -1284.24280861     A.U. after   10 cycles
 SCF Done:  E(RB3LYP) =  -1284.24283848     A.U. after   10 cycles
 SCF Done:  E(RB3LYP) =  -1284.24284453     A.U. after    9 cycles
 SCF Done:  E(RB3LYP) =  -1284.24284826     A.U. after    8 cycles
 SCF Done:  E(RB3LYP) =  -1284.24285057     A.U. after    9 cycles
 SCF Done:  E(RB3LYP) =  -1284.24285142     A.U. after    9 cycles
 SCF Done:  E(RB3LYP) =  -1284.24285185     A.U. after    8 cycles
 SCF Done:  E(RB3LYP) =  -1284.24285206     A.U. after    7 cycles
 SCF Done:  E(RB3LYP) =  -1284.24285224     A.U. after    7 cycles
 SCF Done:  E(RB3LYP) =  -1284.24285229     A.U. after    7 cycles
 Optimization completed.
    -- Stationary point found.

                         Standard orientation:
 ---------------------------------------------------------------------
 Center     Atomic      Atomic             Coordinates (Angstroms)
 Number     Number       Type             X           Y           Z
 ---------------------------------------------------------------------
      1          6           0       -5.684712    3.183880    0.807168
      2          8           0       -6.094061    1.847524    0.560731
      3          6           0       -5.133885    0.929373    0.266872
      4          6           0       -3.769619    1.189161    0.194724
      5          6           0       -2.856093    0.162580   -0.129668
      6          6           0       -1.412932    0.392313   -0.226266
      7          6           0       -0.754327    1.558520   -0.080968
      8          6           0        0.710113    1.769592   -0.243896
      9          8           0        1.142451    2.864112   -0.597894
     10          7           0        1.501754    0.672643    0.032231
     11          6           0        2.904807    0.536033   -0.072597
     12          6           0        3.723897    1.546208   -0.604436
     13          6           0        5.096298    1.360161   -0.697049
     14          6           0        5.690642    0.167930   -0.267464
     15          8           0        7.047727    0.089887   -0.429534
     16          6           0        7.777940   -1.057399    0.032944
     17          6           0        9.091387   -1.048076   -0.742176
     18          6           0        7.991172   -0.990620    1.546435
     19          6           0        4.875495   -0.836602    0.264274
     20          6           0        3.488732   -0.669406    0.366972
     21          6           0        2.647799   -1.784682    0.947158
     22          6           0       -3.341077   -1.129451   -0.357050
     23          6           0       -4.708151   -1.397954   -0.275906
     24          6           0       -5.616582   -0.376924    0.019641
     25          8           0       -6.967642   -0.587826    0.085740
     26          6           0       -7.382197   -1.818202   -0.508095
     27          6           0       -6.462751   -2.946491   -0.069661
     28          8           0       -5.127379   -2.686650   -0.502901
     29          1           0       -5.180140    3.618314   -0.065772
     30          1           0       -5.018974    3.247581    1.677934
     31          1           0       -6.600517    3.741412    1.010690
     32          1           0       -3.403715    2.190080    0.382626
     33          1           0       -0.839234   -0.502214   -0.470940
     34          1           0       -1.286378    2.491850    0.079405
     35          1           0        1.019984   -0.108329    0.450649
     36          1           0        3.270177    2.470810   -0.931766
     37          1           0        5.731165    2.138447   -1.108858
     38          1           0        7.219402   -1.966816   -0.229304
     39          1           0        9.710418   -1.905553   -0.456789
     40          1           0        8.902746   -1.095311   -1.818985
     41          1           0        9.650790   -0.130285   -0.530892
     42          1           0        8.540930   -1.872296    1.895506
     43          1           0        8.570865   -0.097195    1.803193
     44          1           0        7.039894   -0.944855    2.084900
     45          1           0        5.301523   -1.771205    0.611552
     46          1           0        3.272789   -2.636826    1.228414
     47          1           0        2.106813   -1.470530    1.851170
     48          1           0        1.901037   -2.157013    0.231060
     49          1           0       -2.669604   -1.948236   -0.596797
     50          1           0       -8.410047   -1.986805   -0.176863
     51          1           0       -7.366575   -1.725252   -1.602695
     52          1           0       -6.753386   -3.898120   -0.522244
     53          1           0       -6.486741   -3.046202    1.024326
 ---------------------------------------------------------------------

 The electronic state is 1-A.
 Alpha  occ. eigenvalues --  -19.18680 -19.18625 -19.18218 -19.16262 -19.10627
 Alpha  occ. eigenvalues --  -14.36565 -10.28435 -10.25691 -10.25645 -10.25540
 Alpha  occ. eigenvalues --  -10.25246 -10.25106 -10.24392 -10.24347 -10.23461
 Alpha  occ. eigenvalues --  -10.21970 -10.20870 -10.20522 -10.19557 -10.19365
 Alpha  occ. eigenvalues --  -10.19336 -10.19104 -10.19017 -10.18025 -10.17776
 Alpha  occ. eigenvalues --  -10.17722 -10.17286 -10.17206  -1.09398  -1.07020
 Alpha  occ. eigenvalues --   -1.05319  -1.04839  -1.02427  -0.93087  -0.86432
 Alpha  occ. eigenvalues --   -0.84137  -0.80829  -0.79088  -0.77416  -0.76316
 Alpha  occ. eigenvalues --   -0.76197  -0.72953  -0.71567  -0.70527  -0.69130
 Alpha  occ. eigenvalues --   -0.68896  -0.68122  -0.64317  -0.62146  -0.60269
 Alpha  occ. eigenvalues --   -0.59366  -0.58460  -0.56912  -0.55122  -0.54802
 Alpha  occ. eigenvalues --   -0.53592  -0.52791  -0.52415  -0.51887  -0.50129
 Alpha  occ. eigenvalues --   -0.47514  -0.47355  -0.47022  -0.46509  -0.45736
 Alpha  occ. eigenvalues --   -0.45524  -0.45406  -0.44447  -0.43711  -0.43042
 Alpha  occ. eigenvalues --   -0.42480  -0.41829  -0.41706  -0.41235  -0.40567
 Alpha  occ. eigenvalues --   -0.40289  -0.40192  -0.39970  -0.39568  -0.39387
 Alpha  occ. eigenvalues --   -0.38896  -0.38226  -0.37706  -0.37019  -0.36545
 Alpha  occ. eigenvalues --   -0.36261  -0.35153  -0.35036  -0.34396  -0.34002
 Alpha  occ. eigenvalues --   -0.33598  -0.32838  -0.31871  -0.31045  -0.30477
 Alpha  occ. eigenvalues --   -0.27063  -0.26761  -0.24270  -0.23735  -0.22310
 Alpha  occ. eigenvalues --   -0.20580  -0.18760
 Alpha virt. eigenvalues --   -0.05194   0.00801   0.01062   0.01610   0.04638
 Alpha virt. eigenvalues --    0.07020   0.07147   0.09147   0.09348   0.09652
 Alpha virt. eigenvalues --    0.10448   0.10565   0.11496   0.12331   0.12700

 Mulliken charges:
               1
     1  C   -0.216609
     2  O   -0.504301
     3  C    0.340550
     4  C   -0.274270
     5  C    0.182161
     6  C   -0.175237
     7  C   -0.211271
     8  C    0.606452
     9  O   -0.519129
    10  N   -0.746579
    11  C    0.286522
    12  C   -0.162434
    13  C   -0.200516
    14  C    0.400435
    15  O   -0.540307
    16  C    0.142085
    17  C   -0.449455
    18  C   -0.458106
    19  C   -0.273714
    20  C    0.142954
    21  C   -0.566000
    22  C   -0.276599
    23  C    0.349556
    24  C    0.276313
    25  O   -0.509475
    26  C   -0.061061
    27  C   -0.061354
    28  O   -0.527624
    29  H    0.156824
    30  H    0.154929
    31  H    0.173323
    32  H    0.138898
    33  H    0.129287
    34  H    0.152718
    35  H    0.334460
    36  H    0.187786
    37  H    0.136044
    38  H    0.129146
    39  H    0.142682
    40  H    0.159197
    41  H    0.157064
    42  H    0.142749
    43  H    0.157203
    44  H    0.159322
    45  H    0.123709
    46  H    0.165670
    47  H    0.163254
    48  H    0.159233
    49  H    0.136050
    50  H    0.162636
    51  H    0.162414
    52  H    0.161433
    53  H    0.160982
 Sum of Mulliken charges =  -0.00000

 Dipole moment (field-independent basis, Debye):
    X=             -2.8718    Y=             -4.5533    Z=              1.8121  Tot=              5.6801
 Quadrupole moment (field-independent basis, Debye-Ang):
   XX=           -129.6948   YY=           -155.6876   ZZ=           -165.7034
   XY=             -7.5159   XZ=              5.4886   YZ=              2.6420

 Normal termination of Gaussian 16 at Fri Nov  4 20:50:52 2022.
