 Gaussian 16, Revision B.01,
 Gaussian 16:  ES64L-G16RevB.01 20-Dec-2017

 -------------------------------------------------------------------
 #p b3lyp/6-31g(d) 6D 10F nosymm GFInput td=(50-50,nstate=2) SCF=XQC
 -------------------------------------------------------------------

 ------------------------------
 Gaussian input prepared by ASE
 ------------------------------
 Symbolic Z-matrix:
 Charge =  0 Multiplicity = 1

                          Input orientation:
 ---------------------------------------------------------------------
 Center     Atomic      Atomic             Coordinates (Angstroms)
 Number     Number       Type             X           Y           Z
 ---------------------------------------------------------------------
      1          6           0       -6.307422   -1.203560    2.967473
      2          8           0       -6.658285   -0.477576    1.799574
      3          6           0       -5.652100    0.017126    1.028758
      4          6           0       -4.294009   -0.136491    1.285479
      5          6           0       -3.328672    0.428273    0.423623
      6          6           0       -1.889008    0.300108    0.659762
      7          6           0       -1.276302   -0.297477    1.700145
      8          6           0        0.191257   -0.359325    1.941236
      9          8           0        0.627623   -0.443644    3.086958
     10          7           0        0.980440   -0.320210    0.809026
     11          6           0        2.390094   -0.311831    0.704081
     12          6           0        3.230235   -0.238651    1.827924
     13          6           0        4.609463   -0.221854    1.672617
     14          6           0        5.190199   -0.274566    0.400151
     15          8           0        6.558040   -0.228179    0.370218
     16          6           0        7.269777   -0.340169   -0.872462
     17          6           0        8.649795    0.253859   -0.610318
     18          6           0        7.337668   -1.798769   -1.329036
     19          6           0        4.353852   -0.349959   -0.718390
     20          6           0        2.959848   -0.368362   -0.584119
     21          6           0        2.096032   -0.448775   -1.823062
     22          6           0       -3.757710    1.128665   -0.708469
     23          6           0       -5.119227    1.277117   -0.976429
     24          6           0       -6.076636    0.740721   -0.109974
     25          8           0       -7.422233    0.882038   -0.318805
     26          6           0       -7.748173    1.897197   -1.268297
     27          6           0       -6.846312    1.782833   -2.486579
     28          8           0       -5.482942    1.969626   -2.106101
     29          1           0       -5.733801   -0.584532    3.669692
     30          1           0       -5.728521   -2.104096    2.723740
     31          1           0       -7.251944   -1.495101    3.429906
     32          1           0       -3.972506   -0.689112    2.158563
     33          1           0       -1.272684    0.778289   -0.102250
     34          1           0       -1.844198   -0.714116    2.527072
     35          1           0        0.480990   -0.398272   -0.063642
     36          1           0        2.786485   -0.203915    2.812695
     37          1           0        5.260724   -0.163921    2.539147
     38          1           0        6.761285    0.269458   -1.632441
     39          1           0        9.260349    0.219393   -1.519135
     40          1           0        8.564729    1.295106   -0.284891
     41          1           0        9.163743   -0.311058    0.174946
     42          1           0        7.873879   -1.877799   -2.281753
     43          1           0        7.868131   -2.399863   -0.582396
     44          1           0        6.339027   -2.225479   -1.461709
     45          1           0        4.768410   -0.397247   -1.719135
     46          1           0        2.712772   -0.481777   -2.725507
     47          1           0        1.464581   -1.348656   -1.832136
     48          1           0        1.429605    0.420284   -1.921511
     49          1           0       -3.046430    1.566912   -1.401855
     50          1           0       -8.798145    1.744802   -1.530884
     51          1           0       -7.631767    2.887429   -0.806863
     52          1           0       -7.069184    2.558811   -3.223522
     53          1           0       -6.970821    0.796293   -2.954083
 ---------------------------------------------------------------------

 SCF Done:  E(RB3LYP) =  -1284.24285548     A.U. after   15 cycles

 Excitation energies and oscillator strengths:

 Excited state symmetry could not be determined.
 Excited State   1:      Triplet-?Sym    2.4656 eV  502.86 nm  f=0.0000  <S**2>=2.000
      97 ->103        -0.17127
     100 ->105         0.10142
     101 ->103         0.54625
     101 ->106         0.10684
     102 ->103         0.36856
 This state for optimization and/or second-order correction.
 Total Energy, E(TD-HF/TD-DFT) =  -1284.15224647
 Copying the excited state density for this state as the 1-particle RhoCI density.

 Excited state symmetry could not be determined.
 Excited State   2:      Triplet-?Sym    2.8735 eV  431.48 nm  f=0.0000  <S**2>=2.000
     101 ->103        -0.34861
     102 ->103         0.54818
     102 ->106        -0.20162

 Excited state symmetry could not be determined.
 Excited State   3:      Singlet-?Sym    3.2551 eV  380.90 nm  f=0.3450  <S**2>=0.000
     102 ->103         0.70595

 Excited state symmetry could not be determined.
 Excited State   4:      Singlet-?Sym    3.9459 eV  314.21 nm  f=0.4540  <S**2>=0.000
      98 ->103         0.19434
     101 ->103         0.65675

 Alpha  occ. eigenvalues --  -19.18680 -19.18625 -19.18218 -19.16262 -19.10627
 Alpha  occ. eigenvalues --  -14.36565 -10.28435 -10.25691 -10.25645 -10.25540
 Alpha  occ. eigenvalues --  -10.25246 -10.25106 -10.24392 -10.24347 -10.23461
 Alpha  occ. eigenvalues --  -10.21970 -10.20870 -10.20522 -10.19557 -10.19365
 Alpha  occ. eigenvalues --  -10.19336 -10.19104 -10.19018 -10.18025 -10.17776
 Alpha  occ. eigenvalues --  -10.17722 -10.17286 -10.17206  -1.09398  -1.07020
 Alpha  occ. eigenvalues --   -1.05319  -1.04839  -1.02427  -0.93087  -0.86433
 Alpha  occ. eigenvalues --   -0.84137  -0.80829  -0.79088  -0.77416  -0.76316
 Alpha  occ. eigenvalues --   -0.76197  -0.72953  -0.71567  -0.70527  -0.69130
 Alpha  occ. eigenvalues --   -0.68896  -0.68122  -0.64317  -0.62146  -0.60269
 Alpha  occ. eigenvalues --   -0.59366  -0.58460  -0.56913  -0.55122  -0.54802
 Alpha  occ. eigenvalues --   -0.53592  -0.52791  -0.52415  -0.51887  -0.50129
 Alpha  occ. eigenvalues --   -0.47514  -0.47355  -0.47022  -0.46509  -0.45736
 Alpha  occ. eigenvalues --   -0.45524  -0.45406  -0.44447  -0.43711  -0.43042
 Alpha  occ. eigenvalues --   -0.42480  -0.41829  -0.41706  -0.41235  -0.40567
 Alpha  occ. eigenvalues --   -0.40289  -0.40192  -0.39970  -0.39568  -0.39387
 Alpha  occ. eigenvalues --   -0.38896  -0.38226  -0.37706  -0.37019  -0.36545
 Alpha  occ. eigenvalues --   -0.36261  -0.35153  -0.35036  -0.34396  -0.34002
 Alpha  occ. eigenvalues --   -0.33598  -0.32838  -0.31871  -0.31045  -0.30477
 Alpha  occ. eigenvalues --   -0.27063  -0.26761  -0.24270  -0.23735  -0.22310
 Alpha  occ. eigenvalues --   -0.20580  -0.18760
 Alpha virt. eigenvalues --   -0.05194   0.00801   0.01062   0.01610   0.04638
 Alpha virt. eigenvalues --    0.07020   0.07147   0.09147   0.09348   0.09652
 Alpha virt. eigenvalues --    0.10448   0.10565   0.11496   0.12331   0.12700

 Mulliken charges:
               1
     1  C   -0.216605
     2  O   -0.504298
     3  C    0.340541
     4  C   -0.274257
     5  C    0.182149
     6  C   -0.175249
     7  C   -0.211263
     8  C    0.606438
     9  O   -0.519123
    10  N   -0.746570
    11  C    0.286509
    12  C   -0.162422
    13  C   -0.200520
    14  C    0.400430
    15  O   -0.540301
    16  C    0.142085
    17  C   -0.449453
    18  C   -0.458111
    19  C   -0.273712
    20  C    0.142953
    21  C   -0.566003
    22  C   -0.276581
    23  C    0.349560
    24  C    0.276297
    25  O   -0.509475
    26  C   -0.061056
    27  C   -0.061359
    28  O   -0.527626
    29  H    0.156823
    30  H    0.154928
    31  H    0.173323
    32  H    0.138898
    33  H    0.129291
    34  H    0.152717
    35  H    0.334460
    36  H    0.187786
    37  H    0.136046
    38  H    0.129146
    39  H    0.142682
    40  H    0.159197
    41  H    0.157063
    42  H    0.142750
    43  H    0.157205
    44  H    0.159323
    45  H    0.123708
    46  H    0.165671
    47  H    0.163255
    48  H    0.159234
    49  H    0.136050
    50  H    0.162636
    51  H    0.162414
    52  H    0.161433
    53  H    0.160982
 Sum of Mulliken charges =  -0.00000

 Dipole moment (field-independent basis, Debye):
    X=             -2.9153    Y=              0.1376    Z=             -4.8728  Tot=              5.6800
 Quadrupole moment (field-independent basis, Debye-Ang):
   XX=           -127.7932   YY=           -161.9913   ZZ=           -160.3568
   XY=             -6.0885   XZ=             -7.8345   YZ=             -4.6892

 Normal termination of Gaussian 16 at Sat Nov  5 12:17:23 2022.
