 Gaussian 16, Revision B.01,
 Gaussian 16:  ES64L-G16RevB.01 20-Dec-2017

 -----------------------------
 #p b3lyp/6-31g(d) opt SCF=XQC
 -----------------------------

 ------------------------------
 Gaussian input prepared by ASE
 ------------------------------
 Symbolic Z-matrix:
 Charge =  0 Multiplicity = 1

 SCF Done:  E(RB3LYP) =  -1579.26020508     A.U. after   15 cycles
 SCF Done:  E(RB3LYP) =  -1579.26717994     A.U. after   13 cycles
 SCF Done:  E(RB3LYP) =  -1579.26805964     A.U. after   12 cycles
 SCF Done:  E(RB3LYP) =  -1579.26838443     A.U. after   11 cycles
 SCF Done:  E(RB3LYP) =  -1579.26846008     A.U. after   11 cycles
 SCF Done:  E(RB3LYP) =  -1579.26849692     A.U. after   10 cycles
 SCF Done:  E(RB3LYP) =  -1579.26851945     A.U. after   10 cycles
 SCF Done:  E(RB3LYP) =  -1579.26854008     A.U. after   11 cycles
 SCF Done:  E(RB3LYP) =  -1579.26855531     A.U. after   10 cycles
 SCF Done:  E(RB3LYP) =  -1579.26856670     A.U. after   10 cycles
 SCF Done:  E(RB3LYP) =  -1579.26883928     A.U. after   11 cycles
 SCF Done:  E(RB3LYP) =  -1579.26883185     A.U. after   11 cycles
 SCF Done:  E(RB3LYP) =  -1579.26884192     A.U. after   11 cycles
 SCF Done:  E(RB3LYP) =  -1579.26884216     A.U. after   10 cycles
 SCF Done:  E(RB3LYP) =  -1579.26884271     A.U. after    9 cycles
 SCF Done:  E(RB3LYP) =  -1579.26884271     A.U. after    8 cycles
 SCF Done:  E(RB3LYP) =  -1579.26884288     A.U. after    9 cycles
 SCF Done:  E(RB3LYP) =  -1579.26884292     A.U. after    7 cycles
 SCF Done:  E(RB3LYP) =  -1579.26884293     A.U. after    6 cycles
 SCF Done:  E(RB3LYP) =  -1579.26884294     A.U. after    6 cycles
 Optimization completed.
    -- Stationary point found.

                         Standard orientation:
 ---------------------------------------------------------------------
 Center     Atomic      Atomic             Coordinates (Angstroms)
 Number     Number       Type             X           Y           Z
 ---------------------------------------------------------------------
      1          8           0        1.431793   -2.719867   -2.049230
      2          6           0        1.682894   -2.507446   -0.866927
      3          6           0        2.911783   -1.721136   -0.413918
      4          6           0        4.028316   -1.805875   -1.457456
      5          6           0        5.140016   -0.850301   -1.181888
      6          7           0        5.161219    0.169837   -0.375612
      7          6           0        6.433113    0.678538   -0.567851
      8          6           0        6.937820    1.860373    0.139668
      9          6           0        8.232797    2.350867   -0.078212
     10          6           0        8.646157    3.474975    0.626627
     11          6           0        7.753455    4.068785    1.523054
     12          7           0        6.513552    3.615579    1.744640
     13          6           0        6.124111    2.534356    1.062190
     14          7           0        7.156358    0.010601   -1.438357
     15          8           0        6.294243   -1.017826   -1.852934
     16          7           0        0.868473   -2.949675    0.136131
     17          6           0       -0.379740   -3.648638   -0.154252
     18          6           0       -0.956358   -4.265689    1.121112
     19          6           0       -1.890577   -3.191993    1.682820
     20          8           0       -2.313560   -3.152574    2.825943
     21          7           0       -2.167110   -2.304616    0.653899
     22          6           0       -3.081116   -1.220812    0.706991
     23          6           0       -3.524222   -0.629519   -0.487462
     24          6           0       -4.405191    0.450130   -0.470455
     25          6           0       -4.869198    0.946500    0.748155
     26          8           0       -5.681687    2.059081    0.846758
     27          6           0       -6.722820    2.254905   -0.041080
     28          6           0       -7.527231    1.210179   -0.506180
     29          6           0       -8.604271    1.501392   -1.344291
     30          6           0       -8.886727    2.818868   -1.710709
     31          6           0       -8.080723    3.853615   -1.230801
     32          6           0       -6.996259    3.576789   -0.399188
     33          6           0       -4.438298    0.364605    1.941258
     34          6           0       -3.549113   -0.705053    1.929230
     35          6           0       -1.504734   -2.686591   -0.598630
     36          1           0        2.619842   -0.672196   -0.278068
     37          1           0        3.263385   -2.070367    0.563777
     38          1           0        3.604733   -1.601064   -2.448077
     39          1           0        4.438697   -2.820503   -1.514946
     40          1           0        8.889379    1.853959   -0.785644
     41          1           0        9.640860    3.887443    0.487556
     42          1           0        8.047924    4.950370    2.090111
     43          1           0        5.115313    2.175571    1.249339
     44          1           0        1.071888   -2.689247    1.091796
     45          1           0       -0.170996   -4.374781   -0.941825
     46          1           0       -0.207709   -4.561721    1.861077
     47          1           0       -1.554354   -5.155620    0.889648
     48          1           0       -3.187307   -1.003656   -1.447572
     49          1           0       -4.728535    0.901033   -1.402689
     50          1           0       -7.314197    0.188143   -0.210678
     51          1           0       -9.230680    0.689657   -1.704742
     52          1           0       -9.728284    3.037101   -2.361761
     53          1           0       -8.291881    4.883091   -1.507432
     54          1           0       -6.357110    4.366304   -0.016649
     55          1           0       -4.802735    0.765521    2.881786
     56          1           0       -3.228088   -1.156012    2.857032
     57          1           0       -1.101169   -1.813330   -1.115372
     58          1           0       -2.206030   -3.193241   -1.276699
 ---------------------------------------------------------------------

 The electronic state is 1-A.
 Alpha  occ. eigenvalues --  -19.25425 -19.18727 -19.13135 -19.12936 -14.39457
 Alpha  occ. eigenvalues --  -14.38856 -14.38062 -14.35065 -14.33711 -10.30586
 Alpha  occ. eigenvalues --  -10.30555 -10.30086 -10.26980 -10.25617 -10.25120
 Alpha  occ. eigenvalues --  -10.25048 -10.24272 -10.23909 -10.23190 -10.23102
 Alpha  occ. eigenvalues --  -10.22522 -10.22104 -10.21937 -10.21811 -10.21672
 Alpha  occ. eigenvalues --  -10.20793 -10.20111 -10.19691 -10.19476 -10.19403
 Alpha  occ. eigenvalues --  -10.19212 -10.19161 -10.19105 -10.18934 -10.18837
 Alpha  occ. eigenvalues --   -1.17136  -1.07614  -1.05215  -1.04813  -0.97252
 Alpha  occ. eigenvalues --   -0.95393  -0.94383  -0.93890  -0.89054  -0.86376
 Alpha  occ. eigenvalues --   -0.85004  -0.82018  -0.81333  -0.79950  -0.77605
 Alpha  occ. eigenvalues --   -0.76191  -0.75496  -0.74821  -0.73598  -0.72594
 Alpha  occ. eigenvalues --   -0.70447  -0.67164  -0.65153  -0.64744  -0.63861
 Alpha  occ. eigenvalues --   -0.61994  -0.61327  -0.60634  -0.60429  -0.59725
 Alpha  occ. eigenvalues --   -0.59353  -0.56578  -0.54782  -0.54540  -0.52994
 Alpha  occ. eigenvalues --   -0.52093  -0.51393  -0.51171  -0.50048  -0.49728
 Alpha  occ. eigenvalues --   -0.48935  -0.48289  -0.47673  -0.47498  -0.47024
 Alpha  occ. eigenvalues --   -0.46464  -0.45972  -0.44981  -0.44559  -0.44186
 Alpha  occ. eigenvalues --   -0.43954  -0.43202  -0.42956  -0.42742  -0.42504
 Alpha  occ. eigenvalues --   -0.42032  -0.41293  -0.41056  -0.40845  -0.40568
 Alpha  occ. eigenvalues --   -0.40169  -0.39838  -0.39645  -0.39206  -0.38412
 Alpha  occ. eigenvalues --   -0.37623  -0.37495  -0.36571  -0.36497  -0.36378
 Alpha  occ. eigenvalues --   -0.35577  -0.35092  -0.34453  -0.33956  -0.33251
 Alpha  occ. eigenvalues --   -0.30928  -0.30667  -0.29149  -0.28687  -0.27587
 Alpha  occ. eigenvalues --   -0.26793  -0.26148  -0.26008  -0.25722  -0.25665
 Alpha  occ. eigenvalues --   -0.25272  -0.23851  -0.20832
 Alpha virt. eigenvalues --   -0.05721  -0.02594  -0.01883  -0.01251  -0.01208
 Alpha virt. eigenvalues --    0.00075   0.00517   0.01075   0.03588   0.05792
 Alpha virt. eigenvalues --    0.06082   0.07898   0.08169   0.08929   0.09476

 Mulliken charges:
               1
     1  O   -0.526805
     2  C    0.636587
     3  C   -0.381612
     4  C   -0.369756
     5  C    0.599546
     6  N   -0.535496
     7  C    0.386531
     8  C    0.079980
     9  C   -0.130488
    10  C   -0.150292
    11  C    0.048099
    12  N   -0.413319
    13  C    0.005485
    14  N   -0.222075
    15  O   -0.364046
    16  N   -0.617084
    17  C    0.018982
    18  C   -0.407620
    19  C    0.586061
    20  O   -0.502292
    21  N   -0.545951
    22  C    0.325730
    23  C   -0.194833
    24  C   -0.178618
    25  C    0.356556
    26  O   -0.578338
    27  C    0.344607
    28  C   -0.168820
    29  C   -0.138195
    30  C   -0.128633
    31  C   -0.137108
    32  C   -0.172496
    33  C   -0.190568
    34  C   -0.168614
    35  C   -0.125276
    36  H    0.204381
    37  H    0.163315
    38  H    0.218443
    39  H    0.187487
    40  H    0.175326
    41  H    0.145534
    42  H    0.148381
    43  H    0.171017
    44  H    0.333849
    45  H    0.178369
    46  H    0.178239
    47  H    0.191184
    48  H    0.141516
    49  H    0.151662
    50  H    0.147926
    51  H    0.133980
    52  H    0.129554
    53  H    0.134288
    54  H    0.142407
    55  H    0.147830
    56  H    0.187678
    57  H    0.186182
    58  H    0.161625
 Sum of Mulliken charges =  -0.00000

 Dipole moment (field-independent basis, Debye):
    X=              0.3491    Y=             -1.5654    Z=             -1.4819  Tot=              2.1837
 Quadrupole moment (field-independent basis, Debye-Ang):
   XX=           -187.3245   YY=           -187.9608   ZZ=           -214.1093
   XY=              3.0704   XZ=             20.3258   YZ=             -3.8534

 Normal termination of Gaussian 16 at Fri Nov  4 21:34:18 2022.
