 Gaussian 16, Revision B.01,
 Gaussian 16:  ES64L-G16RevB.01 20-Dec-2017

 -------------------------------------------------------------------
 #p b3lyp/6-31g(d) 6D 10F nosymm GFInput td=(50-50,nstate=2) SCF=XQC
 -------------------------------------------------------------------

 ------------------------------
 Gaussian input prepared by ASE
 ------------------------------
 Symbolic Z-matrix:
 Charge =  0 Multiplicity = 1

                          Input orientation:
 ---------------------------------------------------------------------
 Center     Atomic      Atomic             Coordinates (Angstroms)
 Number     Number       Type             X           Y           Z
 ---------------------------------------------------------------------
      1          8           0        0.973832   -2.225586   -2.875334
      2          6           0        1.441982   -2.350998   -1.747894
      3          6           0        2.822280   -1.820055   -1.365083
      4          6           0        3.730612   -1.727324   -2.593549
      5          6           0        4.989741   -0.977205   -2.316329
      6          7           0        5.278957   -0.207994   -1.308419
      7          6           0        6.558188    0.220218   -1.614442
      8          6           0        7.325253    1.128429   -0.754901
      9          6           0        8.620402    1.543795   -1.094140
     10          6           0        9.290058    2.405165   -0.233395
     11          6           0        8.644106    2.820708    0.934158
     12          7           0        7.408361    2.435427    1.275255
     13          6           0        6.771476    1.607378    0.441494
     14          7           0        7.032910   -0.258564   -2.742453
     15          8           0        5.985146   -1.064330   -3.217543
     16          7           0        0.752064   -2.966274   -0.742696
     17          6           0       -0.608739   -3.453874   -0.946089
     18          6           0       -1.044746   -4.328886    0.230366
     19          6           0       -1.722396   -3.361145    1.202668
     20          8           0       -1.942549   -3.583894    2.381275
     21          7           0       -2.043675   -2.215900    0.490079
     22          6           0       -2.783870   -1.107807    0.977005
     23          6           0       -3.334613   -0.189646    0.067967
     24          6           0       -4.049008    0.920961    0.513192
     25          6           0       -4.235970    1.121535    1.881224
     26          8           0       -4.865631    2.236594    2.398784
     27          6           0       -6.003108    2.746851    1.801838
     28          6           0       -7.004956    1.933528    1.263640
     29          6           0       -8.156641    2.525698    0.743827
     30          6           0       -8.317459    3.912578    0.765945
     31          6           0       -7.312948    4.712310    1.315528
     32          6           0       -6.153159    4.135019    1.831182
     33          6           0       -3.696128    0.213826    2.793588
     34          6           0       -2.971553   -0.889187    2.353914
     35          6           0       -1.653176   -2.314954   -0.921011
     36          1           0        2.699024   -0.821309   -0.927733
     37          1           0        3.280188   -2.441047   -0.586519
     38          1           0        3.180990   -1.235556   -3.405203
     39          1           0        3.987084   -2.723808   -2.970946
     40          1           0        9.079573    1.192837   -2.013090
     41          1           0       10.294302    2.751189   -0.458487
     42          1           0        9.142599    3.495114    1.628520
     43          1           0        5.768515    1.301689    0.727934
     44          1           0        1.142732   -2.982368    0.189836
     45          1           0       -0.630977   -3.965318   -1.909965
     46          1           0       -0.230795   -4.871487    0.718964
     47          1           0       -1.785810   -5.072190   -0.088186
     48          1           0       -3.213069   -0.328882   -1.000276
     49          1           0       -4.458278    1.625420   -0.203161
     50          1           0       -6.884294    0.855254    1.258359
     51          1           0       -8.936272    1.893641    0.326805
     52          1           0       -9.217954    4.365331    0.361179
     53          1           0       -7.427681    5.792663    1.340187
     54          1           0       -5.360405    4.738848    2.261428
     55          1           0       -3.844224    0.386312    3.854935
     56          1           0       -2.565285   -1.592343    3.066484
     57          1           0       -1.227410   -1.375950   -1.280827
     58          1           0       -2.517593   -2.564436   -1.552542
 ---------------------------------------------------------------------

 SCF Done:  E(RB3LYP) =  -1579.26884077     A.U. after   15 cycles

 Excitation energies and oscillator strengths:

 Excited state symmetry could not be determined.
 Excited State   1:      Triplet-?Sym    3.2675 eV  379.45 nm  f=0.0000  <S**2>=2.000
     111 ->127        -0.11097
     114 ->124        -0.15338
     114 ->125         0.16082
     119 ->124         0.12001
     120 ->124         0.62275
     120 ->125         0.14679
 This state for optimization and/or second-order correction.
 Total Energy, E(TD-HF/TD-DFT) =  -1579.14876327
 Copying the excited state density for this state as the 1-particle RhoCI density.

 Excited state symmetry could not be determined.
 Excited State   2:      Triplet-?Sym    3.4064 eV  363.98 nm  f=0.0000  <S**2>=2.000
     117 ->128        -0.13051
     119 ->128         0.14334
     119 ->129         0.11791
     121 ->128         0.13629
     122 ->126         0.15319
     123 ->126         0.57969
     123 ->132        -0.14566

 Excited state symmetry could not be determined.
 Excited State   3:      Singlet-?Sym    3.8666 eV  320.66 nm  f=0.0000  <S**2>=0.000
     123 ->124         0.70663

 Excited state symmetry could not be determined.
 Excited State   4:      Singlet-?Sym    4.4053 eV  281.44 nm  f=0.0006  <S**2>=0.000
     118 ->124         0.69185
     118 ->127        -0.12105

 Alpha  occ. eigenvalues --  -19.25425 -19.18727 -19.13135 -19.12936 -14.39457
 Alpha  occ. eigenvalues --  -14.38856 -14.38062 -14.35065 -14.33711 -10.30586
 Alpha  occ. eigenvalues --  -10.30555 -10.30086 -10.26980 -10.25617 -10.25120
 Alpha  occ. eigenvalues --  -10.25048 -10.24272 -10.23909 -10.23189 -10.23102
 Alpha  occ. eigenvalues --  -10.22522 -10.22104 -10.21937 -10.21811 -10.21672
 Alpha  occ. eigenvalues --  -10.20793 -10.20111 -10.19691 -10.19476 -10.19403
 Alpha  occ. eigenvalues --  -10.19212 -10.19161 -10.19105 -10.18934 -10.18837
 Alpha  occ. eigenvalues --   -1.17136  -1.07614  -1.05215  -1.04813  -0.97252
 Alpha  occ. eigenvalues --   -0.95393  -0.94383  -0.93890  -0.89054  -0.86376
 Alpha  occ. eigenvalues --   -0.85004  -0.82018  -0.81333  -0.79950  -0.77605
 Alpha  occ. eigenvalues --   -0.76191  -0.75496  -0.74821  -0.73598  -0.72594
 Alpha  occ. eigenvalues --   -0.70447  -0.67164  -0.65153  -0.64744  -0.63861
 Alpha  occ. eigenvalues --   -0.61994  -0.61327  -0.60634  -0.60429  -0.59725
 Alpha  occ. eigenvalues --   -0.59353  -0.56578  -0.54782  -0.54540  -0.52994
 Alpha  occ. eigenvalues --   -0.52093  -0.51393  -0.51171  -0.50048  -0.49728
 Alpha  occ. eigenvalues --   -0.48935  -0.48289  -0.47673  -0.47498  -0.47024
 Alpha  occ. eigenvalues --   -0.46464  -0.45972  -0.44981  -0.44559  -0.44186
 Alpha  occ. eigenvalues --   -0.43954  -0.43202  -0.42956  -0.42742  -0.42504
 Alpha  occ. eigenvalues --   -0.42032  -0.41293  -0.41056  -0.40845  -0.40568
 Alpha  occ. eigenvalues --   -0.40169  -0.39838  -0.39645  -0.39206  -0.38412
 Alpha  occ. eigenvalues --   -0.37623  -0.37495  -0.36571  -0.36497  -0.36378
 Alpha  occ. eigenvalues --   -0.35577  -0.35092  -0.34453  -0.33956  -0.33251
 Alpha  occ. eigenvalues --   -0.30928  -0.30667  -0.29149  -0.28687  -0.27587
 Alpha  occ. eigenvalues --   -0.26793  -0.26148  -0.26008  -0.25722  -0.25665
 Alpha  occ. eigenvalues --   -0.25272  -0.23851  -0.20832
 Alpha virt. eigenvalues --   -0.05721  -0.02594  -0.01883  -0.01251  -0.01208
 Alpha virt. eigenvalues --    0.00075   0.00517   0.01075   0.03588   0.05792
 Alpha virt. eigenvalues --    0.06082   0.07898   0.08169   0.08929   0.09476

 Mulliken charges:
               1
     1  O   -0.526807
     2  C    0.636586
     3  C   -0.381602
     4  C   -0.369758
     5  C    0.599544
     6  N   -0.535499
     7  C    0.386537
     8  C    0.079979
     9  C   -0.130486
    10  C   -0.150296
    11  C    0.048100
    12  N   -0.413314
    13  C    0.005479
    14  N   -0.222079
    15  O   -0.364040
    16  N   -0.617073
    17  C    0.018964
    18  C   -0.407607
    19  C    0.586062
    20  O   -0.502300
    21  N   -0.545939
    22  C    0.325723
    23  C   -0.194842
    24  C   -0.178611
    25  C    0.356562
    26  O   -0.578338
    27  C    0.344604
    28  C   -0.168823
    29  C   -0.138194
    30  C   -0.128629
    31  C   -0.137116
    32  C   -0.172493
    33  C   -0.190570
    34  C   -0.168617
    35  C   -0.125277
    36  H    0.204379
    37  H    0.163313
    38  H    0.218442
    39  H    0.187486
    40  H    0.175326
    41  H    0.145535
    42  H    0.148380
    43  H    0.171017
    44  H    0.333847
    45  H    0.178372
    46  H    0.178239
    47  H    0.191184
    48  H    0.141517
    49  H    0.151662
    50  H    0.147927
    51  H    0.133980
    52  H    0.129554
    53  H    0.134289
    54  H    0.142407
    55  H    0.147831
    56  H    0.187678
    57  H    0.186180
    58  H    0.161626
 Sum of Mulliken charges =  -0.00000

 Dipole moment (field-independent basis, Debye):
    X=             -0.1111    Y=             -1.1499    Z=             -1.8530  Tot=              2.1836
 Quadrupole moment (field-independent basis, Debye-Ang):
   XX=           -180.9557   YY=           -187.3476   ZZ=           -221.1209
   XY=             -2.3365   XZ=             13.5373   YZ=              1.9322

 Normal termination of Gaussian 16 at Sat Nov  5 12:16:40 2022.
