 Gaussian 16, Revision B.01,
 Gaussian 16:  ES64L-G16RevB.01 20-Dec-2017

 -----------------------------
 #p b3lyp/6-31g(d) opt SCF=XQC
 -----------------------------

 ------------------------------
 Gaussian input prepared by ASE
 ------------------------------
 Symbolic Z-matrix:
 Charge =  0 Multiplicity = 1

 SCF Done:  E(RB3LYP) =  -1221.06015989     A.U. after   15 cycles
 SCF Done:  E(RB3LYP) =  -1221.06541882     A.U. after   12 cycles
 SCF Done:  E(RB3LYP) =  -1221.06607783     A.U. after   12 cycles
 SCF Done:  E(RB3LYP) =  -1221.06669886     A.U. after   11 cycles
 SCF Done:  E(RB3LYP) =  -1221.06699401     A.U. after   11 cycles
 SCF Done:  E(RB3LYP) =  -1221.06715092     A.U. after   12 cycles
 SCF Done:  E(RB3LYP) =  -1221.06731573     A.U. after   11 cycles
 SCF Done:  E(RB3LYP) =  -1221.06740803     A.U. after   11 cycles
 SCF Done:  E(RB3LYP) =  -1221.06750816     A.U. after   11 cycles
 SCF Done:  E(RB3LYP) =  -1221.06755219     A.U. after   10 cycles
 SCF Done:  E(RB3LYP) =  -1221.06758015     A.U. after   11 cycles
 SCF Done:  E(RB3LYP) =  -1221.06760703     A.U. after   11 cycles
 SCF Done:  E(RB3LYP) =  -1221.06760739     A.U. after   11 cycles
 SCF Done:  E(RB3LYP) =  -1221.06762878     A.U. after   10 cycles
 SCF Done:  E(RB3LYP) =  -1221.06763340     A.U. after   10 cycles
 SCF Done:  E(RB3LYP) =  -1221.06763575     A.U. after    9 cycles
 SCF Done:  E(RB3LYP) =  -1221.06763644     A.U. after    8 cycles
 SCF Done:  E(RB3LYP) =  -1221.06763690     A.U. after    7 cycles
 SCF Done:  E(RB3LYP) =  -1221.06763715     A.U. after    9 cycles
 SCF Done:  E(RB3LYP) =  -1221.06763719     A.U. after    7 cycles
 Optimization completed.
    -- Stationary point found.

                         Standard orientation:
 ---------------------------------------------------------------------
 Center     Atomic      Atomic             Coordinates (Angstroms)
 Number     Number       Type             X           Y           Z
 ---------------------------------------------------------------------
      1          6           0       -7.319802    2.106213   -0.239405
      2          7           0       -6.393224    0.995062   -0.175243
      3          6           0       -5.042833    1.072509   -0.694433
      4          6           0       -4.549978   -0.369661   -0.463301
      5          6           0       -3.563572   -0.908845   -1.527921
      6          6           0       -2.284916   -1.254176   -0.742392
      7          7           0       -2.391235   -0.417719    0.460963
      8          6           0       -1.430961   -0.726834    1.513211
      9          6           0       -0.018128   -0.352830    1.130458
     10          6           0        1.065910   -1.211857    1.292462
     11          7           0        2.322644   -0.878019    0.987740
     12          6           0        2.532330    0.352300    0.488535
     13          6           0        3.918915    0.798392    0.168824
     14          6           0        4.136072    2.170547    0.160016
     15          6           0        5.403054    2.728464   -0.096043
     16          6           0        6.470811    1.905964   -0.363689
     17          6           0        6.308203    0.496938   -0.392825
     18          6           0        7.414744   -0.340374   -0.700178
     19          6           0        7.278211   -1.706671   -0.757201
     20          6           0        6.015022   -2.287975   -0.506879
     21          6           0        4.922090   -1.507446   -0.197187
     22          6           0        5.021169   -0.088718   -0.121402
     23          7           0        1.548688    1.256551    0.278421
     24          6           0        0.309050    0.901109    0.598459
     25          6           0       -3.788109   -0.547916    0.865607
     26          8           0       -5.775025   -1.136866   -0.437121
     27          6           0       -6.845180   -0.307608   -0.203456
     28          8           0       -7.973889   -0.707204   -0.044369
     29          1           0       -8.291907    1.752318    0.108014
     30          1           0       -7.425244    2.487599   -1.265954
     31          1           0       -6.979778    2.924548    0.404562
     32          1           0       -5.038565    1.341621   -1.763668
     33          1           0       -4.427509    1.802128   -0.156500
     34          1           0       -3.365608   -0.148045   -2.289397
     35          1           0       -3.995452   -1.779245   -2.028037
     36          1           0       -1.365933   -1.031786   -1.291848
     37          1           0       -2.269471   -2.329485   -0.480284
     38          1           0       -1.728864   -0.158395    2.404877
     39          1           0       -1.462405   -1.796822    1.801040
     40          1           0        0.920494   -2.217450    1.689473
     41          1           0        3.294669    2.822617    0.362352
     42          1           0        5.526826    3.807649   -0.077466
     43          1           0        7.456155    2.321152   -0.562693
     44          1           0        8.376386    0.128177   -0.896584
     45          1           0        8.131202   -2.336272   -0.995772
     46          1           0        5.901716   -3.367935   -0.556700
     47          1           0        3.970408   -1.973221    0.012943
     48          1           0       -0.473923    1.635434    0.413103
     49          1           0       -4.056849    0.198244    1.621282
     50          1           0       -4.025756   -1.550551    1.268442
 ---------------------------------------------------------------------

 The electronic state is 1-A.
 Alpha  occ. eigenvalues --  -19.18653 -19.11832 -14.37080 -14.34807 -14.34043
 Alpha  occ. eigenvalues --  -14.34019 -10.32775 -10.27054 -10.26761 -10.24356
 Alpha  occ. eigenvalues --  -10.24212 -10.24071 -10.23719 -10.22574 -10.22471
 Alpha  occ. eigenvalues --  -10.22457 -10.21503 -10.20349 -10.20068 -10.20013
 Alpha  occ. eigenvalues --  -10.19578 -10.19239 -10.18880 -10.18815 -10.18720
 Alpha  occ. eigenvalues --  -10.18649 -10.18506 -10.17799  -1.10831  -1.01667
 Alpha  occ. eigenvalues --   -0.99038  -0.95507  -0.94493  -0.89055  -0.86958
 Alpha  occ. eigenvalues --   -0.83302  -0.81705  -0.79759  -0.76917  -0.75667
 Alpha  occ. eigenvalues --   -0.73669  -0.73302  -0.72468  -0.70278  -0.67689
 Alpha  occ. eigenvalues --   -0.66427  -0.64587  -0.61707  -0.61014  -0.60703
 Alpha  occ. eigenvalues --   -0.59809  -0.58652  -0.57387  -0.53532  -0.53078
 Alpha  occ. eigenvalues --   -0.52143  -0.50974  -0.50310  -0.50057  -0.49396
 Alpha  occ. eigenvalues --   -0.48595  -0.48279  -0.47519  -0.45736  -0.45003
 Alpha  occ. eigenvalues --   -0.44157  -0.43712  -0.43429  -0.43045  -0.42754
 Alpha  occ. eigenvalues --   -0.42382  -0.41664  -0.41025  -0.40953  -0.40438
 Alpha  occ. eigenvalues --   -0.40001  -0.39666  -0.39059  -0.38683  -0.38488
 Alpha  occ. eigenvalues --   -0.38091  -0.37453  -0.36809  -0.36373  -0.34261
 Alpha  occ. eigenvalues --   -0.33712  -0.33464  -0.32568  -0.31855  -0.30026
 Alpha  occ. eigenvalues --   -0.29800  -0.28849  -0.27501  -0.26376  -0.25083
 Alpha  occ. eigenvalues --   -0.24717  -0.24014  -0.23888  -0.20923
 Alpha virt. eigenvalues --   -0.05918  -0.04217  -0.01311  -0.00390   0.04403
 Alpha virt. eigenvalues --    0.04586   0.06998   0.07139   0.09325   0.09677
 Alpha virt. eigenvalues --    0.09982   0.10064   0.11185   0.11806   0.11956

 Mulliken charges:
               1
     1  C   -0.316070
     2  N   -0.446270
     3  C   -0.152918
     4  C    0.317905
     5  C   -0.328261
     6  C   -0.130008
     7  N   -0.413904
     8  C   -0.202885
     9  C    0.105234
    10  C    0.013405
    11  N   -0.457996
    12  C    0.398601
    13  C    0.052718
    14  C   -0.174319
    15  C   -0.138271
    16  C   -0.180107
    17  C    0.126025
    18  C   -0.196669
    19  C   -0.129787
    20  C   -0.140621
    21  C   -0.175398
    22  C    0.072195
    23  N   -0.452484
    24  C    0.038924
    25  C   -0.146077
    26  O   -0.515671
    27  C    0.771345
    28  O   -0.504008
    29  H    0.200738
    30  H    0.152935
    31  H    0.158800
    32  H    0.147613
    33  H    0.166832
    34  H    0.156675
    35  H    0.177719
    36  H    0.158067
    37  H    0.126665
    38  H    0.162651
    39  H    0.131028
    40  H    0.146800
    41  H    0.158032
    42  H    0.131737
    43  H    0.131396
    44  H    0.127941
    45  H    0.128321
    46  H    0.127204
    47  H    0.162980
    48  H    0.154809
    49  H    0.153582
    50  H    0.142848
 Sum of Mulliken charges =  -0.00000

 Dipole moment (field-independent basis, Debye):
    X=              1.5983    Y=              2.2011    Z=             -0.2363  Tot=              2.7305
 Quadrupole moment (field-independent basis, Debye-Ang):
   XX=           -195.3700   YY=           -152.4985   ZZ=           -159.8794
   XY=            -20.4339   XZ=             -1.1462   YZ=             -0.1002

 Normal termination of Gaussian 16 at Fri Nov  4 08:02:15 2022.
