 Gaussian 16, Revision B.01,
 Gaussian 16:  ES64L-G16RevB.01 20-Dec-2017

 -------------------------------------------------------------------
 #p b3lyp/6-31g(d) 6D 10F nosymm GFInput td=(50-50,nstate=2) SCF=XQC
 -------------------------------------------------------------------

 ------------------------------
 Gaussian input prepared by ASE
 ------------------------------
 Symbolic Z-matrix:
 Charge =  0 Multiplicity = 1

                          Input orientation:
 ---------------------------------------------------------------------
 Center     Atomic      Atomic             Coordinates (Angstroms)
 Number     Number       Type             X           Y           Z
 ---------------------------------------------------------------------
      1          6           0        7.265882    1.891337   -0.620820
      2          7           0        6.324177    0.853984   -0.254204
      3          6           0        4.972006    1.143226    0.178331
      4          6           0        4.460295   -0.268705    0.525872
      5          6           0        3.460230   -0.336585    1.705869
      6          6           0        2.181445   -0.948726    1.104817
      7          7           0        2.306509   -0.652465   -0.328925
      8          6           0        1.348132   -1.339296   -1.186060
      9          6           0       -0.061513   -0.830129   -0.995991
     10          6           0       -1.156550   -1.672278   -0.819948
     11          7           0       -2.410223   -1.232323   -0.684209
     12          6           0       -2.605509    0.097366   -0.709726
     13          6           0       -3.987529    0.647834   -0.605628
     14          6           0       -4.185438    1.915717   -1.137933
     15          6           0       -5.445926    2.542804   -1.134935
     16          6           0       -6.526673    1.902600   -0.577825
     17          6           0       -6.384046    0.616265    0.003249
     18          6           0       -7.504011   -0.021576    0.602271
     19          6           0       -7.387018   -1.257392    1.191958
     20          6           0       -6.130684   -1.903701    1.203366
     21          6           0       -5.025111   -1.318861    0.624312
     22          6           0       -5.103807   -0.042575   -0.002787
     23          7           0       -1.610502    1.001051   -0.860339
     24          6           0       -0.374136    0.535398   -1.001880
     25          6           0        3.703749   -0.945794   -0.634905
     26          8           0        5.674576   -0.997687    0.815937
     27          6           0        6.757617   -0.337964    0.287460
     28          8           0        7.881509   -0.779920    0.310078
     29          1           0        8.234927    1.419214   -0.791062
     30          1           0        7.370692    2.643657    0.175048
     31          1           0        6.941143    2.395084   -1.537753
     32          1           0        4.965292    1.810185    1.056296
     33          1           0        4.370135    1.609888   -0.609270
     34          1           0        3.268541    0.663982    2.105837
     35          1           0        3.876921   -0.945620    2.511894
     36          1           0        1.262493   -0.518882    1.513046
     37          1           0        2.152423   -2.040444    1.285199
     38          1           0        1.659177   -1.169347   -2.225918
     39          1           0        1.366217   -2.436708   -1.030915
     40          1           0       -1.022965   -2.754495   -0.789246
     41          1           0       -3.333794    2.427183   -1.570599
     42          1           0       -5.554416    3.529477   -1.576538
     43          1           0       -7.507230    2.373029   -0.568281
     44          1           0       -8.460103    0.496667    0.588758
     45          1           0       -8.250145   -1.733856    1.649018
     46          1           0       -6.032851   -2.878719    1.673899
     47          1           0       -4.078858   -1.839827    0.624004
     48          1           0        0.417982    1.275207   -1.110816
     49          1           0        3.987340   -0.558726   -1.619677
     50          1           0        3.929630   -2.028556   -0.609719
 ---------------------------------------------------------------------

 SCF Done:  E(RB3LYP) =  -1221.06763918     A.U. after   15 cycles

 Excitation energies and oscillator strengths:

 Excited state symmetry could not be determined.
 Excited State   1:      Triplet-?Sym    2.4333 eV  509.53 nm  f=0.0000  <S**2>=2.000
      97 ->103        -0.12271
      99 ->100         0.65058
      99 ->102        -0.19904
 This state for optimization and/or second-order correction.
 Total Energy, E(TD-HF/TD-DFT) =  -1220.97821731
 Copying the excited state density for this state as the 1-particle RhoCI density.

 Excited state symmetry could not be determined.
 Excited State   2:      Triplet-?Sym    3.5123 eV  353.00 nm  f=0.0000  <S**2>=2.000
      89 ->101         0.12654
      91 ->102         0.10972
      94 ->100         0.34156
      96 ->100        -0.14073
      97 ->100        -0.21279
      98 ->100        -0.20843
      99 ->101        -0.12485
      99 ->102         0.40776
      99 ->104         0.10500

 Excited state symmetry could not be determined.
 Excited State   3:      Singlet-?Sym    3.6862 eV  336.35 nm  f=0.3289  <S**2>=0.000
      99 ->100         0.69603

 Excited state symmetry could not be determined.
 Excited State   4:      Singlet-?Sym    3.9213 eV  316.18 nm  f=0.0021  <S**2>=0.000
      99 ->101         0.69442

 Alpha  occ. eigenvalues --  -19.18653 -19.11832 -14.37080 -14.34807 -14.34043
 Alpha  occ. eigenvalues --  -14.34019 -10.32775 -10.27054 -10.26761 -10.24356
 Alpha  occ. eigenvalues --  -10.24212 -10.24071 -10.23719 -10.22574 -10.22471
 Alpha  occ. eigenvalues --  -10.22457 -10.21503 -10.20349 -10.20068 -10.20013
 Alpha  occ. eigenvalues --  -10.19578 -10.19239 -10.18879 -10.18815 -10.18720
 Alpha  occ. eigenvalues --  -10.18649 -10.18506 -10.17799  -1.10831  -1.01667
 Alpha  occ. eigenvalues --   -0.99038  -0.95507  -0.94493  -0.89055  -0.86958
 Alpha  occ. eigenvalues --   -0.83302  -0.81705  -0.79759  -0.76917  -0.75667
 Alpha  occ. eigenvalues --   -0.73669  -0.73302  -0.72468  -0.70278  -0.67689
 Alpha  occ. eigenvalues --   -0.66427  -0.64587  -0.61707  -0.61014  -0.60703
 Alpha  occ. eigenvalues --   -0.59809  -0.58652  -0.57387  -0.53533  -0.53078
 Alpha  occ. eigenvalues --   -0.52143  -0.50974  -0.50310  -0.50057  -0.49396
 Alpha  occ. eigenvalues --   -0.48595  -0.48279  -0.47519  -0.45736  -0.45003
 Alpha  occ. eigenvalues --   -0.44157  -0.43712  -0.43429  -0.43045  -0.42754
 Alpha  occ. eigenvalues --   -0.42382  -0.41664  -0.41025  -0.40953  -0.40438
 Alpha  occ. eigenvalues --   -0.40001  -0.39666  -0.39059  -0.38683  -0.38488
 Alpha  occ. eigenvalues --   -0.38091  -0.37453  -0.36809  -0.36373  -0.34261
 Alpha  occ. eigenvalues --   -0.33712  -0.33464  -0.32568  -0.31855  -0.30026
 Alpha  occ. eigenvalues --   -0.29800  -0.28849  -0.27501  -0.26376  -0.25083
 Alpha  occ. eigenvalues --   -0.24717  -0.24014  -0.23888  -0.20923
 Alpha virt. eigenvalues --   -0.05918  -0.04217  -0.01311  -0.00390   0.04403
 Alpha virt. eigenvalues --    0.04586   0.06998   0.07139   0.09325   0.09677
 Alpha virt. eigenvalues --    0.09982   0.10064   0.11185   0.11806   0.11956

 Mulliken charges:
               1
     1  C   -0.316070
     2  N   -0.446278
     3  C   -0.152909
     4  C    0.317885
     5  C   -0.328259
     6  C   -0.130029
     7  N   -0.413901
     8  C   -0.202880
     9  C    0.105216
    10  C    0.013417
    11  N   -0.458006
    12  C    0.398597
    13  C    0.052717
    14  C   -0.174317
    15  C   -0.138274
    16  C   -0.180101
    17  C    0.126041
    18  C   -0.196669
    19  C   -0.129794
    20  C   -0.140622
    21  C   -0.175384
    22  C    0.072172
    23  N   -0.452473
    24  C    0.038924
    25  C   -0.146053
    26  O   -0.515669
    27  C    0.771356
    28  O   -0.504011
    29  H    0.200738
    30  H    0.152936
    31  H    0.158799
    32  H    0.147611
    33  H    0.166832
    34  H    0.156675
    35  H    0.177720
    36  H    0.158069
    37  H    0.126670
    38  H    0.162652
    39  H    0.131027
    40  H    0.146800
    41  H    0.158032
    42  H    0.131737
    43  H    0.131396
    44  H    0.127941
    45  H    0.128322
    46  H    0.127203
    47  H    0.162983
    48  H    0.154808
    49  H    0.153579
    50  H    0.142843
 Sum of Mulliken charges =  -0.00000

 Dipole moment (field-independent basis, Debye):
    X=             -1.5685    Y=              2.1343    Z=             -0.6631  Tot=              2.7304
 Quadrupole moment (field-independent basis, Debye-Ang):
   XX=           -194.5186   YY=           -154.2215   ZZ=           -158.8925
   XY=             18.7372   XZ=             -9.2848   YZ=             -2.4538

 Normal termination of Gaussian 16 at Sat Nov  5 12:17:20 2022.
