 Gaussian 16, Revision B.01,
 Gaussian 16:  ES64L-G16RevB.01 20-Dec-2017

 -------------------------------------------------------------------
 #p b3lyp/6-31g(d) 6D 10F nosymm GFInput td=(50-50,nstate=2) SCF=XQC
 -------------------------------------------------------------------

 ------------------------------
 Gaussian input prepared by ASE
 ------------------------------
 Symbolic Z-matrix:
 Charge =  0 Multiplicity = 1

                          Input orientation:
 ---------------------------------------------------------------------
 Center     Atomic      Atomic             Coordinates (Angstroms)
 Number     Number       Type             X           Y           Z
 ---------------------------------------------------------------------
      1          6           0       -3.560843    1.608632   -0.183570
      2          6           0       -3.473514    0.111011    0.147858
      3          6           0       -4.673132   -0.303371    1.048556
      4          6           0       -6.033595   -0.149471    0.398861
      5          6           0       -6.447967   -1.041038   -0.602359
      6          6           0       -7.695136   -0.910436   -1.212326
      7          6           0       -8.559095    0.118200   -0.829215
      8          6           0       -8.163757    1.010270    0.167722
      9          6           0       -6.912875    0.874797    0.774015
     10          6           0       -2.141088   -0.298909    0.821931
     11          6           0       -2.050382   -1.840746    1.097723
     12          6           0       -0.557776   -2.250417    0.957205
     13          6           0        0.170202   -0.896697    0.911342
     14          6           0        1.624296   -0.815919    0.482084
     15          6           0        2.119199    0.336556   -0.017258
     16          6           0        1.215996    1.532456   -0.299150
     17          6           0       -0.226290    1.435646    0.245443
     18          6           0       -0.789055    0.014331    0.099428
     19          6           0       -0.853224   -0.394630   -1.388529
     20          6           0        3.597124    0.488388   -0.434920
     21          6           0        3.664824    0.271307   -1.972435
     22          6           0        4.162081    1.909524   -0.094723
     23          6           0        5.692213    1.971561    0.159788
     24          6           0        6.503574    0.871917   -0.532542
     25          8           0        7.893726    0.976588   -0.232041
     26          6           0        5.955626   -0.541649   -0.201268
     27          6           0        4.485993   -0.569017    0.316201
     28          6           0        4.500922   -0.251322    1.763553
     29          7           0        4.542473   -0.047851    2.906874
     30          6           0        3.878644   -1.983273    0.182429
     31          6           0        2.465410   -2.042545    0.766822
     32          1           0       -4.557636    1.865280   -0.556417
     33          1           0       -2.839573    1.902125   -0.950934
     34          1           0       -3.370234    2.221317    0.707381
     35          1           0       -3.566646   -0.451538   -0.792801
     36          1           0       -4.638104    0.292104    1.971330
     37          1           0       -4.549273   -1.349282    1.351321
     38          1           0       -5.786167   -1.851360   -0.902083
     39          1           0       -7.995726   -1.615350   -1.983444
     40          1           0       -9.532740    0.219752   -1.301189
     41          1           0       -8.829268    1.812006    0.477696
     42          1           0       -6.614916    1.572108    1.554049
     43          1           0       -2.101208    0.222133    1.791840
     44          1           0       -2.672584   -2.396881    0.386109
     45          1           0       -2.432974   -2.081627    2.094609
     46          1           0       -0.221491   -2.882772    1.785242
     47          1           0       -0.394749   -2.820388    0.034933
     48          1           0        0.136870   -0.514560    1.946526
     49          1           0        1.177547    1.691958   -1.387707
     50          1           0        1.667605    2.447321    0.100651
     51          1           0       -0.840230    2.183239   -0.266996
     52          1           0       -0.231427    1.704620    1.310683
     53          1           0       -1.437672    0.330078   -1.966393
     54          1           0       -1.323952   -1.373361   -1.527583
     55          1           0        0.144898   -0.447908   -1.833339
     56          1           0        4.669270    0.409303   -2.381605
     57          1           0        3.311407   -0.722593   -2.260723
     58          1           0        3.016695    1.000526   -2.468872
     59          1           0        3.895452    2.592393   -0.909063
     60          1           0        3.665224    2.290890    0.802512
     61          1           0        5.879552    1.894322    1.238676
     62          1           0        6.086299    2.945263   -0.150447
     63          1           0        6.468814    1.028950   -1.615081
     64          1           0        7.983221    0.947426    0.734999
     65          1           0        6.026256   -1.184792   -1.085390
     66          1           0        6.603601   -0.996913    0.556683
     67          1           0        3.864426   -2.244535   -0.880824
     68          1           0        4.529602   -2.713966    0.676831
     69          1           0        1.956195   -2.935833    0.384219
     70          1           0        2.519064   -2.183349    1.857229
 ---------------------------------------------------------------------

 SCF Done:  E(RB3LYP) =  -1258.51842867     A.U. after   14 cycles

 Excitation energies and oscillator strengths:

 Excited state symmetry could not be determined.
 Excited State   1:      Triplet-?Sym    3.7447 eV  331.09 nm  f=0.0000  <S**2>=2.000
     112 ->115        -0.35789
     112 ->116         0.30625
     113 ->115         0.36941
     113 ->116         0.37034
 This state for optimization and/or second-order correction.
 Total Energy, E(TD-HF/TD-DFT) =  -1258.38081432
 Copying the excited state density for this state as the 1-particle RhoCI density.

 Excited state symmetry could not be determined.
 Excited State   2:      Triplet-?Sym    3.7791 eV  328.08 nm  f=0.0000  <S**2>=2.000
     114 ->117         0.68415
     114 <-117         0.10874

 Excited state symmetry could not be determined.
 Excited State   3:      Singlet-?Sym    5.4095 eV  229.20 nm  f=0.0015  <S**2>=0.000
     112 ->115         0.31872
     112 ->116         0.33607
     113 ->115         0.40333
     113 ->116        -0.34409

 Excited state symmetry could not be determined.
 Excited State   4:      Singlet-?Sym    5.8551 eV  211.76 nm  f=0.0040  <S**2>=0.000
     114 ->115         0.70235

 Alpha  occ. eigenvalues --  -19.14361 -14.32582 -10.23948 -10.23852 -10.21823
 Alpha  occ. eigenvalues --  -10.21804 -10.19931 -10.19707 -10.19164 -10.19079
 Alpha  occ. eigenvalues --  -10.19057 -10.19014 -10.18889 -10.18843 -10.18738
 Alpha  occ. eigenvalues --  -10.18681 -10.18641 -10.18610 -10.18579 -10.18508
 Alpha  occ. eigenvalues --  -10.18507 -10.18439 -10.18418 -10.18391 -10.18380
 Alpha  occ. eigenvalues --  -10.18296 -10.18014 -10.17982 -10.17864 -10.17167
 Alpha  occ. eigenvalues --  -10.16870  -1.01773  -0.90357  -0.87173  -0.85657
 Alpha  occ. eigenvalues --   -0.85016  -0.81108  -0.79996  -0.78955  -0.76838
 Alpha  occ. eigenvalues --   -0.75615  -0.74353  -0.73903  -0.72730  -0.71500
 Alpha  occ. eigenvalues --   -0.69859  -0.68735  -0.67416  -0.67179  -0.64256
 Alpha  occ. eigenvalues --   -0.62845  -0.61447  -0.60587  -0.60047  -0.58840
 Alpha  occ. eigenvalues --   -0.57672  -0.56554  -0.55075  -0.53392  -0.51415
 Alpha  occ. eigenvalues --   -0.50676  -0.49891  -0.48505  -0.48089  -0.47585
 Alpha  occ. eigenvalues --   -0.46815  -0.46206  -0.45517  -0.45257  -0.44623
 Alpha  occ. eigenvalues --   -0.44369  -0.44209  -0.43050  -0.42659  -0.41838
 Alpha  occ. eigenvalues --   -0.41440  -0.41381  -0.41018  -0.40355  -0.40180
 Alpha  occ. eigenvalues --   -0.39595  -0.39092  -0.39042  -0.38690  -0.38371
 Alpha  occ. eigenvalues --   -0.38217  -0.37610  -0.37311  -0.36923  -0.36623
 Alpha  occ. eigenvalues --   -0.35948  -0.35774  -0.35352  -0.35004  -0.34654
 Alpha  occ. eigenvalues --   -0.34307  -0.33795  -0.33604  -0.33361  -0.33111
 Alpha  occ. eigenvalues --   -0.32669  -0.32510  -0.31912  -0.31504  -0.31067
 Alpha  occ. eigenvalues --   -0.30652  -0.30356  -0.29745  -0.29512  -0.27438
 Alpha  occ. eigenvalues --   -0.26306  -0.24560  -0.23633  -0.22588
 Alpha virt. eigenvalues --    0.00136   0.00454   0.01642   0.03773   0.04245
 Alpha virt. eigenvalues --    0.06350   0.07392   0.08002   0.08483   0.09475
 Alpha virt. eigenvalues --    0.09599   0.09702   0.10622   0.11066   0.11580

 Mulliken charges:
               1
     1  C   -0.463124
     2  C   -0.085230
     3  C   -0.359652
     4  C    0.174378
     5  C   -0.179772
     6  C   -0.128899
     7  C   -0.131902
     8  C   -0.127773
     9  C   -0.185805
    10  C   -0.076099
    11  C   -0.299755
    12  C   -0.293029
    13  C   -0.163006
    14  C    0.108226
    15  C    0.079159
    16  C   -0.352476
    17  C   -0.279341
    18  C    0.088286
    19  C   -0.481038
    20  C    0.052963
    21  C   -0.474748
    22  C   -0.308896
    23  C   -0.312770
    24  C    0.149223
    25  O   -0.631741
    26  C   -0.308342
    27  C   -0.016226
    28  C    0.358867
    29  N   -0.508359
    30  C   -0.280524
    31  C   -0.358331
    32  H    0.156492
    33  H    0.147472
    34  H    0.135840
    35  H    0.123853
    36  H    0.134163
    37  H    0.152442
    38  H    0.120797
    39  H    0.127015
    40  H    0.126888
    41  H    0.127515
    42  H    0.123039
    43  H    0.110900
    44  H    0.134233
    45  H    0.141856
    46  H    0.137137
    47  H    0.136295
    48  H    0.140824
    49  H    0.144035
    50  H    0.150463
    51  H    0.133246
    52  H    0.132114
    53  H    0.146109
    54  H    0.143605
    55  H    0.148622
    56  H    0.152289
    57  H    0.152169
    58  H    0.155099
    59  H    0.142242
    60  H    0.162901
    61  H    0.151541
    62  H    0.151638
    63  H    0.141113
    64  H    0.385557
    65  H    0.153447
    66  H    0.152762
    67  H    0.149811
    68  H    0.149898
    69  H    0.152277
    70  H    0.168040
 Sum of Mulliken charges =  -0.00000

 Dipole moment (field-independent basis, Debye):
    X=             -1.6864    Y=             -0.7395    Z=             -2.3430  Tot=              2.9800
 Quadrupole moment (field-independent basis, Debye-Ang):
   XX=           -206.4895   YY=           -182.4923   ZZ=           -197.6311
   XY=             -5.4686   XZ=             -5.8442   YZ=              2.4589

 Normal termination of Gaussian 16 at Sat Nov  5 12:28:30 2022.
