 Gaussian 16, Revision B.01,
 Gaussian 16:  ES64L-G16RevB.01 20-Dec-2017

 -----------------------------
 #p b3lyp/6-31g(d) opt SCF=XQC
 -----------------------------

 ------------------------------
 Gaussian input prepared by ASE
 ------------------------------
 Symbolic Z-matrix:
 Charge =  0 Multiplicity = 1

 SCF Done:  E(RB3LYP) =  -1258.50731929     A.U. after   14 cycles
 SCF Done:  E(RB3LYP) =  -1258.51723717     A.U. after   12 cycles
 SCF Done:  E(RB3LYP) =  -1258.51806521     A.U. after   11 cycles
 SCF Done:  E(RB3LYP) =  -1258.51828123     A.U. after   11 cycles
 SCF Done:  E(RB3LYP) =  -1258.51836947     A.U. after   10 cycles
 SCF Done:  E(RB3LYP) =  -1258.51840795     A.U. after   10 cycles
 SCF Done:  E(RB3LYP) =  -1258.51842217     A.U. after    9 cycles
 SCF Done:  E(RB3LYP) =  -1258.51842491     A.U. after    9 cycles
 SCF Done:  E(RB3LYP) =  -1258.51842548     A.U. after    8 cycles
 SCF Done:  E(RB3LYP) =  -1258.51842573     A.U. after    7 cycles
 Optimization completed.
    -- Stationary point found.

                         Standard orientation:
 ---------------------------------------------------------------------
 Center     Atomic      Atomic             Coordinates (Angstroms)
 Number     Number       Type             X           Y           Z
 ---------------------------------------------------------------------
      1          6           0       -3.614787   -1.700041   -0.371145
      2          6           0       -3.564709   -0.182133   -0.139228
      3          6           0       -4.762687    0.503691   -0.857940
      4          6           0       -6.127298    0.097432   -0.338861
      5          6           0       -6.580429    0.559341    0.906269
      6          6           0       -7.831894    0.191508    1.399301
      7          6           0       -8.661308   -0.647854    0.651749
      8          6           0       -8.227246   -1.112176   -0.590008
      9          6           0       -6.972258   -0.741047   -1.077775
     10          6           0       -2.234936    0.471078   -0.589547
     11          6           0       -2.183498    2.010242   -0.289745
     12          6           0       -0.705043    2.373019    0.023321
     13          6           0        0.059771    1.109359   -0.404271
     14          6           0        1.509390    0.909892    0.000690
     15          6           0        2.029256   -0.334421    0.063090
     16          6           0        1.155965   -1.570251   -0.125325
     17          6           0       -0.280682   -1.314020   -0.631816
     18          6           0       -0.884944   -0.053001    0.002894
     19          6           0       -0.981384   -0.209207    1.536414
     20          6           0        3.504844   -0.595469    0.432216
     21          6           0        3.544876   -0.945704    1.945950
     22          6           0        4.114015   -1.786296   -0.383494
     23          6           0        5.648702   -1.720265   -0.607776
     24          6           0        6.419222   -0.927227    0.452524
     25          8           0        7.815834   -0.887323    0.166762
     26          6           0        5.836681    0.498887    0.639624
     27          6           0        4.374261    0.680007    0.132804
     28          6           0        4.418365    0.905656   -1.331136
     29          7           0        4.481619    1.128817   -2.469778
     30          6           0        3.725806    1.937919    0.752524
     31          6           0        2.319804    2.174098    0.196073
     32          1           0       -4.609151   -2.094703   -0.138843
     33          1           0       -2.896432   -2.235130    0.255641
     34          1           0       -3.394651   -1.946317   -1.418234
     35          1           0       -3.686713    0.001523    0.938437
     36          1           0       -4.698090    0.281664   -1.932118
     37          1           0       -4.663874    1.590788   -0.761020
     38          1           0       -5.945804    1.220914    1.492791
     39          1           0       -8.162855    0.564668    2.365271
     40          1           0       -9.638259   -0.933117    1.032864
     41          1           0       -8.865676   -1.762126   -1.183087
     42          1           0       -6.644014   -1.103958   -2.049385
     43          1           0       -2.166908    0.335553   -1.680786
     44          1           0       -2.830920    2.259340    0.559730
     45          1           0       -2.558652    2.586102   -1.141700
     46          1           0       -0.374981    3.268214   -0.513606
     47          1           0       -0.570962    2.575606    1.092438
     48          1           0        0.051655    1.125356   -1.508094
     49          1           0        1.106723   -2.112107    0.831672
     50          1           0        1.638530   -2.269848   -0.817037
     51          1           0       -0.880616   -2.208781   -0.437152
     52          1           0       -0.263357   -1.181066   -1.722290
     53          1           0       -1.553397   -1.105584    1.801021
     54          1           0       -1.481186    0.643517    2.007471
     55          1           0        0.008522   -0.298846    1.993573
     56          1           0        4.546948   -1.200742    2.301171
     57          1           0        3.159810   -0.130150    2.564373
     58          1           0        2.910481   -1.818281    2.131512
     59          1           0        3.855178   -2.722197    0.124090
     60          1           0        3.640645   -1.829036   -1.369106
     61          1           0        5.848925   -1.255479   -1.581915
     62          1           0        6.065457   -2.731828   -0.659747
     63          1           0        6.373683   -1.464534    1.404882
     64          1           0        7.918036   -0.509738   -0.722626
     65          1           0        5.876900    0.781518    1.697355
     66          1           0        6.482248    1.210226    0.111544
     67          1           0        3.689378    1.798083    1.837920
     68          1           0        4.362958    2.811197    0.569456
     69          1           0        1.780505    2.858559    0.862644
     70          1           0        2.384792    2.699502   -0.769027
 ---------------------------------------------------------------------

 The electronic state is 1-A.
 Alpha  occ. eigenvalues --  -19.14361 -14.32582 -10.23948 -10.23852 -10.21823
 Alpha  occ. eigenvalues --  -10.21804 -10.19931 -10.19707 -10.19164 -10.19079
 Alpha  occ. eigenvalues --  -10.19057 -10.19014 -10.18889 -10.18843 -10.18738
 Alpha  occ. eigenvalues --  -10.18681 -10.18641 -10.18610 -10.18578 -10.18508
 Alpha  occ. eigenvalues --  -10.18507 -10.18439 -10.18418 -10.18391 -10.18380
 Alpha  occ. eigenvalues --  -10.18296 -10.18014 -10.17982 -10.17864 -10.17167
 Alpha  occ. eigenvalues --  -10.16870  -1.01773  -0.90357  -0.87173  -0.85657
 Alpha  occ. eigenvalues --   -0.85016  -0.81108  -0.79996  -0.78955  -0.76838
 Alpha  occ. eigenvalues --   -0.75615  -0.74353  -0.73903  -0.72730  -0.71500
 Alpha  occ. eigenvalues --   -0.69859  -0.68735  -0.67416  -0.67179  -0.64256
 Alpha  occ. eigenvalues --   -0.62845  -0.61447  -0.60587  -0.60047  -0.58840
 Alpha  occ. eigenvalues --   -0.57672  -0.56554  -0.55075  -0.53392  -0.51415
 Alpha  occ. eigenvalues --   -0.50676  -0.49891  -0.48505  -0.48089  -0.47585
 Alpha  occ. eigenvalues --   -0.46815  -0.46206  -0.45517  -0.45257  -0.44623
 Alpha  occ. eigenvalues --   -0.44369  -0.44209  -0.43050  -0.42659  -0.41838
 Alpha  occ. eigenvalues --   -0.41440  -0.41381  -0.41018  -0.40355  -0.40180
 Alpha  occ. eigenvalues --   -0.39595  -0.39092  -0.39042  -0.38690  -0.38371
 Alpha  occ. eigenvalues --   -0.38217  -0.37610  -0.37311  -0.36923  -0.36623
 Alpha  occ. eigenvalues --   -0.35948  -0.35774  -0.35352  -0.35004  -0.34654
 Alpha  occ. eigenvalues --   -0.34307  -0.33795  -0.33604  -0.33361  -0.33111
 Alpha  occ. eigenvalues --   -0.32669  -0.32510  -0.31912  -0.31504  -0.31067
 Alpha  occ. eigenvalues --   -0.30652  -0.30356  -0.29745  -0.29512  -0.27438
 Alpha  occ. eigenvalues --   -0.26306  -0.24560  -0.23633  -0.22588
 Alpha virt. eigenvalues --    0.00136   0.00454   0.01643   0.03773   0.04245
 Alpha virt. eigenvalues --    0.06350   0.07392   0.08002   0.08483   0.09475
 Alpha virt. eigenvalues --    0.09599   0.09702   0.10622   0.11066   0.11580

 Mulliken charges:
               1
     1  C   -0.463127
     2  C   -0.085230
     3  C   -0.359640
     4  C    0.174366
     5  C   -0.179773
     6  C   -0.128897
     7  C   -0.131908
     8  C   -0.127770
     9  C   -0.185796
    10  C   -0.076043
    11  C   -0.299782
    12  C   -0.293036
    13  C   -0.162958
    14  C    0.108204
    15  C    0.079196
    16  C   -0.352451
    17  C   -0.279319
    18  C    0.088177
    19  C   -0.481025
    20  C    0.052933
    21  C   -0.474750
    22  C   -0.308861
    23  C   -0.312779
    24  C    0.149243
    25  O   -0.631743
    26  C   -0.308357
    27  C   -0.016210
    28  C    0.358879
    29  N   -0.508367
    30  C   -0.280570
    31  C   -0.358335
    32  H    0.156492
    33  H    0.147473
    34  H    0.135841
    35  H    0.123850
    36  H    0.134161
    37  H    0.152439
    38  H    0.120796
    39  H    0.127014
    40  H    0.126889
    41  H    0.127515
    42  H    0.123037
    43  H    0.110898
    44  H    0.134238
    45  H    0.141859
    46  H    0.137138
    47  H    0.136295
    48  H    0.140819
    49  H    0.144029
    50  H    0.150457
    51  H    0.133246
    52  H    0.132114
    53  H    0.146108
    54  H    0.143606
    55  H    0.148624
    56  H    0.152290
    57  H    0.152170
    58  H    0.155100
    59  H    0.142239
    60  H    0.162894
    61  H    0.151539
    62  H    0.151635
    63  H    0.141111
    64  H    0.385557
    65  H    0.153449
    66  H    0.152764
    67  H    0.149818
    68  H    0.149905
    69  H    0.152278
    70  H    0.168040
 Sum of Mulliken charges =  -0.00000

 Dipole moment (field-independent basis, Debye):
    X=             -1.7392    Y=             -0.1901    Z=              2.4125  Tot=              2.9801
 Quadrupole moment (field-independent basis, Debye-Ang):
   XX=           -206.5954   YY=           -185.9737   ZZ=           -193.1058
   XY=              2.5205   XZ=              6.5327   YZ=              6.9574

 Normal termination of Gaussian 16 at Fri Nov  4 21:09:28 2022.
