 Gaussian 16, Revision B.01,
 Gaussian 16:  ES64L-G16RevB.01 20-Dec-2017

 -------------------------------------------------------------------
 #p b3lyp/6-31g(d) 6D 10F nosymm GFInput td=(50-50,nstate=2) SCF=XQC
 -------------------------------------------------------------------

 ------------------------------
 Gaussian input prepared by ASE
 ------------------------------
 Symbolic Z-matrix:
 Charge =  0 Multiplicity = 1

                          Input orientation:
 ---------------------------------------------------------------------
 Center     Atomic      Atomic             Coordinates (Angstroms)
 Number     Number       Type             X           Y           Z
 ---------------------------------------------------------------------
      1          6           0       -0.897207   -6.765080    0.009262
      2          6           0        0.613600   -6.977116   -0.062608
      3          8           0        1.391979   -5.982436    0.607185
      4          6           0        1.484337   -4.727185   -0.033821
      5          6           0        2.789442   -4.061056    0.479479
      6          6           0        3.201697   -2.801041   -0.248194
      7          6           0        4.060776   -2.865080   -1.348145
      8          6           0        4.461180   -1.718989   -2.040111
      9          6           0        3.993387   -0.465470   -1.627468
     10          8           0        4.288125    0.727401   -2.226152
     11          6           0        5.213514    0.772259   -3.303799
     12          6           0        6.678692    0.705963   -2.870606
     13          7           0        7.046618    1.847251   -2.049210
     14          6           0        8.430371    1.814749   -1.608648
     15          6           0        8.851492    3.160932   -1.112976
     16          7           0        8.380513    4.309775   -1.472521
     17          6           0        9.149553    5.236903   -0.761190
     18          6           0        9.115996    6.632300   -0.722640
     19          6           0       10.039512    7.272101    0.104441
     20          6           0       10.969137    6.547289    0.872245
     21          6           0       11.012478    5.150682    0.843433
     22          6           0       10.085892    4.539544    0.013286
     23          8           0        9.890601    3.195860   -0.214714
     24          6           0        3.133391   -0.385036   -0.522496
     25          6           0        2.744974   -1.534363    0.152935
     26          6           0        0.297171   -3.811068    0.262882
     27          8           0       -0.172137   -3.001827   -0.491256
     28          8           0       -0.196044   -4.032902    1.538702
     29          6           0       -0.687205   -3.000241    2.320515
     30          8           0       -0.211164   -1.896995    2.327744
     31          6           0       -1.884626   -3.461316    3.151600
     32          6           0       -3.181802   -3.306794    2.312469
     33          6           0       -3.577119   -1.883071    1.989954
     34          6           0       -4.437743   -1.176671    2.834096
     35          6           0       -4.822720    0.139100    2.563596
     36          6           0       -4.334944    0.777106    1.417150
     37          8           0       -4.623740    2.062209    1.040612
     38          6           0       -5.451639    2.883125    1.867027
     39          6           0       -6.950645    2.674928    1.636937
     40          7           0       -7.416571    3.267308    0.382450
     41          6           0       -7.090556    2.479397   -0.811760
     42          6           0       -7.739470    3.063126   -2.022544
     43          7           0       -7.201908    3.376573   -3.154679
     44          6           0       -8.268361    3.843749   -3.929642
     45          6           0       -8.315135    4.325633   -5.239574
     46          6           0       -9.557251    4.728255   -5.730443
     47          6           0      -10.720556    4.655287   -4.942542
     48          6           0      -10.687557    4.175970   -3.630171
     49          6           0       -9.441928    3.781145   -3.166866
     50          8           0       -9.103940    3.271543   -1.935653
     51          6           0       -3.473345    0.080334    0.557775
     52          6           0       -3.102349   -1.227604    0.841700
     53          8           0       -1.809720   -4.819227    3.531950
     54          6           0       -1.041137   -5.105027    4.703276
     55          6           0        0.471866   -5.015805    4.515343
     56          1           0       -1.408750   -7.647374   -0.393647
     57          1           0       -1.219365   -5.902187   -0.584321
     58          1           0       -1.219345   -6.611099    1.043407
     59          1           0        0.884863   -7.912313    0.437434
     60          1           0        0.941850   -7.053044   -1.111694
     61          1           0        1.532937   -4.837596   -1.126356
     62          1           0        2.669724   -3.874708    1.553096
     63          1           0        3.560576   -4.832315    0.377745
     64          1           0        4.440514   -3.831112   -1.675851
     65          1           0        5.133491   -1.821320   -2.884369
     66          1           0        5.002035   -0.018781   -4.035602
     67          1           0        5.016460    1.731619   -3.794964
     68          1           0        7.294266    0.608772   -3.789960
     69          1           0        6.848637   -0.206460   -2.285898
     70          1           0        6.873367    2.724251   -2.537512
     71          1           0        9.141749    1.511816   -2.406888
     72          1           0        8.553202    1.082616   -0.800054
     73          1           0        8.396592    7.188351   -1.315054
     74          1           0       10.042748    8.356964    0.159605
     75          1           0       11.670331    7.084706    1.504126
     76          1           0       11.723429    4.580807    1.432045
     77          1           0        2.780308    0.593521   -0.213251
     78          1           0        2.067242   -1.445096    0.998191
     79          1           0       -1.933350   -2.801206    4.029190
     80          1           0       -3.060731   -3.898615    1.397753
     81          1           0       -3.962931   -3.796704    2.903730
     82          1           0       -4.832811   -1.662334    3.724421
     83          1           0       -5.503972    0.639421    3.242026
     84          1           0       -5.197481    2.732134    2.923803
     85          1           0       -5.193216    3.909422    1.592978
     86          1           0       -7.188019    1.598190    1.719695
     87          1           0       -7.478320    3.187262    2.451069
     88          1           0       -8.427917    3.372029    0.426484
     89          1           0       -7.399418    1.418811   -0.718189
     90          1           0       -6.012665    2.484646   -0.978057
     91          1           0       -7.415017    4.381438   -5.843230
     92          1           0       -9.631488    5.108375   -6.745360
     93          1           0      -11.668355    4.978810   -5.363171
     94          1           0      -11.578232    4.115347   -3.013794
     95          1           0       -3.099607    0.588217   -0.325791
     96          1           0       -2.421559   -1.740195    0.166884
     97          1           0       -1.326108   -6.128110    4.968365
     98          1           0       -1.366534   -4.445455    5.523756
     99          1           0        0.973551   -5.397152    5.412748
    100          1           0        0.792103   -5.607656    3.652762
    101          1           0        0.807443   -3.983093    4.368430
 ---------------------------------------------------------------------

 SCF Done:  E(RB3LYP) =  -2524.14950280     A.U. after   15 cycles

 Excitation energies and oscillator strengths:

 Excited state symmetry could not be determined.
 Excited State   1:      Triplet-?Sym    3.6604 eV  338.72 nm  f=0.0000  <S**2>=2.000
     191 ->203        -0.16453
     191 ->204        -0.29365
     193 ->205         0.15248
     198 ->204         0.20721
     198 ->208        -0.42778
     199 ->208        -0.10239
     199 ->209         0.21076
 This state for optimization and/or second-order correction.
 Total Energy, E(TD-HF/TD-DFT) =  -2524.01498727
 Copying the excited state density for this state as the 1-particle RhoCI density.

 Excited state symmetry could not be determined.
 Excited State   2:      Triplet-?Sym    3.6612 eV  338.64 nm  f=0.0000  <S**2>=2.000
     191 ->204        -0.14722
     193 ->205        -0.31879
     198 ->204         0.10664
     198 ->208        -0.22105
     199 ->205         0.22399
     199 ->209        -0.45078

 Excited state symmetry could not be determined.
 Excited State   3:      Singlet-?Sym    4.1286 eV  300.30 nm  f=0.0182  <S**2>=0.000
     198 ->200         0.11382
     199 ->200         0.68438

 Excited state symmetry could not be determined.
 Excited State   4:      Singlet-?Sym    4.2177 eV  293.96 nm  f=0.0090  <S**2>=0.000
     198 ->200         0.68377
     199 ->200        -0.12410

 Alpha  occ. eigenvalues --  -19.22374 -19.21990 -19.20640 -19.17245 -19.16689
 Alpha  occ. eigenvalues --  -19.15886 -19.15826 -19.15799 -19.15782 -14.33323
 Alpha  occ. eigenvalues --  -14.32838 -14.32718 -14.32214 -10.33011 -10.32991
 Alpha  occ. eigenvalues --  -10.28699 -10.28084 -10.25725 -10.25640 -10.24740
 Alpha  occ. eigenvalues --  -10.24492 -10.24242 -10.24162 -10.23915 -10.23855
 Alpha  occ. eigenvalues --  -10.23853 -10.23813 -10.23160 -10.22132 -10.21889
 Alpha  occ. eigenvalues --  -10.21815 -10.21586 -10.21478 -10.20140 -10.19928
 Alpha  occ. eigenvalues --  -10.19675 -10.19584 -10.19553 -10.19483 -10.19430
 Alpha  occ. eigenvalues --  -10.19309 -10.19284 -10.19068 -10.18678 -10.18603
 Alpha  occ. eigenvalues --  -10.18393 -10.18384 -10.18311 -10.18059 -10.17984
 Alpha  occ. eigenvalues --  -10.17795 -10.17784 -10.17687 -10.17601 -10.17219
 Alpha  occ. eigenvalues --   -1.13049  -1.12833  -1.12306  -1.06580  -1.05674
 Alpha  occ. eigenvalues --   -1.05399  -1.04119  -1.04034  -1.02282  -0.93231
 Alpha  occ. eigenvalues --   -0.92325  -0.91182  -0.91013  -0.85400  -0.85146
 Alpha  occ. eigenvalues --   -0.84900  -0.84621  -0.80338  -0.79693  -0.77916
 Alpha  occ. eigenvalues --   -0.77607  -0.75746  -0.75653  -0.75186  -0.74971
 Alpha  occ. eigenvalues --   -0.74386  -0.74241  -0.73645  -0.73336  -0.72886
 Alpha  occ. eigenvalues --   -0.71443  -0.69784  -0.69024  -0.67953  -0.65483
 Alpha  occ. eigenvalues --   -0.63979  -0.62729  -0.62387  -0.62166  -0.61796
 Alpha  occ. eigenvalues --   -0.61554  -0.61368  -0.60801  -0.60719  -0.60192
 Alpha  occ. eigenvalues --   -0.60074  -0.58822  -0.58428  -0.56923  -0.56794
 Alpha  occ. eigenvalues --   -0.53231  -0.53120  -0.52952  -0.52212  -0.51668
 Alpha  occ. eigenvalues --   -0.51532  -0.51121  -0.51037  -0.50542  -0.50290
 Alpha  occ. eigenvalues --   -0.50036  -0.49657  -0.49546  -0.48708  -0.48444
 Alpha  occ. eigenvalues --   -0.48019  -0.47944  -0.47567  -0.47161  -0.46391
 Alpha  occ. eigenvalues --   -0.46262  -0.46030  -0.45696  -0.45451  -0.45036
 Alpha  occ. eigenvalues --   -0.44931  -0.44888  -0.44475  -0.44429  -0.44376
 Alpha  occ. eigenvalues --   -0.44202  -0.43298  -0.43182  -0.42651  -0.42522
 Alpha  occ. eigenvalues --   -0.42153  -0.42042  -0.41438  -0.41300  -0.41256
 Alpha  occ. eigenvalues --   -0.41000  -0.40926  -0.40717  -0.40476  -0.40157
 Alpha  occ. eigenvalues --   -0.39858  -0.39514  -0.39426  -0.38508  -0.38340
 Alpha  occ. eigenvalues --   -0.38145  -0.38066  -0.37890  -0.37330  -0.37215
 Alpha  occ. eigenvalues --   -0.36832  -0.36630  -0.36246  -0.36121  -0.35627
 Alpha  occ. eigenvalues --   -0.35599  -0.35516  -0.35345  -0.35274  -0.35174
 Alpha  occ. eigenvalues --   -0.34510  -0.34449  -0.34197  -0.33926  -0.32620
 Alpha  occ. eigenvalues --   -0.32415  -0.32366  -0.32252  -0.31987  -0.31634
 Alpha  occ. eigenvalues --   -0.31374  -0.30810  -0.30640  -0.30313  -0.29269
 Alpha  occ. eigenvalues --   -0.29178  -0.28453  -0.26148  -0.25476  -0.24533
 Alpha  occ. eigenvalues --   -0.24382  -0.24229  -0.24052  -0.23561  -0.23514
 Alpha  occ. eigenvalues --   -0.22949  -0.22440  -0.20798  -0.20573
 Alpha virt. eigenvalues --   -0.03161  -0.02335  -0.02193   0.00026   0.00437
 Alpha virt. eigenvalues --    0.00780   0.00836   0.01067   0.01520   0.01849
 Alpha virt. eigenvalues --    0.03986   0.04297   0.07766   0.08279   0.08793

 Mulliken charges:
               1
     1  C   -0.482430
     2  C   -0.027182
     3  O   -0.474322
     4  C    0.084786
     5  C   -0.391778
     6  C    0.164028
     7  C   -0.196127
     8  C   -0.190157
     9  C    0.380304
    10  O   -0.508922
    11  C   -0.052555
    12  C   -0.131683
    13  N   -0.550185
    14  C   -0.190873
    15  C    0.523205
    16  N   -0.533695
    17  C    0.243329
    18  C   -0.170474
    19  C   -0.143832
    20  C   -0.144462
    21  C   -0.185030
    22  C    0.327224
    23  O   -0.509593
    24  C   -0.177988
    25  C   -0.188461
    26  C    0.618848
    27  O   -0.428035
    28  O   -0.472988
    29  C    0.618188
    30  O   -0.427572
    31  C    0.085414
    32  C   -0.392134
    33  C    0.164603
    34  C   -0.196633
    35  C   -0.185520
    36  C    0.373910
    37  O   -0.526356
    38  C   -0.037093
    39  C   -0.151536
    40  N   -0.562653
    41  C   -0.209099
    42  C    0.512426
    43  N   -0.506790
    44  C    0.232867
    45  C   -0.172045
    46  C   -0.143564
    47  C   -0.144631
    48  C   -0.184220
    49  C    0.332089
    50  O   -0.517487
    51  C   -0.181550
    52  C   -0.188253
    53  O   -0.474334
    54  C   -0.027493
    55  C   -0.482189
    56  H    0.145789
    57  H    0.156384
    58  H    0.184915
    59  H    0.150912
    60  H    0.127809
    61  H    0.149933
    62  H    0.169015
    63  H    0.165114
    64  H    0.118527
    65  H    0.125700
    66  H    0.143074
    67  H    0.154872
    68  H    0.112391
    69  H    0.156761
    70  H    0.322455
    71  H    0.144910
    72  H    0.176423
    73  H    0.146590
    74  H    0.133623
    75  H    0.135092
    76  H    0.148388
    77  H    0.145374
    78  H    0.159806
    79  H    0.149777
    80  H    0.169848
    81  H    0.165523
    82  H    0.120267
    83  H    0.127889
    84  H    0.142596
    85  H    0.171646
    86  H    0.134408
    87  H    0.142369
    88  H    0.313864
    89  H    0.144748
    90  H    0.209657
    91  H    0.147481
    92  H    0.132483
    93  H    0.133711
    94  H    0.144804
    95  H    0.146319
    96  H    0.162804
    97  H    0.151089
    98  H    0.127728
    99  H    0.145893
   100  H    0.185334
   101  H    0.156607
 Sum of Mulliken charges =  -0.00000

 Dipole moment (field-independent basis, Debye):
    X=              0.0061    Y=             -2.8306    Z=              1.4949  Tot=              3.2011
 Quadrupole moment (field-independent basis, Debye-Ang):
   XX=           -251.0579   YY=           -292.1618   ZZ=           -289.7666
   XY=             -3.2771   XZ=            -17.9972   YZ=              0.8408

 Normal termination of Gaussian 16 at Fri Nov  4 23:54:06 2022.
