 Gaussian 16, Revision B.01,
 Gaussian 16:  ES64L-G16RevB.01 20-Dec-2017

 -----------------------------
 #p b3lyp/6-31g(d) opt SCF=XQC
 -----------------------------

 ------------------------------
 Gaussian input prepared by ASE
 ------------------------------
 Symbolic Z-matrix:
 Charge =  0 Multiplicity = 1

 SCF Done:  E(RB3LYP) =  -2524.13294748     A.U. after   15 cycles
 SCF Done:  E(RB3LYP) =  -2524.14555135     A.U. after   12 cycles
 SCF Done:  E(RB3LYP) =  -2524.14523219     A.U. after   13 cycles
 SCF Done:  E(RB3LYP) =  -2524.14833735     A.U. after   13 cycles
 SCF Done:  E(RB3LYP) =  -2524.14901748     A.U. after   12 cycles
 SCF Done:  E(RB3LYP) =  -2524.14902790     A.U. after   11 cycles
 SCF Done:  E(RB3LYP) =  -2524.14931464     A.U. after   11 cycles
 SCF Done:  E(RB3LYP) =  -2524.14932817     A.U. after   12 cycles
 SCF Done:  E(RB3LYP) =  -2524.14944607     A.U. after   11 cycles
 SCF Done:  E(RB3LYP) =  -2524.14947395     A.U. after   10 cycles
 SCF Done:  E(RB3LYP) =  -2524.14950646     A.U. after   10 cycles
 SCF Done:  E(RB3LYP) =  -2524.14950830     A.U. after    9 cycles
 SCF Done:  E(RB3LYP) =  -2524.14950924     A.U. after    9 cycles
 SCF Done:  E(RB3LYP) =  -2524.14950952     A.U. after    7 cycles
 SCF Done:  E(RB3LYP) =  -2524.14950971     A.U. after    8 cycles
 SCF Done:  E(RB3LYP) =  -2524.14950982     A.U. after    7 cycles
 SCF Done:  E(RB3LYP) =  -2524.14950991     A.U. after    7 cycles
 SCF Done:  E(RB3LYP) =  -2524.14950992     A.U. after    6 cycles
 SCF Done:  E(RB3LYP) =  -2524.14950993     A.U. after    6 cycles
 SCF Done:  E(RB3LYP) =  -2524.14950994     A.U. after    5 cycles
 Optimization completed.
    -- Stationary point found.

                         Standard orientation:
 ---------------------------------------------------------------------
 Center     Atomic      Atomic             Coordinates (Angstroms)
 Number     Number       Type             X           Y           Z
 ---------------------------------------------------------------------
      1          6           0        1.144106    6.530571   -2.474773
      2          6           0       -0.354628    6.722772   -2.697302
      3          8           0       -1.192044    6.078854   -1.733981
      4          6           0       -1.302141    4.674913   -1.843082
      5          6           0       -2.648254    4.281629   -1.176891
      6          6           0       -3.074601    2.844896   -1.379686
      7          6           0       -3.887443    2.491088   -2.459555
      8          6           0       -4.299458    1.172997   -2.672967
      9          6           0       -3.891187    0.170390   -1.784987
     10          8           0       -4.202913   -1.156335   -1.889208
     11          6           0       -5.086564   -1.600750   -2.909666
     12          6           0       -6.564402   -1.347588   -2.608499
     13          7           0       -7.002836   -2.074481   -1.428667
     14          6           0       -8.400799   -1.850931   -1.103635
     15          6           0       -8.886649   -2.892168   -0.147070
     16          7           0       -8.441509   -4.098039   -0.010464
     17          6           0       -9.268912   -4.663742    0.965428
     18          6           0       -9.284549   -5.935163    1.542480
     19          6           0      -10.260924   -6.188654    2.506185
     20          6           0      -11.194493   -5.207584    2.887012
     21          6           0      -11.188964   -3.931109    2.317976
     22          6           0      -10.210383   -3.705270    1.362690
     23          8           0       -9.960583   -2.558766    0.642457
     24          6           0       -3.078184    0.511025   -0.694106
     25          6           0       -2.677386    1.825877   -0.497760
     26          6           0       -0.159422    3.926459   -1.157023
     27          8           0        0.311032    2.880420   -1.515241
     28          8           0        0.290951    4.617928   -0.043819
     29          6           0        0.715703    3.961724    1.099789
     30          8           0        0.202350    2.955693    1.509898
     31          6           0        1.894848    4.689541    1.745551
     32          6           0        3.217728    4.200292    1.096469
     33          6           0        3.576478    2.756733    1.369805
     34          6           0        4.378905    2.419318    2.462743
     35          6           0        4.728986    1.095589    2.741698
     36          6           0        4.264789    0.070744    1.908914
     37          8           0        4.524001   -1.264303    2.073634
     38          6           0        5.290529   -1.713586    3.192946
     39          6           0        6.803602   -1.635541    2.974253
     40          7           0        7.297596   -2.675866    2.071241
     41          6           0        7.045494   -2.407936    0.650718
     42          6           0        7.720821   -3.426322   -0.206400
     43          7           0        7.217429   -4.145724   -1.154033
     44          6           0        8.296718   -4.894403   -1.634406
     45          6           0        8.378059   -5.847571   -2.651842
     46          6           0        9.623900   -6.429387   -2.886957
     47          6           0       10.757406   -6.075403   -2.132472
     48          6           0       10.689640   -5.123880   -1.111119
     49          6           0        9.441099   -4.559888   -0.898540
     50          8           0        9.072952   -3.606966    0.021362
     51          6           0        3.461653    0.393391    0.805628
     52          6           0        3.124743    1.714883    0.542753
     53          8           0        1.851576    6.089662    1.566691
     54          6           0        1.048107    6.820155    2.496865
     55          6           0       -0.458581    6.689747    2.283919
     56          1           0        1.700799    7.178864   -3.161987
     57          1           0        1.459515    5.499807   -2.671630
     58          1           0        1.420224    6.784742   -1.447109
     59          1           0       -0.613094    7.783031   -2.612051
     60          1           0       -0.638933    6.390979   -3.708825
     61          1           0       -1.304300    4.353461   -2.894201
     62          1           0       -2.576928    4.524603   -0.110313
     63          1           0       -3.388049    4.965459   -1.606912
     64          1           0       -4.220906    3.260302   -3.153760
     65          1           0       -4.934448    0.950648   -3.523024
     66          1           0       -4.819821   -1.159276   -3.879178
     67          1           0       -4.903378   -2.678614   -2.981045
     68          1           0       -7.139979   -1.604743   -3.522924
     69          1           0       -6.725767   -0.277116   -2.431492
     70          1           0       -6.840720   -3.074953   -1.530448
     71          1           0       -9.069748   -1.869931   -1.990856
     72          1           0       -8.529999   -0.860478   -0.648399
     73          1           0       -8.561996   -6.689220    1.247517
     74          1           0      -10.303350   -7.166874    2.976574
     75          1           0      -11.937735   -5.446119    3.642296
     76          1           0      -11.902456   -3.165927    2.604506
     77          1           0       -2.771048   -0.276459   -0.013365
     78          1           0       -2.036575    2.060562    0.348427
     79          1           0        1.886744    4.421039    2.811442
     80          1           0        3.152698    4.392643    0.019255
     81          1           0        3.991478    4.868418    1.489767
     82          1           0        4.755305    3.205903    3.114074
     83          1           0        5.365782    0.886698    3.593489
     84          1           0        5.000657   -1.160183    4.095104
     85          1           0        5.008098   -2.761425    3.324984
     86          1           0        7.074195   -0.615112    2.645523
     87          1           0        7.281326   -1.800329    3.948094
     88          1           0        8.302290   -2.771813    2.202050
     89          1           0        7.386505   -1.399364    0.341709
     90          1           0        5.975357   -2.459683    0.446606
     91          1           0        7.500786   -6.118541   -3.230370
     92          1           0        9.724636   -7.174741   -3.670767
     93          1           0       11.709288   -6.552259   -2.347992
     94          1           0       11.557151   -4.843378   -0.523207
     95          1           0        3.105532   -0.411395    0.170166
     96          1           0        2.488687    1.936477   -0.310435
     97          1           0        1.357290    7.861123    2.359125
     98          1           0        1.318548    6.525461    3.523569
     99          1           0       -0.981566    7.397618    2.938024
    100          1           0       -0.724540    6.905614    1.244903
    101          1           0       -0.823239    5.686596    2.531711
 ---------------------------------------------------------------------

 The electronic state is 1-A.
 Alpha  occ. eigenvalues --  -19.22374 -19.21989 -19.20640 -19.17245 -19.16689
 Alpha  occ. eigenvalues --  -19.15887 -19.15826 -19.15799 -19.15782 -14.33323
 Alpha  occ. eigenvalues --  -14.32838 -14.32718 -14.32214 -10.33011 -10.32991
 Alpha  occ. eigenvalues --  -10.28699 -10.28084 -10.25725 -10.25640 -10.24740
 Alpha  occ. eigenvalues --  -10.24491 -10.24242 -10.24162 -10.23915 -10.23855
 Alpha  occ. eigenvalues --  -10.23853 -10.23813 -10.23160 -10.22132 -10.21889
 Alpha  occ. eigenvalues --  -10.21815 -10.21586 -10.21478 -10.20140 -10.19928
 Alpha  occ. eigenvalues --  -10.19675 -10.19584 -10.19553 -10.19483 -10.19430
 Alpha  occ. eigenvalues --  -10.19309 -10.19284 -10.19068 -10.18678 -10.18603
 Alpha  occ. eigenvalues --  -10.18393 -10.18385 -10.18311 -10.18059 -10.17984
 Alpha  occ. eigenvalues --  -10.17795 -10.17784 -10.17687 -10.17601 -10.17219
 Alpha  occ. eigenvalues --   -1.13049  -1.12833  -1.12306  -1.06580  -1.05674
 Alpha  occ. eigenvalues --   -1.05399  -1.04119  -1.04034  -1.02281  -0.93231
 Alpha  occ. eigenvalues --   -0.92325  -0.91182  -0.91013  -0.85401  -0.85146
 Alpha  occ. eigenvalues --   -0.84900  -0.84621  -0.80338  -0.79693  -0.77916
 Alpha  occ. eigenvalues --   -0.77607  -0.75746  -0.75653  -0.75186  -0.74970
 Alpha  occ. eigenvalues --   -0.74386  -0.74241  -0.73645  -0.73336  -0.72886
 Alpha  occ. eigenvalues --   -0.71443  -0.69784  -0.69024  -0.67953  -0.65483
 Alpha  occ. eigenvalues --   -0.63979  -0.62729  -0.62387  -0.62166  -0.61796
 Alpha  occ. eigenvalues --   -0.61554  -0.61368  -0.60801  -0.60719  -0.60192
 Alpha  occ. eigenvalues --   -0.60074  -0.58822  -0.58428  -0.56923  -0.56794
 Alpha  occ. eigenvalues --   -0.53231  -0.53120  -0.52952  -0.52212  -0.51668
 Alpha  occ. eigenvalues --   -0.51532  -0.51121  -0.51037  -0.50542  -0.50290
 Alpha  occ. eigenvalues --   -0.50036  -0.49657  -0.49546  -0.48708  -0.48444
 Alpha  occ. eigenvalues --   -0.48019  -0.47944  -0.47567  -0.47161  -0.46391
 Alpha  occ. eigenvalues --   -0.46262  -0.46030  -0.45696  -0.45451  -0.45036
 Alpha  occ. eigenvalues --   -0.44931  -0.44888  -0.44475  -0.44429  -0.44376
 Alpha  occ. eigenvalues --   -0.44202  -0.43298  -0.43182  -0.42651  -0.42522
 Alpha  occ. eigenvalues --   -0.42153  -0.42042  -0.41438  -0.41300  -0.41256
 Alpha  occ. eigenvalues --   -0.41000  -0.40926  -0.40717  -0.40476  -0.40157
 Alpha  occ. eigenvalues --   -0.39858  -0.39514  -0.39426  -0.38508  -0.38340
 Alpha  occ. eigenvalues --   -0.38145  -0.38066  -0.37890  -0.37330  -0.37215
 Alpha  occ. eigenvalues --   -0.36832  -0.36630  -0.36246  -0.36121  -0.35627
 Alpha  occ. eigenvalues --   -0.35599  -0.35516  -0.35345  -0.35274  -0.35174
 Alpha  occ. eigenvalues --   -0.34510  -0.34449  -0.34197  -0.33926  -0.32620
 Alpha  occ. eigenvalues --   -0.32415  -0.32366  -0.32252  -0.31987  -0.31634
 Alpha  occ. eigenvalues --   -0.31374  -0.30810  -0.30640  -0.30313  -0.29269
 Alpha  occ. eigenvalues --   -0.29178  -0.28453  -0.26148  -0.25476  -0.24533
 Alpha  occ. eigenvalues --   -0.24382  -0.24229  -0.24052  -0.23561  -0.23514
 Alpha  occ. eigenvalues --   -0.22949  -0.22440  -0.20798  -0.20573
 Alpha virt. eigenvalues --   -0.03161  -0.02335  -0.02193   0.00026   0.00437
 Alpha virt. eigenvalues --    0.00780   0.00836   0.01067   0.01520   0.01849
 Alpha virt. eigenvalues --    0.03986   0.04297   0.07767   0.08279   0.08793

 Mulliken charges:
               1
     1  C   -0.482421
     2  C   -0.027182
     3  O   -0.474326
     4  C    0.084809
     5  C   -0.391777
     6  C    0.164032
     7  C   -0.196124
     8  C   -0.190177
     9  C    0.380323
    10  O   -0.508923
    11  C   -0.052546
    12  C   -0.131688
    13  N   -0.550187
    14  C   -0.190873
    15  C    0.523209
    16  N   -0.533695
    17  C    0.243334
    18  C   -0.170471
    19  C   -0.143836
    20  C   -0.144460
    21  C   -0.185031
    22  C    0.327215
    23  O   -0.509592
    24  C   -0.177992
    25  C   -0.188472
    26  C    0.618844
    27  O   -0.428041
    28  O   -0.472999
    29  C    0.618210
    30  O   -0.427577
    31  C    0.085405
    32  C   -0.392131
    33  C    0.164605
    34  C   -0.196638
    35  C   -0.185531
    36  C    0.373909
    37  O   -0.526352
    38  C   -0.037068
    39  C   -0.151555
    40  N   -0.562647
    41  C   -0.209108
    42  C    0.512427
    43  N   -0.506793
    44  C    0.232856
    45  C   -0.172039
    46  C   -0.143561
    47  C   -0.144641
    48  C   -0.184214
    49  C    0.332101
    50  O   -0.517489
    51  C   -0.181556
    52  C   -0.188243
    53  O   -0.474334
    54  C   -0.027492
    55  C   -0.482194
    56  H    0.145789
    57  H    0.156383
    58  H    0.184905
    59  H    0.150911
    60  H    0.127809
    61  H    0.149928
    62  H    0.169013
    63  H    0.165116
    64  H    0.118528
    65  H    0.125703
    66  H    0.143073
    67  H    0.154871
    68  H    0.112391
    69  H    0.156761
    70  H    0.322456
    71  H    0.144909
    72  H    0.176422
    73  H    0.146590
    74  H    0.133623
    75  H    0.135093
    76  H    0.148389
    77  H    0.145373
    78  H    0.159808
    79  H    0.149777
    80  H    0.169846
    81  H    0.165525
    82  H    0.120266
    83  H    0.127891
    84  H    0.142591
    85  H    0.171644
    86  H    0.134412
    87  H    0.142370
    88  H    0.313863
    89  H    0.144749
    90  H    0.209659
    91  H    0.147481
    92  H    0.132482
    93  H    0.133712
    94  H    0.144804
    95  H    0.146318
    96  H    0.162805
    97  H    0.151091
    98  H    0.127729
    99  H    0.145895
   100  H    0.185336
   101  H    0.156608
 Sum of Mulliken charges =  -0.00000

 Dipole moment (field-independent basis, Debye):
    X=              0.0322    Y=              3.1887    Z=              0.2811  Tot=              3.2012
 Quadrupole moment (field-independent basis, Debye-Ang):
   XX=           -252.7865   YY=           -290.5584   ZZ=           -287.6267
   XY=              3.3500   XZ=             19.6780   YZ=              0.5131

 Normal termination of Gaussian 16 at Fri Nov  4 21:47:39 2022.
