 Gaussian 16, Revision B.01,
 Gaussian 16:  ES64L-G16RevB.01 20-Dec-2017

 -------------------------------------------------------------------
 #p b3lyp/6-31g(d) 6D 10F nosymm GFInput td=(50-50,nstate=2) SCF=XQC
 -------------------------------------------------------------------

 ------------------------------
 Gaussian input prepared by ASE
 ------------------------------
 Symbolic Z-matrix:
 Charge =  0 Multiplicity = 1

                          Input orientation:
 ---------------------------------------------------------------------
 Center     Atomic      Atomic             Coordinates (Angstroms)
 Number     Number       Type             X           Y           Z
 ---------------------------------------------------------------------
      1          6           0        4.276845    2.747594   -1.606514
      2          6           0        4.686697    1.408811   -1.047857
      3          6           0        6.018381    0.996509   -1.008509
      4          6           0        6.395864   -0.243486   -0.488463
      5          6           0        5.432643   -1.122139    0.013768
      6          6           0        5.811531   -2.482402    0.586806
      7          6           0        6.710339   -2.350036    1.830734
      8          6           0        6.465137   -3.389424   -0.472830
      9          6           0        4.087802   -0.724140   -0.019606
     10          6           0        3.719267    0.519995   -0.539304
     11          8           0        2.423880    0.971598   -0.605512
     12          6           0        1.387453    0.144639   -0.090263
     13          6           0        0.069272    0.863020   -0.275184
     14          6           0        0.032886    2.251104   -0.360612
     15          7           0       -1.053466    2.965988   -0.686420
     16          6           0       -2.151204    2.249158   -0.961051
     17          6           0       -3.362878    3.000576   -1.429012
     18          6           0       -4.484034    3.128857   -0.586004
     19          6           0       -4.495450    2.535603    0.804584
     20          6           0       -5.598723    3.837249   -1.048797
     21          6           0       -5.608987    4.403575   -2.320977
     22          6           0       -4.494030    4.272521   -3.145352
     23          6           0       -3.357712    3.579085   -2.714382
     24          6           0       -2.157535    3.456713   -3.626341
     25          7           0       -2.259000    0.920219   -0.855656
     26          6           0       -1.175377    0.209948   -0.487733
     27          7           0       -1.342855   -1.160236   -0.389343
     28          6           0       -2.556960   -1.783582   -0.912161
     29          6           0       -3.598743   -2.032132    0.205612
     30          7           0       -2.978876   -2.274310    1.525231
     31          6           0       -2.997979   -1.153288    2.470463
     32          6           0       -3.423554   -1.532101    3.899933
     33          7           0       -4.203145   -2.644703    3.973550
     34          8           0       -3.124409   -0.831705    4.856691
     35          6           0       -1.666182   -2.913969    1.352850
     36          6           0       -1.058180   -3.437310    2.655331
     37          6           0       -0.660233   -1.973741    0.622845
     38          1           0        3.803061    3.374951   -0.841177
     39          1           0        5.145202    3.287127   -1.996758
     40          1           0        3.546115    2.638492   -2.416392
     41          1           0        6.781398    1.667676   -1.396734
     42          1           0        7.446906   -0.519262   -0.478881
     43          1           0        4.880115   -2.970580    0.906301
     44          1           0        6.923149   -3.335873    2.261566
     45          1           0        7.669501   -1.882300    1.579476
     46          1           0        6.232308   -1.735670    2.601452
     47          1           0        7.414274   -2.968664   -0.824976
     48          1           0        6.675137   -4.382114   -0.056571
     49          1           0        5.813075   -3.514464   -1.344215
     50          1           0        3.335128   -1.403630    0.365976
     51          1           0        1.599312   -0.076668    0.966618
     52          1           0        1.369715   -0.811123   -0.630501
     53          1           0        0.946128    2.816125   -0.196550
     54          1           0       -3.624749    2.856459    1.388525
     55          1           0       -4.469524    1.440506    0.768561
     56          1           0       -5.394958    2.836477    1.350222
     57          1           0       -6.463683    3.946388   -0.398765
     58          1           0       -6.482711    4.949389   -2.667922
     59          1           0       -4.498426    4.715065   -4.138682
     60          1           0       -2.362970    3.907370   -4.602258
     61          1           0       -1.881329    2.408012   -3.792560
     62          1           0       -1.281632    3.952553   -3.194620
     63          1           0       -2.263047   -2.733898   -1.377003
     64          1           0       -2.976514   -1.143786   -1.686863
     65          1           0       -4.264540   -1.169683    0.286619
     66          1           0       -4.216798   -2.898060   -0.074013
     67          1           0       -2.041041   -0.623352    2.563723
     68          1           0       -3.721959   -0.406590    2.127715
     69          1           0       -4.480411   -2.987818    4.881606
     70          1           0       -4.271950   -3.235196    3.155864
     71          1           0       -1.843625   -3.782861    0.705316
     72          1           0       -0.097087   -3.922688    2.449551
     73          1           0       -0.876998   -2.634091    3.377457
     74          1           0       -1.717364   -4.173065    3.124703
     75          1           0        0.137817   -2.590841    0.182646
     76          1           0       -0.195509   -1.308373    1.355304
 ---------------------------------------------------------------------

 SCF Done:  E(RB3LYP) =  -1590.90329843     A.U. after   15 cycles

 Excitation energies and oscillator strengths:

 Excited state symmetry could not be determined.
 Excited State   1:      Triplet-?Sym    3.5870 eV  345.65 nm  f=0.0000  <S**2>=2.000
     126 ->136        -0.11146
     131 ->139         0.10128
     131 ->140         0.10213
     132 ->136         0.32605
     132 ->137         0.22160
     132 ->139         0.21982
     132 ->140         0.19911
     133 ->141        -0.34970
     135 ->136        -0.13080
     135 ->137        -0.16884
 This state for optimization and/or second-order correction.
 Total Energy, E(TD-HF/TD-DFT) =  -1590.77147752
 Copying the excited state density for this state as the 1-particle RhoCI density.

 Excited state symmetry could not be determined.
 Excited State   2:      Triplet-?Sym    3.6459 eV  340.07 nm  f=0.0000  <S**2>=2.000
     130 ->138        -0.31265
     130 ->139         0.18045
     134 ->138        -0.36509
     134 ->139        -0.21824
     134 ->140         0.32406
     135 ->138         0.17286
     135 ->140        -0.13704

 Excited state symmetry could not be determined.
 Excited State   3:      Singlet-?Sym    4.3825 eV  282.91 nm  f=0.0380  <S**2>=0.000
     129 ->136        -0.11156
     131 ->136         0.14437
     134 ->136         0.19857
     135 ->136         0.64224

 Excited state symmetry could not be determined.
 Excited State   4:      Singlet-?Sym    4.5044 eV  275.25 nm  f=0.0121  <S**2>=0.000
     129 ->136         0.43932
     131 ->136        -0.11945
     132 ->136        -0.31376
     134 ->136         0.42298

 Alpha  occ. eigenvalues --  -19.18234 -19.10415 -14.36985 -14.34977 -14.34632
 Alpha  occ. eigenvalues --  -14.32793 -14.32039 -10.28083 -10.27643 -10.25906
 Alpha  occ. eigenvalues --  -10.25389 -10.24462 -10.23943 -10.23841 -10.22758
 Alpha  occ. eigenvalues --  -10.22560 -10.22342 -10.22171 -10.20747 -10.19595
 Alpha  occ. eigenvalues --  -10.19507 -10.19130 -10.18970 -10.18951 -10.18886
 Alpha  occ. eigenvalues --  -10.18495 -10.18455 -10.18344 -10.17873 -10.17783
 Alpha  occ. eigenvalues --  -10.17752 -10.17649 -10.17601 -10.17508 -10.17476
 Alpha  occ. eigenvalues --  -10.17422 -10.17056  -1.06877  -1.02287  -0.99642
 Alpha  occ. eigenvalues --   -0.96238  -0.92817  -0.89597  -0.86991  -0.85603
 Alpha  occ. eigenvalues --   -0.84997  -0.81502  -0.79980  -0.79836  -0.77096
 Alpha  occ. eigenvalues --   -0.75954  -0.75671  -0.75268  -0.73517  -0.71821
 Alpha  occ. eigenvalues --   -0.70609  -0.69267  -0.68309  -0.68171  -0.67370
 Alpha  occ. eigenvalues --   -0.66805  -0.65661  -0.63340  -0.62167  -0.60487
 Alpha  occ. eigenvalues --   -0.59612  -0.58850  -0.58039  -0.56756  -0.56274
 Alpha  occ. eigenvalues --   -0.55598  -0.54026  -0.53637  -0.52929  -0.51592
 Alpha  occ. eigenvalues --   -0.50679  -0.49483  -0.49344  -0.48668  -0.48298
 Alpha  occ. eigenvalues --   -0.47070  -0.46797  -0.46565  -0.45896  -0.45258
 Alpha  occ. eigenvalues --   -0.44693  -0.44057  -0.43491  -0.43046  -0.42962
 Alpha  occ. eigenvalues --   -0.42712  -0.42150  -0.41618  -0.41323  -0.41236
 Alpha  occ. eigenvalues --   -0.40908  -0.40778  -0.40660  -0.40368  -0.40186
 Alpha  occ. eigenvalues --   -0.39839  -0.39387  -0.39186  -0.39130  -0.38987
 Alpha  occ. eigenvalues --   -0.38581  -0.38568  -0.37624  -0.37046  -0.36490
 Alpha  occ. eigenvalues --   -0.36360  -0.36221  -0.36029  -0.35492  -0.35259
 Alpha  occ. eigenvalues --   -0.34937  -0.34351  -0.33503  -0.33268  -0.33101
 Alpha  occ. eigenvalues --   -0.32684  -0.32213  -0.31576  -0.31318  -0.28823
 Alpha  occ. eigenvalues --   -0.27874  -0.26339  -0.25360  -0.24586  -0.23957
 Alpha  occ. eigenvalues --   -0.23286  -0.22904  -0.22736  -0.21423  -0.21307
 Alpha virt. eigenvalues --   -0.02727  -0.01759   0.00470   0.01145   0.01335
 Alpha virt. eigenvalues --    0.01473   0.02990   0.05373   0.07335   0.08247
 Alpha virt. eigenvalues --    0.08639   0.09299   0.09453   0.10430   0.10589

 Mulliken charges:
               1
     1  C   -0.516952
     2  C    0.122397
     3  C   -0.190739
     4  C   -0.188240
     5  C    0.185869
     6  C   -0.160302
     7  C   -0.437379
     8  C   -0.437322
     9  C   -0.271130
    10  C    0.338612
    11  O   -0.538363
    12  C   -0.093966
    13  C    0.058191
    14  C    0.019762
    15  N   -0.437562
    16  C    0.291295
    17  C    0.021364
    18  C    0.168531
    19  C   -0.547594
    20  C   -0.202386
    21  C   -0.110310
    22  C   -0.202071
    23  C    0.167802
    24  C   -0.535902
    25  N   -0.531197
    26  C    0.487871
    27  N   -0.482411
    28  C   -0.162138
    29  C   -0.140293
    30  N   -0.410339
    31  C   -0.240933
    32  C    0.576613
    33  N   -0.736368
    34  O   -0.512794
    35  C    0.010107
    36  C   -0.469827
    37  C   -0.147304
    38  H    0.164823
    39  H    0.148552
    40  H    0.167192
    41  H    0.122050
    42  H    0.119993
    43  H    0.121714
    44  H    0.139790
    45  H    0.145449
    46  H    0.149327
    47  H    0.145563
    48  H    0.139664
    49  H    0.147695
    50  H    0.122215
    51  H    0.154540
    52  H    0.158742
    53  H    0.164268
    54  H    0.169911
    55  H    0.170531
    56  H    0.152792
    57  H    0.118834
    58  H    0.123888
    59  H    0.118805
    60  H    0.147622
    61  H    0.156455
    62  H    0.184036
    63  H    0.145854
    64  H    0.194236
    65  H    0.167504
    66  H    0.137986
    67  H    0.161403
    68  H    0.186949
    69  H    0.336428
    70  H    0.345844
    71  H    0.142164
    72  H    0.150240
    73  H    0.172419
    74  H    0.158635
    75  H    0.143916
    76  H    0.157378
 Sum of Mulliken charges =  -0.00000

 Dipole moment (field-independent basis, Debye):
    X=              0.2980    Y=             -5.9329    Z=             -1.5088  Tot=              6.1290
 Quadrupole moment (field-independent basis, Debye-Ang):
   XX=           -208.4514   YY=           -210.3858   ZZ=           -235.8172
   XY=             11.2300   XZ=              3.8857   YZ=            -10.1944

 Normal termination of Gaussian 16 at Sat Nov  5 12:28:27 2022.
