 Gaussian 16, Revision B.01,
 Gaussian 16:  ES64L-G16RevB.01 20-Dec-2017

 -----------------------------
 #p b3lyp/6-31g(d) opt SCF=XQC
 -----------------------------

 ------------------------------
 Gaussian input prepared by ASE
 ------------------------------
 Symbolic Z-matrix:
 Charge =  0 Multiplicity = 1

 SCF Done:  E(RB3LYP) =  -1590.88406101     A.U. after   15 cycles
 SCF Done:  E(RB3LYP) =  -1590.89289080     A.U. after   13 cycles
 SCF Done:  E(RB3LYP) =  -1590.89462548     A.U. after   12 cycles
 SCF Done:  E(RB3LYP) =  -1590.89603684     A.U. after   12 cycles
 SCF Done:  E(RB3LYP) =  -1590.89679517     A.U. after   12 cycles
 SCF Done:  E(RB3LYP) =  -1590.89747049     A.U. after   11 cycles
 SCF Done:  E(RB3LYP) =  -1590.89830227     A.U. after   12 cycles
 SCF Done:  E(RB3LYP) =  -1590.89864925     A.U. after   13 cycles
 SCF Done:  E(RB3LYP) =  -1590.89914932     A.U. after   11 cycles
 SCF Done:  E(RB3LYP) =  -1590.89913796     A.U. after   12 cycles
 SCF Done:  E(RB3LYP) =  -1590.90329633     A.U. after    9 cycles
 SCF Done:  E(RB3LYP) =  -1590.90329919     A.U. after    9 cycles
 SCF Done:  E(RB3LYP) =  -1590.90330218     A.U. after    9 cycles
 SCF Done:  E(RB3LYP) =  -1590.90330296     A.U. after    7 cycles
 SCF Done:  E(RB3LYP) =  -1590.90330403     A.U. after    8 cycles
 SCF Done:  E(RB3LYP) =  -1590.90330447     A.U. after    8 cycles
 SCF Done:  E(RB3LYP) =  -1590.90330455     A.U. after    7 cycles
 SCF Done:  E(RB3LYP) =  -1590.90330463     A.U. after    7 cycles
 SCF Done:  E(RB3LYP) =  -1590.90330467     A.U. after    6 cycles
 SCF Done:  E(RB3LYP) =  -1590.90330468     A.U. after    6 cycles
 Optimization completed.
    -- Stationary point found.

                         Standard orientation:
 ---------------------------------------------------------------------
 Center     Atomic      Atomic             Coordinates (Angstroms)
 Number     Number       Type             X           Y           Z
 ---------------------------------------------------------------------
      1          6           0        3.563771   -3.987196   -0.942953
      2          6           0        4.352877   -2.742672   -0.625327
      3          6           0        5.747329   -2.731523   -0.607971
      4          6           0        6.476255   -1.576686   -0.315492
      5          6           0        5.817169   -0.379554   -0.024732
      6          6           0        6.583121    0.897333    0.299495
      7          6           0        7.448471    1.363348   -0.886563
      8          6           0        7.430873    0.749063    1.577012
      9          6           0        4.414334   -0.373199   -0.036026
     10          6           0        3.692830   -1.533034   -0.332661
     11          8           0        2.321206   -1.598856   -0.358565
     12          6           0        1.577771   -0.414346   -0.098251
     13          6           0        0.105110   -0.746908   -0.190671
     14          6           0       -0.324260   -1.820922   -0.963675
     15          7           0       -1.578291   -2.294760   -0.979622
     16          6           0       -2.437571   -1.672252   -0.162054
     17          6           0       -3.826746   -2.232229   -0.070466
     18          6           0       -4.910176   -1.530255   -0.633955
     19          6           0       -4.707978   -0.216125   -1.353673
     20          6           0       -6.194050   -2.078341   -0.534982
     21          6           0       -6.405542   -3.293099    0.112249
     22          6           0       -5.326660   -3.979853    0.663866
     23          6           0       -4.027314   -3.467986    0.577265
     24          6           0       -2.872055   -4.236497    1.178792
     25          7           0       -2.162475   -0.595015    0.581378
     26          6           0       -0.910976   -0.097548    0.562144
     27          7           0       -0.681695    1.020185    1.345239
     28          6           0       -1.687091    1.445727    2.316859
     29          6           0       -2.579049    2.580281    1.756766
     30          7           0       -1.872974    3.438304    0.782326
     31          6           0       -2.176511    3.204108   -0.633138
     32          6           0       -2.430639    4.482886   -1.450538
     33          7           0       -2.861749    5.540836   -0.711653
     34          8           0       -2.309974    4.491501   -2.667417
     35          6           0       -0.439541    3.489880    1.105830
     36          6           0        0.333929    4.548475    0.317712
     37          6           0        0.235646    2.094099    0.948401
     38          1           0        2.957663   -3.859120   -1.848502
     39          1           0        4.231276   -4.839962   -1.099981
     40          1           0        2.867289   -4.238718   -0.134608
     41          1           0        6.276757   -3.655374   -0.830650
     42          1           0        7.562126   -1.618148   -0.315294
     43          1           0        5.838338    1.682797    0.489953
     44          1           0        7.944858    2.313301   -0.654252
     45          1           0        8.227869    0.629157   -1.121931
     46          1           0        6.842134    1.505447   -1.787745
     47          1           0        8.210596   -0.011125    1.450317
     48          1           0        7.926020    1.695638    1.825269
     49          1           0        6.812291    0.451953    2.430953
     50          1           0        3.897084    0.552686    0.192201
     51          1           0        1.878115    0.361339   -0.818643
     52          1           0        1.812677   -0.040029    0.906915
     53          1           0        0.397322   -2.355944   -1.574612
     54          1           0       -3.944475   -0.296762   -2.136372
     55          1           0       -4.375304    0.567043   -0.662889
     56          1           0       -5.637374    0.118379   -1.824514
     57          1           0       -7.032786   -1.544530   -0.975637
     58          1           0       -7.408693   -3.705796    0.183271
     59          1           0       -5.488424   -4.929475    1.168465
     60          1           0       -3.228291   -5.133030    1.695544
     61          1           0       -2.316786   -3.629321    1.904537
     62          1           0       -2.157946   -4.543524    0.407280
     63          1           0       -1.152430    1.788555    3.212498
     64          1           0       -2.295375    0.586390    2.594452
     65          1           0       -3.458107    2.151184    1.270145
     66          1           0       -2.936502    3.195225    2.595862
     67          1           0       -1.405462    2.640251   -1.174255
     68          1           0       -3.092634    2.609200   -0.710509
     69          1           0       -3.000904    6.430808   -1.167454
     70          1           0       -2.788000    5.482681    0.294928
     71          1           0       -0.385802    3.770824    2.165991
     72          1           0        1.385615    4.549010    0.626896
     73          1           0        0.304759    4.362078   -0.761110
     74          1           0       -0.075049    5.546182    0.500706
     75          1           0        1.160462    2.084463    1.545138
     76          1           0        0.517574    1.948419   -0.097769
 ---------------------------------------------------------------------

 The electronic state is 1-A.
 Alpha  occ. eigenvalues --  -19.18234 -19.10415 -14.36985 -14.34977 -14.34632
 Alpha  occ. eigenvalues --  -14.32793 -14.32039 -10.28083 -10.27643 -10.25906
 Alpha  occ. eigenvalues --  -10.25390 -10.24462 -10.23943 -10.23841 -10.22758
 Alpha  occ. eigenvalues --  -10.22559 -10.22342 -10.22171 -10.20747 -10.19595
 Alpha  occ. eigenvalues --  -10.19507 -10.19130 -10.18970 -10.18951 -10.18886
 Alpha  occ. eigenvalues --  -10.18495 -10.18455 -10.18344 -10.17873 -10.17783
 Alpha  occ. eigenvalues --  -10.17752 -10.17649 -10.17601 -10.17508 -10.17476
 Alpha  occ. eigenvalues --  -10.17422 -10.17056  -1.06877  -1.02287  -0.99642
 Alpha  occ. eigenvalues --   -0.96238  -0.92817  -0.89597  -0.86991  -0.85604
 Alpha  occ. eigenvalues --   -0.84997  -0.81502  -0.79980  -0.79836  -0.77096
 Alpha  occ. eigenvalues --   -0.75954  -0.75671  -0.75268  -0.73517  -0.71821
 Alpha  occ. eigenvalues --   -0.70609  -0.69267  -0.68309  -0.68171  -0.67371
 Alpha  occ. eigenvalues --   -0.66805  -0.65661  -0.63340  -0.62167  -0.60487
 Alpha  occ. eigenvalues --   -0.59612  -0.58850  -0.58039  -0.56756  -0.56274
 Alpha  occ. eigenvalues --   -0.55598  -0.54026  -0.53637  -0.52929  -0.51592
 Alpha  occ. eigenvalues --   -0.50679  -0.49483  -0.49344  -0.48668  -0.48298
 Alpha  occ. eigenvalues --   -0.47070  -0.46797  -0.46565  -0.45896  -0.45258
 Alpha  occ. eigenvalues --   -0.44693  -0.44057  -0.43492  -0.43046  -0.42962
 Alpha  occ. eigenvalues --   -0.42712  -0.42150  -0.41618  -0.41323  -0.41236
 Alpha  occ. eigenvalues --   -0.40908  -0.40778  -0.40660  -0.40368  -0.40187
 Alpha  occ. eigenvalues --   -0.39839  -0.39387  -0.39186  -0.39130  -0.38987
 Alpha  occ. eigenvalues --   -0.38581  -0.38568  -0.37624  -0.37046  -0.36490
 Alpha  occ. eigenvalues --   -0.36360  -0.36221  -0.36029  -0.35492  -0.35259
 Alpha  occ. eigenvalues --   -0.34937  -0.34351  -0.33503  -0.33268  -0.33101
 Alpha  occ. eigenvalues --   -0.32684  -0.32213  -0.31576  -0.31318  -0.28823
 Alpha  occ. eigenvalues --   -0.27874  -0.26338  -0.25360  -0.24586  -0.23957
 Alpha  occ. eigenvalues --   -0.23286  -0.22904  -0.22736  -0.21423  -0.21307
 Alpha virt. eigenvalues --   -0.02727  -0.01760   0.00470   0.01145   0.01334
 Alpha virt. eigenvalues --    0.01473   0.02990   0.05373   0.07335   0.08247
 Alpha virt. eigenvalues --    0.08639   0.09299   0.09453   0.10430   0.10589

 Mulliken charges:
               1
     1  C   -0.516945
     2  C    0.122381
     3  C   -0.190731
     4  C   -0.188239
     5  C    0.185854
     6  C   -0.160295
     7  C   -0.437381
     8  C   -0.437326
     9  C   -0.271126
    10  C    0.338629
    11  O   -0.538370
    12  C   -0.093964
    13  C    0.058179
    14  C    0.019749
    15  N   -0.437548
    16  C    0.291321
    17  C    0.021305
    18  C    0.168557
    19  C   -0.547592
    20  C   -0.202391
    21  C   -0.110310
    22  C   -0.202073
    23  C    0.167816
    24  C   -0.535906
    25  N   -0.531221
    26  C    0.487904
    27  N   -0.482410
    28  C   -0.162139
    29  C   -0.140306
    30  N   -0.410324
    31  C   -0.240926
    32  C    0.576619
    33  N   -0.736369
    34  O   -0.512795
    35  C    0.010120
    36  C   -0.469843
    37  C   -0.147330
    38  H    0.164822
    39  H    0.148552
    40  H    0.167189
    41  H    0.122050
    42  H    0.119993
    43  H    0.121714
    44  H    0.139791
    45  H    0.145449
    46  H    0.149327
    47  H    0.145564
    48  H    0.139665
    49  H    0.147698
    50  H    0.122215
    51  H    0.154540
    52  H    0.158741
    53  H    0.164269
    54  H    0.169912
    55  H    0.170530
    56  H    0.152791
    57  H    0.118834
    58  H    0.123890
    59  H    0.118805
    60  H    0.147622
    61  H    0.156456
    62  H    0.184036
    63  H    0.145857
    64  H    0.194237
    65  H    0.167506
    66  H    0.137987
    67  H    0.161400
    68  H    0.186945
    69  H    0.336427
    70  H    0.345840
    71  H    0.142161
    72  H    0.150244
    73  H    0.172423
    74  H    0.158638
    75  H    0.143919
    76  H    0.157385
 Sum of Mulliken charges =  -0.00000

 Dipole moment (field-independent basis, Debye):
    X=              1.9101    Y=              3.3818    Z=              4.7412  Tot=              6.1289
 Quadrupole moment (field-independent basis, Debye-Ang):
   XX=           -213.1641   YY=           -207.4102   ZZ=           -231.1696
   XY=             -2.6949   XZ=             -9.0275   YZ=             14.5789

 Normal termination of Gaussian 16 at Fri Nov  4 23:23:27 2022.
