 Gaussian 16, Revision B.01,
 Gaussian 16:  ES64L-G16RevB.01 20-Dec-2017

 -----------------------------
 #p b3lyp/6-31g(d) opt SCF=XQC
 -----------------------------

 ------------------------------
 Gaussian input prepared by ASE
 ------------------------------
 Symbolic Z-matrix:
 Charge =  0 Multiplicity = 1

 SCF Done:  E(RB3LYP) =  -787.815889770     A.U. after   14 cycles
 SCF Done:  E(RB3LYP) =  -787.820088437     A.U. after   13 cycles
 SCF Done:  E(RB3LYP) =  -787.821344352     A.U. after   12 cycles
 SCF Done:  E(RB3LYP) =  -787.822097089     A.U. after   12 cycles
 SCF Done:  E(RB3LYP) =  -787.822220698     A.U. after   12 cycles
 SCF Done:  E(RB3LYP) =  -787.822347495     A.U. after   11 cycles
 SCF Done:  E(RB3LYP) =  -787.822378851     A.U. after   10 cycles
 SCF Done:  E(RB3LYP) =  -787.822388061     A.U. after   10 cycles
 SCF Done:  E(RB3LYP) =  -787.822392812     A.U. after   10 cycles
 SCF Done:  E(RB3LYP) =  -787.822394410     A.U. after    9 cycles
 SCF Done:  E(RB3LYP) =  -787.822394738     A.U. after    8 cycles
 SCF Done:  E(RB3LYP) =  -787.822394793     A.U. after    7 cycles
 SCF Done:  E(RB3LYP) =  -787.822394814     A.U. after    7 cycles
 SCF Done:  E(RB3LYP) =  -787.822394826     A.U. after    7 cycles
 SCF Done:  E(RB3LYP) =  -787.822394833     A.U. after    6 cycles
 Optimization completed.
    -- Stationary point found.

                         Standard orientation:
 ---------------------------------------------------------------------
 Center     Atomic      Atomic             Coordinates (Angstroms)
 Number     Number       Type             X           Y           Z
 ---------------------------------------------------------------------
      1          6           0       -4.323423   -2.386608   -0.182728
      2          6           0       -4.678947   -1.064564    0.506990
      3          6           0       -3.461507   -0.246699    0.955694
      4          7           0       -2.658266    0.192988   -0.182273
      5          6           0       -1.601697    1.155214    0.126394
      6          6           0       -1.099381    1.770696   -1.193877
      7          6           0       -0.094800    2.929626   -1.075480
      8          6           0       -0.629767    4.163101   -0.337067
      9          6           0       -0.442141    0.603122    1.027658
     10          6           0        0.459467   -0.416429    0.372182
     11          7           0       -0.142456   -1.450508   -0.204772
     12          6           0        0.634178   -2.390996   -0.800555
     13          7           0        1.943782   -2.419669   -0.875986
     14          6           0        2.596916   -1.375465   -0.285480
     15          6           0        4.014464   -1.353413   -0.329858
     16          6           0        4.710389   -0.322075    0.258228
     17          6           0        4.019719    0.724883    0.914842
     18          6           0        2.643275    0.728366    0.971330
     19          6           0        1.891831   -0.317610    0.369936
     20          1           0       -5.225907   -2.961518   -0.419793
     21          1           0       -3.687385   -3.010640    0.457737
     22          1           0       -3.787900   -2.218124   -1.123929
     23          1           0       -5.295997   -1.272397    1.391941
     24          1           0       -5.283826   -0.446597   -0.168339
     25          1           0       -3.811343    0.650280    1.484798
     26          1           0       -2.887759   -0.843125    1.693141
     27          1           0       -2.216030   -0.620667   -0.608346
     28          1           0       -2.073085    1.950838    0.719587
     29          1           0       -0.656069    0.974539   -1.807560
     30          1           0       -1.988216    2.112690   -1.738200
     31          1           0        0.830759    2.585591   -0.594851
     32          1           0        0.196673    3.225806   -2.091875
     33          1           0       -0.851326    3.951372    0.715793
     34          1           0        0.098898    4.981647   -0.359011
     35          1           0       -1.555011    4.528266   -0.799717
     36          1           0        0.138317    1.446750    1.408097
     37          1           0       -0.899233    0.127550    1.905249
     38          1           0        0.094172   -3.214742   -1.264520
     39          1           0        4.514606   -2.171799   -0.837714
     40          1           0        5.796353   -0.307936    0.223210
     41          1           0        4.581683    1.530140    1.379455
     42          1           0        2.134747    1.535520    1.486811
 ---------------------------------------------------------------------

 The electronic state is 1-A.
 Alpha  occ. eigenvalues --  -14.33662 -14.33337 -14.29896 -10.25266 -10.25216
 Alpha  occ. eigenvalues --  -10.23795 -10.21487 -10.21218 -10.21019 -10.20962
 Alpha  occ. eigenvalues --  -10.20750 -10.20064 -10.19494 -10.19179 -10.18005
 Alpha  occ. eigenvalues --  -10.17424 -10.17207 -10.17130 -10.16573  -0.98298
 Alpha  occ. eigenvalues --   -0.90180  -0.88752  -0.86099  -0.79647  -0.78035
 Alpha  occ. eigenvalues --   -0.76132  -0.75706  -0.73403  -0.69473  -0.65838
 Alpha  occ. eigenvalues --   -0.65587  -0.64727  -0.61953  -0.59523  -0.56714
 Alpha  occ. eigenvalues --   -0.55714  -0.54734  -0.53014  -0.49456  -0.48270
 Alpha  occ. eigenvalues --   -0.47580  -0.46538  -0.45394  -0.44727  -0.43883
 Alpha  occ. eigenvalues --   -0.43483  -0.42555  -0.41677  -0.41316  -0.40682
 Alpha  occ. eigenvalues --   -0.40306  -0.38816  -0.38555  -0.37305  -0.36908
 Alpha  occ. eigenvalues --   -0.36516  -0.35944  -0.35509  -0.34102  -0.32878
 Alpha  occ. eigenvalues --   -0.32732  -0.32525  -0.32252  -0.31153  -0.30518
 Alpha  occ. eigenvalues --   -0.29647  -0.27233  -0.25052  -0.24387  -0.20671
 Alpha virt. eigenvalues --   -0.06525  -0.03039   0.00988   0.07156   0.07437
 Alpha virt. eigenvalues --    0.09488   0.10053   0.11261   0.12243   0.12547
 Alpha virt. eigenvalues --    0.13687   0.14776   0.14882   0.15518   0.15923

 Mulliken charges:
               1
     1  C   -0.449434
     2  C   -0.246439
     3  C   -0.116685
     4  N   -0.564323
     5  C    0.040703
     6  C   -0.261125
     7  C   -0.262743
     8  C   -0.445651
     9  C   -0.354488
    10  C    0.280067
    11  N   -0.480778
    12  C    0.159911
    13  N   -0.468803
    14  C    0.240729
    15  C   -0.142602
    16  C   -0.130788
    17  C   -0.132844
    18  C   -0.196470
    19  C    0.118135
    20  H    0.141272
    21  H    0.142334
    22  H    0.149680
    23  H    0.124665
    24  H    0.141227
    25  H    0.127015
    26  H    0.108407
    27  H    0.326443
    28  H    0.128722
    29  H    0.133202
    30  H    0.146122
    31  H    0.128930
    32  H    0.136475
    33  H    0.141156
    34  H    0.141840
    35  H    0.146938
    36  H    0.145290
    37  H    0.171024
    38  H    0.150692
    39  H    0.151678
    40  H    0.142884
    41  H    0.140289
    42  H    0.147341
 Sum of Mulliken charges =  -0.00000

 Dipole moment (field-independent basis, Debye):
    X=              1.8499    Y=              1.7500    Z=              1.6083  Tot=              3.0119
 Quadrupole moment (field-independent basis, Debye-Ang):
   XX=           -108.9301   YY=           -116.8489   ZZ=           -115.4542
   XY=              5.0580   XZ=              0.6396   YZ=              1.5103

 1\1\GINC-NODE50\FOpt\RB3LYP\6-31G(d)\C16H23N3\WYKGROUP\04-Nov-2022\0\\
 #p b3lyp/6-31g(d) opt SCF=XQC\\Gaussian input prepared by ASE\\0,1\C,-
 3.4194096967,-2.2114055271,-2.3755142221\C,-4.0269611249,-1.6211859587
 ,-1.0978476622\C,-2.9889131675,-1.1741328727,-0.0610269332\N,-2.166671
 6267,-0.0751117538,-0.560587697\C,-1.2968064609,0.560819123,0.42755110
 37\C,-0.7818117871,1.8901155427,-0.1572613113\C,0.0235442181,2.7941801
 737,0.7916272039\C,-0.7516088083,3.2729513618,2.025652793\C,-0.1486714
 18,-0.3504347302,0.9870627127\C,0.9484131993,-0.6878836281,0.004940958

 Normal termination of Gaussian 16 at Fri Nov  4 20:49:13 2022.
