 Gaussian 16, Revision B.01,
 Gaussian 16:  ES64L-G16RevB.01 20-Dec-2017

 -------------------------------------------------------------------
 #p b3lyp/6-31g(d) 6D 10F nosymm GFInput td=(50-50,nstate=2) SCF=XQC
 -------------------------------------------------------------------

 ------------------------------
 Gaussian input prepared by ASE
 ------------------------------
 Symbolic Z-matrix:
 Charge =  0 Multiplicity = 1

                          Input orientation:
 ---------------------------------------------------------------------
 Center     Atomic      Atomic             Coordinates (Angstroms)
 Number     Number       Type             X           Y           Z
 ---------------------------------------------------------------------
      1          6           0       -3.419410   -2.211406   -2.375514
      2          6           0       -4.026961   -1.621186   -1.097848
      3          6           0       -2.988913   -1.174133   -0.061027
      4          7           0       -2.166672   -0.075112   -0.560588
      5          6           0       -1.296806    0.560819    0.427551
      6          6           0       -0.781812    1.890116   -0.157261
      7          6           0        0.023544    2.794180    0.791627
      8          6           0       -0.751609    3.272951    2.025653
      9          6           0       -0.148671   -0.350435    0.987063
     10          6           0        0.948413   -0.687884    0.004941
     11          7           0        0.560043   -1.184935   -1.164082
     12          6           0        1.517066   -1.505326   -2.071877
     13          7           0        2.817732   -1.394436   -1.939415
     14          6           0        3.253867   -0.894372   -0.745528
     15          6           0        4.650588   -0.755585   -0.541062
     16          6           0        5.131010   -0.261293    0.650023
     17          6           0        4.237481    0.110991    1.683125
     18          6           0        2.876378   -0.012465    1.510037
     19          6           0        2.344605   -0.513750    0.290880
     20          1           0       -4.201775   -2.576977   -3.050392
     21          1           0       -2.753870   -3.053429   -2.147017
     22          1           0       -2.836928   -1.464262   -2.926442
     23          1           0       -4.679037   -2.370031   -0.627622
     24          1           0       -4.657925   -0.760401   -1.352338
     25          1           0       -3.513330   -0.818527    0.836437
     26          1           0       -2.397148   -2.058298    0.250108
     27          1           0       -1.572547   -0.422548   -1.312551
     28          1           0       -1.931197    0.789306    1.294988
     29          1           0       -0.173247    1.671955   -1.045549
     30          1           0       -1.662200    2.434670   -0.520099
     31          1           0        0.945846    2.289662    1.109184
     32          1           0        0.352884    3.671681    0.219556
     33          1           0       -1.027878    2.443979    2.688156
     34          1           0       -0.154936    3.977728    2.616181
     35          1           0       -1.678308    3.783021    1.734921
     36          1           0        0.263923    0.116556    1.884314
     37          1           0       -0.602361   -1.294403    1.316241
     38          1           0        1.148458   -1.902610   -3.016187
     39          1           0        5.309437   -1.052558   -1.350717
     40          1           0        6.201520   -0.156506    0.804207
     41          1           0        4.630439    0.494813    2.620340
     42          1           0        2.210306    0.270437    2.317583
 ---------------------------------------------------------------------

 SCF Done:  E(RB3LYP) =  -787.822388913     A.U. after   14 cycles

 Excitation energies and oscillator strengths:

 Excited state symmetry could not be determined.
 Excited State   1:      Triplet-?Sym    2.8620 eV  433.21 nm  f=0.0000  <S**2>=2.000
      67 -> 72         0.13026
      68 -> 71         0.11762
      69 -> 71         0.59897
      69 -> 72         0.10815
      70 -> 71        -0.26660
 This state for optimization and/or second-order correction.
 Total Energy, E(TD-HF/TD-DFT) =  -787.717212717
 Copying the excited state density for this state as the 1-particle RhoCI density.

 Excited state symmetry could not be determined.
 Excited State   2:      Triplet-?Sym    3.0638 eV  404.67 nm  f=0.0000  <S**2>=2.000
      68 -> 71        -0.19330
      69 -> 71         0.27113
      70 -> 71         0.60612

 Excited state symmetry could not be determined.
 Excited State   3:      Singlet-?Sym    3.2043 eV  386.93 nm  f=0.0417  <S**2>=0.000
      68 -> 71        -0.11042
      70 -> 71         0.69567

 Excited state symmetry could not be determined.
 Excited State   4:      Singlet-?Sym    3.8962 eV  318.22 nm  f=0.0089  <S**2>=0.000
      68 -> 71         0.67936
      69 -> 71        -0.13275
      70 -> 71         0.11627

 Alpha  occ. eigenvalues --  -14.33662 -14.33337 -14.29896 -10.25266 -10.25216
 Alpha  occ. eigenvalues --  -10.23795 -10.21487 -10.21218 -10.21019 -10.20962
 Alpha  occ. eigenvalues --  -10.20750 -10.20064 -10.19494 -10.19179 -10.18005
 Alpha  occ. eigenvalues --  -10.17424 -10.17207 -10.17130 -10.16573  -0.98298
 Alpha  occ. eigenvalues --   -0.90180  -0.88752  -0.86099  -0.79647  -0.78035
 Alpha  occ. eigenvalues --   -0.76132  -0.75706  -0.73403  -0.69473  -0.65838
 Alpha  occ. eigenvalues --   -0.65587  -0.64727  -0.61953  -0.59523  -0.56714
 Alpha  occ. eigenvalues --   -0.55714  -0.54734  -0.53014  -0.49456  -0.48270
 Alpha  occ. eigenvalues --   -0.47580  -0.46538  -0.45394  -0.44727  -0.43883
 Alpha  occ. eigenvalues --   -0.43483  -0.42554  -0.41677  -0.41316  -0.40682
 Alpha  occ. eigenvalues --   -0.40306  -0.38816  -0.38555  -0.37305  -0.36908
 Alpha  occ. eigenvalues --   -0.36516  -0.35944  -0.35509  -0.34102  -0.32878
 Alpha  occ. eigenvalues --   -0.32732  -0.32525  -0.32252  -0.31153  -0.30518
 Alpha  occ. eigenvalues --   -0.29647  -0.27233  -0.25052  -0.24387  -0.20671
 Alpha virt. eigenvalues --   -0.06525  -0.03039   0.00988   0.07156   0.07437
 Alpha virt. eigenvalues --    0.09488   0.10053   0.11261   0.12243   0.12546
 Alpha virt. eigenvalues --    0.13687   0.14776   0.14882   0.15518   0.15923

 Mulliken charges:
               1
     1  C   -0.449440
     2  C   -0.246430
     3  C   -0.116660
     4  N   -0.564333
     5  C    0.040677
     6  C   -0.261124
     7  C   -0.262733
     8  C   -0.445658
     9  C   -0.354469
    10  C    0.280077
    11  N   -0.480795
    12  C    0.159919
    13  N   -0.468813
    14  C    0.240755
    15  C   -0.142602
    16  C   -0.130791
    17  C   -0.132845
    18  C   -0.196467
    19  C    0.118119
    20  H    0.141272
    21  H    0.142336
    22  H    0.149678
    23  H    0.124662
    24  H    0.141225
    25  H    0.127011
    26  H    0.108402
    27  H    0.326445
    28  H    0.128726
    29  H    0.133203
    30  H    0.146122
    31  H    0.128928
    32  H    0.136476
    33  H    0.141159
    34  H    0.141842
    35  H    0.146939
    36  H    0.145288
    37  H    0.171023
    38  H    0.150690
    39  H    0.151678
    40  H    0.142884
    41  H    0.140288
    42  H    0.147340
 Sum of Mulliken charges =  -0.00000

 Dipole moment (field-independent basis, Debye):
    X=              1.4221    Y=              0.5075    Z=              2.6060  Tot=              3.0119
 Quadrupole moment (field-independent basis, Debye-Ang):
   XX=           -109.3987   YY=           -117.4349   ZZ=           -113.8144
   XY=              4.1058   XZ=              5.3064   YZ=              0.1095

 Normal termination of Gaussian 16 at Sat Nov  5 12:12:30 2022.
