 Gaussian 16, Revision B.01,
 Gaussian 16:  ES64L-G16RevB.01 20-Dec-2017

 -------------------------------------------------------------------
 #p b3lyp/6-31g(d) 6D 10F nosymm GFInput td=(50-50,nstate=2) SCF=XQC
 -------------------------------------------------------------------

 ------------------------------
 Gaussian input prepared by ASE
 ------------------------------
 Symbolic Z-matrix:
 Charge =  0 Multiplicity = 1

                          Input orientation:
 ---------------------------------------------------------------------
 Center     Atomic      Atomic             Coordinates (Angstroms)
 Number     Number       Type             X           Y           Z
 ---------------------------------------------------------------------
      1          6           0       -1.144518   -3.683774   -1.397471
      2          8           0       -1.881774   -2.497710   -1.054474
      3          6           0       -2.109630   -2.238409    0.259850
      4          6           0       -2.333207   -3.168949    1.272226
      5          6           0       -2.564240   -2.785644    2.598509
      6          6           0       -2.636990   -1.456600    2.976829
      7          8           0       -2.915969   -1.217210    4.294126
      8          6           0       -1.910051   -0.559050    5.074594
      9          6           0       -2.493413   -0.451728    1.972626
     10          6           0       -2.710776    0.997815    2.202787
     11          8           0       -2.992194    1.493229    3.298377
     12          6           0       -2.569393    1.835253    1.014665
     13          6           0       -2.243705    1.327427   -0.190905
     14          6           0       -1.928877    2.112605   -1.452522
     15          6           0       -0.379348    2.376792   -1.379599
     16          6           0        0.503982    2.086455   -2.608366
     17          6           0        2.011697    1.931211   -2.251762
     18          6           0        2.148955    0.629375   -1.469643
     19          6           0        2.163146   -0.600664   -2.026407
     20          6           0        2.157790   -1.827220   -1.237183
     21          8           0        2.151447   -2.935084   -1.784870
     22          6           0        2.149175   -1.618349    0.228132
     23          6           0        2.072821   -2.670552    1.189565
     24          8           0        1.964137   -3.996758    0.864276
     25          6           0        3.155750   -4.644655    0.397787
     26          6           0        2.017496   -2.348610    2.533428
     27          6           0        2.039616   -1.018063    2.966412
     28          6           0        2.116038    0.052772    2.082309
     29          8           0        2.223145    1.359808    2.453119
     30          6           0        1.130656    1.895443    3.214104
     31          6           0        2.142242   -0.289465    0.713828
     32          8           0        2.154971    0.795197   -0.124472
     33          8           0        1.976449   -0.893444    4.321285
     34          6           0        2.143364   -2.225132    4.887979
     35          6           0        1.866508   -3.231560    3.749099
     36          6           0        2.994697    2.019976   -3.476745
     37          6           0        2.776310    3.480612   -3.930292
     38          6           0        2.477458    4.178262   -2.558645
     39          7           0        2.576697    3.112771   -1.523714
     40          6           0        4.023069    2.755700   -1.433100
     41          6           0        4.358705    1.977571   -2.753481
     42          6           0       -2.555079    1.483965   -2.748461
     43          6           0       -2.352758    2.617055   -3.784039
     44          6           0       -2.376093    3.881767   -2.860685
     45          7           0       -2.726152    3.385348   -1.503537
     46          6           0       -4.133545    2.881529   -1.601592
     47          6           0       -4.050995    1.519892   -2.371198
     48          8           0       -2.044429   -0.000928   -0.380887
     49          6           0       -2.212032   -0.885488    0.655097
     50          6           0       -2.695951   -4.037386    3.433311
     51          6           0       -2.807884   -5.121243    2.338315
     52          8           0       -2.337520   -4.522445    1.100039
     53          1           0       -0.243523   -3.784826   -0.786191
     54          1           0       -0.852524   -3.548456   -2.440102
     55          1           0       -1.767595   -4.575815   -1.292925
     56          1           0       -1.876717    0.504894    4.835678
     57          1           0       -0.926458   -1.019713    4.911922
     58          1           0       -2.208922   -0.698928    6.116534
     59          1           0       -2.718417    2.902704    1.123212
     60          1           0       -0.243073    3.413888   -1.055997
     61          1           0        0.010034    1.780264   -0.553011
     62          1           0        0.387262    2.869528   -3.358545
     63          1           0        0.193513    1.151300   -3.086015
     64          1           0        2.152823   -0.716132   -3.103826
     65          1           0        3.451619   -4.252253   -0.576514
     66          1           0        2.898414   -5.702069    0.304819
     67          1           0        3.966671   -4.529588    1.129330
     68          1           0        1.375359    2.945979    3.380796
     69          1           0        1.026809    1.382734    4.175403
     70          1           0        0.192091    1.825061    2.653015
     71          1           0        3.173926   -2.298962    5.253953
     72          1           0        1.457509   -2.304512    5.733349
     73          1           0        0.851779   -3.646357    3.806130
     74          1           0        2.563903   -4.074003    3.767081
     75          1           0        2.870273    1.274971   -4.266734
     76          1           0        1.945379    3.583518   -4.635650
     77          1           0        3.668251    3.880407   -4.423161
     78          1           0        3.183253    4.976221   -2.315501
     79          1           0        1.475515    4.616225   -2.533858
     80          1           0        4.179554    2.142116   -0.544047
     81          1           0        4.610281    3.669221   -1.309360
     82          1           0        5.145104    2.458629   -3.344147
     83          1           0        4.679137    0.952131   -2.546911
     84          1           0       -2.186469    0.500509   -3.044281
     85          1           0       -1.420555    2.527976   -4.345488
     86          1           0       -3.166749    2.623226   -4.516610
     87          1           0       -1.396530    4.368143   -2.819926
     88          1           0       -3.101638    4.638807   -3.168840
     89          1           0       -4.544692    2.754931   -0.598907
     90          1           0       -4.741908    3.630131   -2.116281
     91          1           0       -4.327650    0.676791   -1.730785
     92          1           0       -4.696108    1.489350   -3.255173
     93          1           0       -3.570315   -4.019753    4.090023
     94          1           0       -1.814629   -4.190862    4.070307
     95          1           0       -3.847530   -5.431830    2.181236
     96          1           0       -2.196256   -6.007304    2.521070
 ---------------------------------------------------------------------

 SCF Done:  E(RB3LYP) =  -2412.33285765     A.U. after   16 cycles

 Excitation energies and oscillator strengths:

 Excited state symmetry could not be determined.
 Excited State   1:      Triplet-?Sym    3.1120 eV  398.41 nm  f=0.0000  <S**2>=2.000
     187 ->193         0.12154
     189 ->191         0.63438
     189 ->195         0.19343
 This state for optimization and/or second-order correction.
 Total Energy, E(TD-HF/TD-DFT) =  -2412.21849488
 Copying the excited state density for this state as the 1-particle RhoCI density.

 Excited state symmetry could not be determined.
 Excited State   2:      Triplet-?Sym    3.1865 eV  389.09 nm  f=0.0000  <S**2>=2.000
     180 ->190         0.15660
     180 ->194        -0.13649
     185 ->190        -0.19030
     185 ->192         0.12833
     187 ->190         0.33284
     188 ->190         0.50092

 Excited state symmetry could not be determined.
 Excited State   3:      Singlet-?Sym    3.6554 eV  339.18 nm  f=0.0007  <S**2>=0.000
     189 ->190         0.70034

 Excited state symmetry could not be determined.
 Excited State   4:      Singlet-?Sym    3.7544 eV  330.23 nm  f=0.0012  <S**2>=0.000
     182 ->190        -0.62143
     183 ->190        -0.15727
     187 ->190        -0.12742
     188 ->190        -0.20461

 Alpha  occ. eigenvalues --  -19.22411 -19.21513 -19.19216 -19.18092 -19.16622
 Alpha  occ. eigenvalues --  -19.16503 -19.16426 -19.15544 -19.10883 -19.09936
 Alpha  occ. eigenvalues --  -14.32768 -14.32531 -10.27298 -10.27063 -10.26379
 Alpha  occ. eigenvalues --  -10.26200 -10.26139 -10.25759 -10.25748 -10.25643
 Alpha  occ. eigenvalues --  -10.25458 -10.24998 -10.24935 -10.24916 -10.24621
 Alpha  occ. eigenvalues --  -10.24600 -10.23719 -10.23021 -10.22503 -10.22463
 Alpha  occ. eigenvalues --  -10.21545 -10.21407 -10.21180 -10.21013 -10.20707
 Alpha  occ. eigenvalues --  -10.20488 -10.20438 -10.20356 -10.20069 -10.20049
 Alpha  occ. eigenvalues --  -10.19968 -10.19610 -10.19432 -10.19101 -10.19081
 Alpha  occ. eigenvalues --  -10.18867 -10.18741 -10.18647 -10.18442 -10.18234
 Alpha  occ. eigenvalues --  -10.17852 -10.17514  -1.11861  -1.10950  -1.08400
 Alpha  occ. eigenvalues --   -1.07429  -1.05100  -1.04908  -1.04465  -1.04160
 Alpha  occ. eigenvalues --   -1.00825  -0.99924  -0.95353  -0.94820  -0.86351
 Alpha  occ. eigenvalues --   -0.85498  -0.82032  -0.80816  -0.80205  -0.79210
 Alpha  occ. eigenvalues --   -0.78568  -0.77488  -0.77295  -0.76846  -0.76386
 Alpha  occ. eigenvalues --   -0.75027  -0.74757  -0.74392  -0.73919  -0.72791
 Alpha  occ. eigenvalues --   -0.70618  -0.69957  -0.69005  -0.67670  -0.66671
 Alpha  occ. eigenvalues --   -0.66324  -0.65482  -0.64487  -0.63507  -0.63120
 Alpha  occ. eigenvalues --   -0.61824  -0.61372  -0.61242  -0.60058  -0.58680
 Alpha  occ. eigenvalues --   -0.57793  -0.56443  -0.55970  -0.55690  -0.54950
 Alpha  occ. eigenvalues --   -0.54553  -0.53862  -0.53248  -0.52689  -0.52527
 Alpha  occ. eigenvalues --   -0.51453  -0.50957  -0.50781  -0.50144  -0.49905
 Alpha  occ. eigenvalues --   -0.49622  -0.49465  -0.49365  -0.49091  -0.48757
 Alpha  occ. eigenvalues --   -0.48466  -0.48029  -0.47587  -0.46704  -0.46493
 Alpha  occ. eigenvalues --   -0.45968  -0.45688  -0.45450  -0.44592  -0.44468
 Alpha  occ. eigenvalues --   -0.44008  -0.43741  -0.43437  -0.43130  -0.42953
 Alpha  occ. eigenvalues --   -0.42894  -0.42201  -0.41788  -0.41647  -0.41062
 Alpha  occ. eigenvalues --   -0.40877  -0.40796  -0.40497  -0.40324  -0.40135
 Alpha  occ. eigenvalues --   -0.40012  -0.39758  -0.39516  -0.39103  -0.38661
 Alpha  occ. eigenvalues --   -0.38430  -0.38155  -0.38008  -0.37759  -0.37647
 Alpha  occ. eigenvalues --   -0.37499  -0.37207  -0.37075  -0.36761  -0.36526
 Alpha  occ. eigenvalues --   -0.36295  -0.36064  -0.35705  -0.35297  -0.35208
 Alpha  occ. eigenvalues --   -0.34930  -0.34742  -0.34274  -0.34096  -0.33840
 Alpha  occ. eigenvalues --   -0.33490  -0.33343  -0.32983  -0.32602  -0.32083
 Alpha  occ. eigenvalues --   -0.31332  -0.31054  -0.30648  -0.30499  -0.30352
 Alpha  occ. eigenvalues --   -0.28836  -0.28481  -0.27326  -0.26551  -0.25640
 Alpha  occ. eigenvalues --   -0.24546  -0.23387  -0.23050  -0.22947  -0.22701
 Alpha  occ. eigenvalues --   -0.22412  -0.21809  -0.21549  -0.19905
 Alpha virt. eigenvalues --   -0.04466  -0.03375  -0.01561  -0.00582   0.00760
 Alpha virt. eigenvalues --    0.01962   0.05251   0.05493   0.07098   0.07592
 Alpha virt. eigenvalues --    0.07800   0.08635   0.08968   0.09208   0.09554

 Mulliken charges:
               1
     1  C   -0.233548
     2  O   -0.532905
     3  C    0.277069
     4  C    0.335265
     5  C    0.059484
     6  C    0.223873
     7  O   -0.522518
     8  C   -0.228221
     9  C    0.034819
    10  C    0.433161
    11  O   -0.539427
    12  C   -0.267429
    13  C    0.323274
    14  C    0.137956
    15  C   -0.324820
    16  C   -0.298899
    17  C    0.091028
    18  C    0.365222
    19  C   -0.258811
    20  C    0.441396
    21  O   -0.551648
    22  C    0.054822
    23  C    0.222469
    24  O   -0.531131
    25  C   -0.216798
    26  C    0.078894
    27  C    0.338270
    28  C    0.266270
    29  O   -0.523195
    30  C   -0.230920
    31  C    0.203017
    32  O   -0.511956
    33  O   -0.536580
    34  C   -0.045441
    35  C   -0.367292
    36  C   -0.111926
    37  C   -0.296636
    38  C   -0.157182
    39  N   -0.381925
    40  C   -0.163808
    41  C   -0.294529
    42  C   -0.115657
    43  C   -0.293118
    44  C   -0.154271
    45  N   -0.398857
    46  C   -0.158698
    47  C   -0.300922
    48  O   -0.527511
    49  C    0.204292
    50  C   -0.366046
    51  C   -0.041046
    52  O   -0.535884
    53  H    0.189427
    54  H    0.164169
    55  H    0.159112
    56  H    0.194067
    57  H    0.130033
    58  H    0.150845
    59  H    0.169903
    60  H    0.179033
    61  H    0.186405
    62  H    0.148066
    63  H    0.159186
    64  H    0.148866
    65  H    0.187436
    66  H    0.157203
    67  H    0.129147
    68  H    0.167174
    69  H    0.168655
    70  H    0.163225
    71  H    0.161741
    72  H    0.163047
    73  H    0.177520
    74  H    0.169289
    75  H    0.131362
    76  H    0.142646
    77  H    0.142052
    78  H    0.148315
    79  H    0.152762
    80  H    0.172631
    81  H    0.142724
    82  H    0.138841
    83  H    0.150516
    84  H    0.151892
    85  H    0.141038
    86  H    0.139390
    87  H    0.146907
    88  H    0.147014
    89  H    0.164262
    90  H    0.140489
    91  H    0.157968
    92  H    0.137512
    93  H    0.178377
    94  H    0.160820
    95  H    0.158741
    96  H    0.159160
 Sum of Mulliken charges =  -0.00000

 Dipole moment (field-independent basis, Debye):
    X=              3.0424    Y=             -2.0197    Z=             -1.0171  Tot=              3.7908
 Quadrupole moment (field-independent basis, Debye-Ang):
   XX=           -298.4170   YY=           -282.7109   ZZ=           -280.7681
   XY=              6.3829   XZ=             13.5951   YZ=            -38.9045

 Normal termination of Gaussian 16 at Sat Nov  5 12:48:27 2022.
