 Gaussian 16, Revision B.01,
 Gaussian 16:  ES64L-G16RevB.01 20-Dec-2017

 -----------------------------
 #p b3lyp/6-31g(d) opt SCF=XQC
 -----------------------------

 ------------------------------
 Gaussian input prepared by ASE
 ------------------------------
 Symbolic Z-matrix:
 Charge =  0 Multiplicity = 1

 SCF Done:  E(RB3LYP) =  -1804.27526749     A.U. after   14 cycles
 SCF Done:  E(RB3LYP) =  -1804.28632567     A.U. after   12 cycles
 SCF Done:  E(RB3LYP) =  -1804.28734717     A.U. after   12 cycles
 SCF Done:  E(RB3LYP) =  -1804.28788859     A.U. after   12 cycles
 SCF Done:  E(RB3LYP) =  -1804.28810788     A.U. after   11 cycles
 SCF Done:  E(RB3LYP) =  -1804.28820779     A.U. after   11 cycles
 SCF Done:  E(RB3LYP) =  -1804.28823777     A.U. after   11 cycles
 SCF Done:  E(RB3LYP) =  -1804.28826964     A.U. after   10 cycles
 SCF Done:  E(RB3LYP) =  -1804.28829223     A.U. after   10 cycles
 SCF Done:  E(RB3LYP) =  -1804.28829745     A.U. after    9 cycles
 SCF Done:  E(RB3LYP) =  -1804.28830373     A.U. after   10 cycles
 SCF Done:  E(RB3LYP) =  -1804.28830859     A.U. after   10 cycles
 SCF Done:  E(RB3LYP) =  -1804.28830913     A.U. after    9 cycles
 SCF Done:  E(RB3LYP) =  -1804.28831094     A.U. after   10 cycles
 SCF Done:  E(RB3LYP) =  -1804.28831137     A.U. after    9 cycles
 SCF Done:  E(RB3LYP) =  -1804.28831150     A.U. after    9 cycles
 SCF Done:  E(RB3LYP) =  -1804.28831146     A.U. after    8 cycles
 SCF Done:  E(RB3LYP) =  -1804.28831147     A.U. after    6 cycles
 Optimization completed on the basis of negligible forces.
    -- Stationary point found.

                         Standard orientation:
 ---------------------------------------------------------------------
 Center     Atomic      Atomic             Coordinates (Angstroms)
 Number     Number       Type             X           Y           Z
 ---------------------------------------------------------------------
      1          6           0      -11.825033    6.109799    1.530513
      2          6           0      -11.889411    5.544676    0.324341
      3          6           0      -11.664430    4.085942    0.031899
      4          6           0      -10.481526    3.849081   -0.928200
      5          6           0      -10.302476    2.383976   -1.363500
      6          6           0       -9.984188    1.376544   -0.243766
      7          6           0       -8.660869    1.642122    0.492964
      8          6           0       -8.283375    0.581206    1.552933
      9          6           0       -7.372108   -0.561586    1.068900
     10          6           0       -7.973967   -1.492110    0.007983
     11          6           0       -7.099292   -2.696276   -0.327526
     12          8           0       -5.880974   -2.245751   -0.909863
     13          6           0       -5.047837   -3.290323   -1.421058
     14          6           0       -5.502550   -3.707730   -2.825450
     15          6           0       -3.600067   -2.784875   -1.452717
     16          6           0       -2.870057   -2.577195   -0.092586
     17          6           0       -2.968887   -3.831480    0.681656
     18          7           0       -3.050893   -4.822525    1.283408
     19          6           0       -3.473324   -1.391770    0.744835
     20          6           0       -2.405956   -0.555392    1.479335
     21          6           0       -1.265400   -1.415017    2.038101
     22          6           0       -0.512863   -2.211575    0.924028
     23          6           0        0.877276   -1.681971    0.607797
     24          6           0        1.977671   -2.547977    0.584195
     25          6           0        3.257101   -2.090942    0.273610
     26          6           0        3.493997   -0.738950   -0.022068
     27          6           0        4.854665   -0.246411   -0.347298
     28          6           0        5.059145    0.761330   -1.309038
     29          6           0        6.330741    1.224092   -1.615363
     30          6           0        7.458034    0.692677   -0.969255
     31          8           0        8.656792    1.209981   -1.365293
     32          6           0        9.890196    0.757134   -0.776499
     33          6           0       10.989276    0.992179   -1.833296
     34          6           0       10.920698    2.288019   -2.664241
     35          6           0       11.087290    3.610109   -1.906097
     36          6           0       10.118115    1.427894    0.590838
     37          6           0       11.212101    0.757047    1.434136
     38          6           0       11.386977    1.406720    2.813674
     39          6           0       12.473401    0.737391    3.661348
     40          6           0        7.277195   -0.307695   -0.005121
     41          6           0        5.990920   -0.762277    0.290745
     42          6           0        2.389938    0.130940    0.004408
     43          6           0        1.112320   -0.331363    0.308425
     44          6           0       -1.365603   -2.295507   -0.367556
     45          1           0      -11.607219    5.526699    2.423564
     46          1           0      -11.990217    7.174224    1.675518
     47          1           0      -12.108493    6.172331   -0.542072
     48          1           0      -11.506048    3.546568    0.973997
     49          1           0      -12.572881    3.660634   -0.423682
     50          1           0      -10.631611    4.460905   -1.828883
     51          1           0       -9.562268    4.225370   -0.461375
     52          1           0      -11.217477    2.057570   -1.878747
     53          1           0       -9.500329    2.339711   -2.114174
     54          1           0       -9.966758    0.372723   -0.685534
     55          1           0      -10.802189    1.361861    0.490336
     56          1           0       -7.844939    1.732607   -0.240085
     57          1           0       -8.726534    2.620776    0.985293
     58          1           0       -9.200957    0.159710    1.989997
     59          1           0       -7.763146    1.080414    2.380928
     60          1           0       -6.439485   -0.134783    0.679547
     61          1           0       -7.088950   -1.168482    1.941719
     62          1           0       -8.165518   -0.942201   -0.921440
     63          1           0       -8.944153   -1.873548    0.357382
     64          1           0       -6.883808   -3.283923    0.581060
     65          1           0       -7.639220   -3.356946   -1.023056
     66          1           0       -5.108161   -4.160439   -0.748919
     67          1           0       -6.550744   -4.023085   -2.825269
     68          1           0       -5.400852   -2.869208   -3.523735
     69          1           0       -4.903859   -4.546662   -3.197618
     70          1           0       -3.574976   -1.830631   -1.994128
     71          1           0       -3.014204   -3.501266   -2.041838
     72          1           0       -4.197250   -1.790103    1.461841
     73          1           0       -4.044727   -0.753754    0.066395
     74          1           0       -1.996747    0.200775    0.796587
     75          1           0       -2.887123    0.003833    2.290731
     76          1           0       -1.683563   -2.126478    2.761069
     77          1           0       -0.557105   -0.790756    2.593197
     78          1           0       -0.385522   -3.238710    1.284467
     79          1           0        1.829422   -3.602810    0.806233
     80          1           0        4.081079   -2.798510    0.238543
     81          1           0        4.206941    1.169782   -1.845253
     82          1           0        6.481538    1.991878   -2.368076
     83          1           0        9.821037   -0.328162   -0.617333
     84          1           0       11.963591    0.923507   -1.331516
     85          1           0       10.952657    0.153198   -2.539815
     86          1           0        9.971533    2.303449   -3.210400
     87          1           0       11.711089    2.216460   -3.423691
     88          1           0       10.227058    3.818608   -1.262399
     89          1           0       11.176770    4.445656   -2.610309
     90          1           0       11.988894    3.608959   -1.280297
     91          1           0       10.354905    2.487360    0.449647
     92          1           0        9.173023    1.394855    1.147626
     93          1           0       10.972190   -0.309220    1.565955
     94          1           0       12.173585    0.786692    0.902531
     95          1           0       10.429364    1.375191    3.352096
     96          1           0       11.627120    2.471304    2.683417
     97          1           0       12.573726    1.223755    4.638213
     98          1           0       12.243383   -0.320534    3.838316
     99          1           0       13.450154    0.784353    3.164147
    100          1           0        8.119154   -0.730288    0.530569
    101          1           0        5.872570   -1.519214    1.061299
    102          1           0        2.539713    1.189487   -0.190482
    103          1           0        0.288860    0.378727    0.326261
    104          1           0       -0.952861   -3.068538   -1.025470
    105          1           0       -1.306779   -1.350579   -0.921673
 ---------------------------------------------------------------------

 The electronic state is 1-A.
 Alpha  occ. eigenvalues --  -19.17103 -19.14618 -14.32420 -10.24564 -10.24367
 Alpha  occ. eigenvalues --  -10.24072 -10.23693 -10.22941 -10.21587 -10.19822
 Alpha  occ. eigenvalues --  -10.19646 -10.19473 -10.19341 -10.19072 -10.18926
 Alpha  occ. eigenvalues --  -10.18917 -10.18832 -10.18731 -10.18592 -10.18555
 Alpha  occ. eigenvalues --  -10.18550 -10.18546 -10.18492 -10.18477 -10.18442
 Alpha  occ. eigenvalues --  -10.18433 -10.18382 -10.18360 -10.18265 -10.18173
 Alpha  occ. eigenvalues --  -10.18163 -10.18154 -10.18152 -10.17956 -10.17937
 Alpha  occ. eigenvalues --  -10.17894 -10.17839 -10.17795 -10.17713 -10.17646
 Alpha  occ. eigenvalues --  -10.17615 -10.17567 -10.17378 -10.17133  -1.05647
 Alpha  occ. eigenvalues --   -1.02862  -0.89827  -0.86379  -0.85211  -0.83966
 Alpha  occ. eigenvalues --   -0.81403  -0.81248  -0.80464  -0.79422  -0.78719
 Alpha  occ. eigenvalues --   -0.77776  -0.76922  -0.75607  -0.75284  -0.74542
 Alpha  occ. eigenvalues --   -0.74054  -0.73699  -0.73688  -0.71063  -0.70649
 Alpha  occ. eigenvalues --   -0.69534  -0.68502  -0.66847  -0.65881  -0.64068
 Alpha  occ. eigenvalues --   -0.63616  -0.63009  -0.62189  -0.60954  -0.60271
 Alpha  occ. eigenvalues --   -0.59662  -0.59329  -0.58894  -0.58325  -0.57385
 Alpha  occ. eigenvalues --   -0.56639  -0.55735  -0.55452  -0.55037  -0.54758
 Alpha  occ. eigenvalues --   -0.53148  -0.51101  -0.50468  -0.49441  -0.48412
 Alpha  occ. eigenvalues --   -0.48068  -0.47778  -0.47386  -0.47193  -0.46759
 Alpha  occ. eigenvalues --   -0.46279  -0.46063  -0.45426  -0.45063  -0.44181
 Alpha  occ. eigenvalues --   -0.44023  -0.43838  -0.43711  -0.43404  -0.43043
 Alpha  occ. eigenvalues --   -0.42914  -0.42381  -0.42108  -0.42050  -0.41807
 Alpha  occ. eigenvalues --   -0.41393  -0.41044  -0.40911  -0.40797  -0.40237
 Alpha  occ. eigenvalues --   -0.39989  -0.39718  -0.39629  -0.39297  -0.39167
 Alpha  occ. eigenvalues --   -0.38746  -0.38573  -0.38357  -0.37862  -0.37782
 Alpha  occ. eigenvalues --   -0.37188  -0.36726  -0.36573  -0.36496  -0.36053
 Alpha  occ. eigenvalues --   -0.35828  -0.35555  -0.35247  -0.35100  -0.34834
 Alpha  occ. eigenvalues --   -0.34788  -0.34512  -0.34443  -0.34135  -0.33675
 Alpha  occ. eigenvalues --   -0.33509  -0.33403  -0.33224  -0.33115  -0.32906
 Alpha  occ. eigenvalues --   -0.32821  -0.32447  -0.32141  -0.32066  -0.31694
 Alpha  occ. eigenvalues --   -0.31640  -0.31512  -0.31103  -0.30444  -0.30309
 Alpha  occ. eigenvalues --   -0.30180  -0.30020  -0.29868  -0.29242  -0.25288
 Alpha  occ. eigenvalues --   -0.24937  -0.24927  -0.24628  -0.24605  -0.20055
 Alpha virt. eigenvalues --   -0.01782  -0.00158   0.00311   0.02590   0.03894
 Alpha virt. eigenvalues --    0.04157   0.04443   0.06972   0.07384   0.08060
 Alpha virt. eigenvalues --    0.08402   0.08927   0.09438   0.09859   0.09913

 Mulliken charges:
               1
     1  C   -0.342377
     2  C   -0.040971
     3  C   -0.302187
     4  C   -0.258130
     5  C   -0.259636
     6  C   -0.264967
     7  C   -0.257342
     8  C   -0.262935
     9  C   -0.258849
    10  C   -0.274840
    11  C   -0.020500
    12  O   -0.493592
    13  C    0.147543
    14  C   -0.460813
    15  C   -0.282810
    16  C    0.010390
    17  C    0.349677
    18  N   -0.504184
    19  C   -0.281104
    20  C   -0.278353
    21  C   -0.287080
    22  C   -0.180985
    23  C    0.168588
    24  C   -0.199815
    25  C   -0.175136
    26  C    0.092976
    27  C    0.089266
    28  C   -0.178150
    29  C   -0.186112
    30  C    0.385714
    31  O   -0.546157
    32  C    0.143813
    33  C   -0.288834
    34  C   -0.244666
    35  C   -0.447983
    36  C   -0.288809
    37  C   -0.262116
    38  C   -0.247618
    39  C   -0.442861
    40  C   -0.196031
    41  C   -0.188968
    42  C   -0.179977
    43  C   -0.190960
    44  C   -0.275000
    45  H    0.132523
    46  H    0.136593
    47  H    0.122032
    48  H    0.140591
    49  H    0.138502
    50  H    0.129168
    51  H    0.141984
    52  H    0.126472
    53  H    0.128628
    54  H    0.135424
    55  H    0.132104
    56  H    0.129223
    57  H    0.135344
    58  H    0.127718
    59  H    0.129623
    60  H    0.149704
    61  H    0.125982
    62  H    0.148671
    63  H    0.130941
    64  H    0.128041
    65  H    0.120725
    66  H    0.139727
    67  H    0.151784
    68  H    0.151559
    69  H    0.146534
    70  H    0.151522
    71  H    0.145637
    72  H    0.160577
    73  H    0.167740
    74  H    0.138316
    75  H    0.141618
    76  H    0.152755
    77  H    0.148177
    78  H    0.151860
    79  H    0.128143
    80  H    0.129397
    81  H    0.131120
    82  H    0.135455
    83  H    0.127769
    84  H    0.136841
    85  H    0.139955
    86  H    0.154207
    87  H    0.129669
    88  H    0.157742
    89  H    0.141385
    90  H    0.135675
    91  H    0.149791
    92  H    0.147140
    93  H    0.127922
    94  H    0.135131
    95  H    0.134740
    96  H    0.134193
    97  H    0.144777
    98  H    0.142263
    99  H    0.142042
   100  H    0.135222
   101  H    0.132206
   102  H    0.129485
   103  H    0.124811
   104  H    0.149914
   105  H    0.148089
 Sum of Mulliken charges =  -0.00000

 Dipole moment (field-independent basis, Debye):
    X=              1.1267    Y=              1.7822    Z=             -1.4538  Tot=              2.5611
 Quadrupole moment (field-independent basis, Debye-Ang):
   XX=           -235.2477   YY=           -288.4673   ZZ=           -271.9401
   XY=             -2.3180   XZ=             13.1111   YZ=              7.4778

 Normal termination of Gaussian 16 at Fri Nov  4 21:19:17 2022.
