 Gaussian 16, Revision B.01,
 Gaussian 16:  ES64L-G16RevB.01 20-Dec-2017

 -------------------------------------------------------------------
 #p b3lyp/6-31g(d) 6D 10F nosymm GFInput td=(50-50,nstate=2) SCF=XQC
 -------------------------------------------------------------------

 ------------------------------
 Gaussian input prepared by ASE
 ------------------------------
 Symbolic Z-matrix:
 Charge =  0 Multiplicity = 1

                          Input orientation:
 ---------------------------------------------------------------------
 Center     Atomic      Atomic             Coordinates (Angstroms)
 Number     Number       Type             X           Y           Z
 ---------------------------------------------------------------------
      1          6           0       11.598801   -0.312493   -6.127822
      2          6           0       11.754519    0.600401   -5.168272
      3          6           0       11.522992    0.369644   -3.699535
      4          6           0       10.422504    1.282104   -3.122042
      5          6           0       10.248932    1.177763   -1.596571
      6          6           0        9.812509   -0.195555   -1.054759
      7          6           0        8.436746   -0.667721   -1.553567
      8          6           0        7.945321   -1.999398   -0.939795
      9          6           0        7.053902   -1.878013    0.309728
     10          6           0        7.724197   -1.278706    1.552785
     11          6           0        6.855008   -1.320594    2.805938
     12          8           0        5.702011   -0.509865    2.606674
     13          6           0        4.892962   -0.334987    3.773476
     14          6           0        5.457907    0.780410    4.662316
     15          6           0        3.465056    0.003967    3.327706
     16          6           0        2.625036   -1.120987    2.653283
     17          6           0        2.628395   -2.298639    3.545232
     18          7           0        2.635816   -3.220191    4.253533
     19          6           0        3.180091   -1.528212    1.240301
     20          6           0        2.072254   -1.816556    0.206933
     21          6           0        0.868664   -2.542587    0.820358
     22          6           0        0.197578   -1.725697    1.971144
     23          6           0       -1.147785   -1.118718    1.604340
     24          6           0       -2.261171   -1.309337    2.432245
     25          6           0       -3.498382   -0.743424    2.130029
     26          6           0       -3.678437    0.036694    0.976589
     27          6           0       -4.994499    0.636145    0.647309
     28          6           0       -5.092408    1.909124    0.053815
     29          6           0       -6.322056    2.472435   -0.255355
     30          6           0       -7.512624    1.781614    0.020258
     31          8           0       -8.660746    2.441378   -0.308370
     32          6           0       -9.950284    1.841386   -0.084456
     33          6           0      -10.948335    3.005319    0.086416
     34          6           0      -10.779121    4.235701   -0.825669
     35          6           0      -10.980928    4.019430   -2.329983
     36          6           0      -10.280452    0.831055   -1.198769
     37          6           0      -11.458022   -0.095938   -0.864096
     38          6           0      -11.736888   -1.129870   -1.963641
     39          6           0      -12.907271   -2.061057   -1.632031
     40          6           0       -7.438304    0.511148    0.606255
     41          6           0       -6.192947   -0.040814    0.911393
     42          6           0       -2.561562    0.225708    0.143990
     43          6           0       -1.325706   -0.335827    0.453498
     44          6           0        1.156687   -0.631016    2.504230
     45          1           0       11.291568   -1.332049   -5.901761
     46          1           0       11.774669   -0.080642   -7.175022
     47          1           0       12.061711    1.611046   -5.445489
     48          1           0       11.271695   -0.685108   -3.532484
     49          1           0       12.457656    0.560104   -3.148307
     50          1           0       10.663582    2.325053   -3.371489
     51          1           0        9.475004    1.064594   -3.631441
     52          1           0       11.197497    1.458525   -1.116316
     53          1           0        9.513895    1.930781   -1.277826
     54          1           0        9.810820   -0.142994    0.040849
     55          1           0       10.563447   -0.955693   -1.312696
     56          1           0        7.689481    0.118407   -1.366780
     57          1           0        8.481542   -0.780569   -2.644311
     58          1           0        8.811994   -2.638021   -0.712464
     59          1           0        7.366789   -2.543966   -1.697533
     60          1           0        6.168243   -1.280498    0.060481
     61          1           0        6.682803   -2.881490    0.565920
     62          1           0        8.007672   -0.234904    1.371019
     63          1           0        8.651742   -1.826172    1.773644
     64          1           0        6.548651   -2.356424    3.030646
     65          1           0        7.438086   -0.958725    3.666658
     66          1           0        4.875416   -1.276716    4.343871
     67          1           0        6.494821    0.574262    4.945993
     68          1           0        5.435797    1.738793    4.131208
     69          1           0        4.874961    0.878929    5.584929
     70          1           0        3.508281    0.851204    2.631531
     71          1           0        2.916393    0.346884    4.213648
     72          1           0        3.830199   -2.401536    1.347537
     73          1           0        3.822178   -0.719826    0.882412
     74          1           0        1.740671   -0.874823   -0.249769
     75          1           0        2.493898   -2.413063   -0.610998
     76          1           0        1.206691   -3.506482    1.220814
     77          1           0        0.129216   -2.772035    0.045706
     78          1           0        0.016540   -2.417318    2.801821
     79          1           0       -2.156376   -1.906703    3.335641
     80          1           0       -4.331910   -0.891164    2.811370
     81          1           0       -4.188088    2.478175   -0.143670
     82          1           0       -6.389951    3.460424   -0.700416
     83          1           0       -9.919511    1.298561    0.870729
     84          1           0      -11.963677    2.600821   -0.019652
     85          1           0      -10.869605    3.358195    1.122601
     86          1           0       -9.786186    4.664607   -0.653731
     87          1           0      -11.502301    4.986055   -0.478421
     88          1           0      -10.175106    3.419513   -2.764227
     89          1           0      -10.990423    4.981173   -2.856310
     90          1           0      -11.933056    3.517399   -2.544302
     91          1           0      -10.480319    1.362797   -2.134599
     92          1           0       -9.388015    0.217863   -1.377247
     93          1           0      -11.254389   -0.621683    0.081412
     94          1           0      -12.369039    0.494087   -0.691320
     95          1           0      -10.830357   -1.726563   -2.137065
     96          1           0      -11.940926   -0.606159   -2.908136
     97          1           0      -13.080734   -2.785852   -2.435438
     98          1           0      -12.717207   -2.624898   -0.710407
     99          1           0      -13.836082   -1.495450   -1.487607
    100          1           0       -8.332691   -0.063389    0.817024
    101          1           0       -6.158669   -1.038620    1.340256
    102          1           0       -2.670141    0.799308   -0.772596
    103          1           0       -0.491148   -0.171122   -0.224010
    104          1           0        0.785130   -0.259814    3.465967
    105          1           0        1.167203    0.227686    1.821651
 ---------------------------------------------------------------------

 SCF Done:  E(RB3LYP) =  -1804.28829525     A.U. after   14 cycles

 Excitation energies and oscillator strengths:

 Excited state symmetry could not be determined.
 Excited State   1:      Triplet-?Sym    3.1788 eV  390.03 nm  f=0.0000  <S**2>=2.000
     163 ->168         0.14287
     164 ->167        -0.15678
     165 ->166         0.62421
 This state for optimization and/or second-order correction.
 Total Energy, E(TD-HF/TD-DFT) =  -1804.17147476
 Copying the excited state density for this state as the 1-particle RhoCI density.

 Excited state symmetry could not be determined.
 Excited State   2:      Triplet-?Sym    3.8730 eV  320.13 nm  f=0.0000  <S**2>=2.000
     161 ->166        -0.10936
     161 ->167         0.20368
     163 ->166        -0.26329
     163 ->167        -0.23989
     163 ->168        -0.10140
     164 ->166        -0.16628
     164 ->168         0.29112
     165 ->167         0.20365
     165 ->168        -0.18000
     165 ->170        -0.24361
     165 ->171         0.16936

 Excited state symmetry could not be determined.
 Excited State   3:      Singlet-?Sym    4.5872 eV  270.28 nm  f=0.8901  <S**2>=0.000
     165 ->166         0.69073

 Excited state symmetry could not be determined.
 Excited State   4:      Singlet-?Sym    4.7049 eV  263.52 nm  f=0.0517  <S**2>=0.000
     161 ->166        -0.14099
     164 ->166         0.21029
     165 ->166        -0.10522
     165 ->167         0.64196

 Alpha  occ. eigenvalues --  -19.17103 -19.14618 -14.32420 -10.24564 -10.24367
 Alpha  occ. eigenvalues --  -10.24072 -10.23692 -10.22941 -10.21587 -10.19822
 Alpha  occ. eigenvalues --  -10.19646 -10.19473 -10.19341 -10.19072 -10.18926
 Alpha  occ. eigenvalues --  -10.18917 -10.18832 -10.18731 -10.18592 -10.18555
 Alpha  occ. eigenvalues --  -10.18550 -10.18546 -10.18492 -10.18477 -10.18442
 Alpha  occ. eigenvalues --  -10.18433 -10.18382 -10.18360 -10.18265 -10.18173
 Alpha  occ. eigenvalues --  -10.18163 -10.18155 -10.18152 -10.17956 -10.17937
 Alpha  occ. eigenvalues --  -10.17894 -10.17839 -10.17795 -10.17713 -10.17646
 Alpha  occ. eigenvalues --  -10.17615 -10.17567 -10.17378 -10.17133  -1.05647
 Alpha  occ. eigenvalues --   -1.02862  -0.89827  -0.86379  -0.85211  -0.83966
 Alpha  occ. eigenvalues --   -0.81403  -0.81248  -0.80464  -0.79422  -0.78719
 Alpha  occ. eigenvalues --   -0.77776  -0.76922  -0.75607  -0.75284  -0.74542
 Alpha  occ. eigenvalues --   -0.74054  -0.73699  -0.73688  -0.71063  -0.70649
 Alpha  occ. eigenvalues --   -0.69534  -0.68501  -0.66847  -0.65881  -0.64068
 Alpha  occ. eigenvalues --   -0.63616  -0.63009  -0.62189  -0.60954  -0.60271
 Alpha  occ. eigenvalues --   -0.59662  -0.59329  -0.58894  -0.58325  -0.57385
 Alpha  occ. eigenvalues --   -0.56639  -0.55735  -0.55452  -0.55037  -0.54758
 Alpha  occ. eigenvalues --   -0.53148  -0.51101  -0.50468  -0.49441  -0.48412
 Alpha  occ. eigenvalues --   -0.48068  -0.47778  -0.47386  -0.47193  -0.46759
 Alpha  occ. eigenvalues --   -0.46279  -0.46063  -0.45426  -0.45063  -0.44181
 Alpha  occ. eigenvalues --   -0.44023  -0.43838  -0.43711  -0.43404  -0.43043
 Alpha  occ. eigenvalues --   -0.42914  -0.42380  -0.42108  -0.42050  -0.41807
 Alpha  occ. eigenvalues --   -0.41393  -0.41044  -0.40911  -0.40797  -0.40237
 Alpha  occ. eigenvalues --   -0.39988  -0.39718  -0.39629  -0.39297  -0.39167
 Alpha  occ. eigenvalues --   -0.38746  -0.38573  -0.38357  -0.37862  -0.37782
 Alpha  occ. eigenvalues --   -0.37188  -0.36726  -0.36573  -0.36496  -0.36053
 Alpha  occ. eigenvalues --   -0.35828  -0.35555  -0.35247  -0.35100  -0.34834
 Alpha  occ. eigenvalues --   -0.34788  -0.34512  -0.34443  -0.34135  -0.33675
 Alpha  occ. eigenvalues --   -0.33509  -0.33403  -0.33224  -0.33115  -0.32906
 Alpha  occ. eigenvalues --   -0.32821  -0.32447  -0.32141  -0.32066  -0.31694
 Alpha  occ. eigenvalues --   -0.31640  -0.31512  -0.31103  -0.30444  -0.30308
 Alpha  occ. eigenvalues --   -0.30180  -0.30020  -0.29868  -0.29242  -0.25288
 Alpha  occ. eigenvalues --   -0.24937  -0.24927  -0.24628  -0.24605  -0.20055
 Alpha virt. eigenvalues --   -0.01782  -0.00158   0.00311   0.02590   0.03894
 Alpha virt. eigenvalues --    0.04157   0.04443   0.06972   0.07384   0.08060
 Alpha virt. eigenvalues --    0.08402   0.08926   0.09438   0.09859   0.09913

 Mulliken charges:
               1
     1  C   -0.342380
     2  C   -0.040962
     3  C   -0.302190
     4  C   -0.258123
     5  C   -0.259657
     6  C   -0.264954
     7  C   -0.257324
     8  C   -0.262946
     9  C   -0.258849
    10  C   -0.274852
    11  C   -0.020483
    12  O   -0.493603
    13  C    0.147562
    14  C   -0.460816
    15  C   -0.282836
    16  C    0.010446
    17  C    0.349655
    18  N   -0.504175
    19  C   -0.281114
    20  C   -0.278357
    21  C   -0.287065
    22  C   -0.181028
    23  C    0.168623
    24  C   -0.199828
    25  C   -0.175155
    26  C    0.092991
    27  C    0.089256
    28  C   -0.178138
    29  C   -0.186104
    30  C    0.385714
    31  O   -0.546166
    32  C    0.143837
    33  C   -0.288817
    34  C   -0.244691
    35  C   -0.447967
    36  C   -0.288803
    37  C   -0.262128
    38  C   -0.247628
    39  C   -0.442846
    40  C   -0.196037
    41  C   -0.188960
    42  C   -0.179984
    43  C   -0.190972
    44  C   -0.274989
    45  H    0.132522
    46  H    0.136593
    47  H    0.122031
    48  H    0.140591
    49  H    0.138502
    50  H    0.129168
    51  H    0.141983
    52  H    0.126474
    53  H    0.128631
    54  H    0.135422
    55  H    0.132102
    56  H    0.129218
    57  H    0.135342
    58  H    0.127718
    59  H    0.129623
    60  H    0.149707
    61  H    0.125983
    62  H    0.148672
    63  H    0.130941
    64  H    0.128039
    65  H    0.120724
    66  H    0.139724
    67  H    0.151784
    68  H    0.151559
    69  H    0.146533
    70  H    0.151521
    71  H    0.145638
    72  H    0.160579
    73  H    0.167739
    74  H    0.138317
    75  H    0.141616
    76  H    0.152753
    77  H    0.148175
    78  H    0.151864
    79  H    0.128145
    80  H    0.129398
    81  H    0.131119
    82  H    0.135453
    83  H    0.127764
    84  H    0.136838
    85  H    0.139954
    86  H    0.154209
    87  H    0.129671
    88  H    0.157741
    89  H    0.141383
    90  H    0.135672
    91  H    0.149786
    92  H    0.147137
    93  H    0.127922
    94  H    0.135134
    95  H    0.134742
    96  H    0.134194
    97  H    0.144774
    98  H    0.142261
    99  H    0.142039
   100  H    0.135221
   101  H    0.132206
   102  H    0.129485
   103  H    0.124811
   104  H    0.149911
   105  H    0.148088
 Sum of Mulliken charges =  -0.00000

 Dipole moment (field-independent basis, Debye):
    X=             -0.9566    Y=              2.0895    Z=             -1.1306  Tot=              2.5611
 Quadrupole moment (field-independent basis, Debye-Ang):
   XX=           -232.8640   YY=           -281.1831   ZZ=           -281.9295
   XY=              8.7393   XZ=              3.0122   YZ=             11.2695

 Normal termination of Gaussian 16 at Sat Nov  5 12:24:11 2022.
