 Gaussian 16, Revision B.01,
 Gaussian 16:  ES64L-G16RevB.01 20-Dec-2017

 -----------------------------
 #p b3lyp/6-31g(d) opt SCF=XQC
 -----------------------------

 ------------------------------
 Gaussian input prepared by ASE
 ------------------------------
 Symbolic Z-matrix:
 Charge =  0 Multiplicity = 1

 SCF Done:  E(RB3LYP) =  -1434.64320981     A.U. after   15 cycles
 SCF Done:  E(RB3LYP) =  -1434.65115152     A.U. after   12 cycles
 SCF Done:  E(RB3LYP) =  -1434.65174846     A.U. after   12 cycles
 SCF Done:  E(RB3LYP) =  -1434.65191506     A.U. after   11 cycles
 SCF Done:  E(RB3LYP) =  -1434.65195226     A.U. after   11 cycles
 SCF Done:  E(RB3LYP) =  -1434.65199153     A.U. after   10 cycles
 SCF Done:  E(RB3LYP) =  -1434.65201639     A.U. after   10 cycles
 SCF Done:  E(RB3LYP) =  -1434.65202469     A.U. after   10 cycles
 SCF Done:  E(RB3LYP) =  -1434.65203199     A.U. after   10 cycles
 SCF Done:  E(RB3LYP) =  -1434.65204210     A.U. after   11 cycles
 SCF Done:  E(RB3LYP) =  -1434.65204385     A.U. after   10 cycles
 SCF Done:  E(RB3LYP) =  -1434.65204575     A.U. after   10 cycles
 SCF Done:  E(RB3LYP) =  -1434.65204520     A.U. after    9 cycles
 SCF Done:  E(RB3LYP) =  -1434.65204491     A.U. after    7 cycles
 SCF Done:  E(RB3LYP) =  -1434.65204573     A.U. after    9 cycles
 SCF Done:  E(RB3LYP) =  -1434.65204480     A.U. after    9 cycles
 SCF Done:  E(RB3LYP) =  -1434.65204474     A.U. after    6 cycles
 SCF Done:  E(RB3LYP) =  -1434.65204572     A.U. after    9 cycles
 SCF Done:  E(RB3LYP) =  -1434.65204467     A.U. after    9 cycles
 Optimization completed.
    -- Stationary point found.

                         Standard orientation:
 ---------------------------------------------------------------------
 Center     Atomic      Atomic             Coordinates (Angstroms)
 Number     Number       Type             X           Y           Z
 ---------------------------------------------------------------------
      1          6           0        7.801534   -1.384053   -1.635632
      2          6           0        7.279175   -1.179439   -0.196736
      3          6           0        8.031925   -0.076815    0.507048
      4          6           0        7.514777    1.153626    0.627643
      5          6           0        6.174071    1.475233    0.150449
      6          6           0        5.689284    2.784673    0.120331
      7          6           0        4.397963    3.062276   -0.325269
      8          6           0        3.583010    2.008967   -0.732141
      9          6           0        4.025480    0.677377   -0.706973
     10          6           0        3.047514   -0.402483   -1.138510
     11          7           0        2.047420   -0.751657   -0.112456
     12          6           0        2.563737   -1.438237    1.077451
     13          6           0        1.458351   -2.047436    1.932652
     14          6           0        0.363730   -1.008594    2.161401
     15          6           0       -0.274204   -0.560382    0.831793
     16          6           0       -1.207885    0.661806    1.057089
     17          6           0       -2.666104    0.266518    1.296768
     18          7           0       -3.202101   -0.421832    0.118330
     19          6           0       -4.524268   -0.284848   -0.212071
     20          6           0       -5.035202   -0.782521   -1.472175
     21          7           0       -6.291546   -0.680194   -1.815981
     22          6           0       -7.138856   -0.061544   -0.935130
     23          6           0       -8.509379    0.072943   -1.257866
     24          6           0       -9.366452    0.708293   -0.383615
     25          6           0       -8.874768    1.229694    0.837721
     26          6           0       -7.542344    1.111588    1.174430
     27          6           0       -6.639500    0.459343    0.295982
     28          7           0       -5.329413    0.333558    0.643880
     29          6           0       -2.268960   -1.230446   -0.670159
     30          6           0       -1.121072   -1.723489    0.215088
     31          6           0        0.796249   -0.195377   -0.224567
     32          8           0        0.490134    0.508190   -1.190266
     33          6           0        5.339219    0.403114   -0.266665
     34          7           0        5.838028   -0.893054   -0.145995
     35          1           0        8.871351   -1.625153   -1.628815
     36          1           0        7.658426   -0.473992   -2.227516
     37          1           0        7.273881   -2.210099   -2.130088
     38          1           0        7.427908   -2.121370    0.350550
     39          1           0        9.037121   -0.303211    0.852765
     40          1           0        8.091228    1.952601    1.089688
     41          1           0        6.343025    3.590694    0.446866
     42          1           0        4.031442    4.083912   -0.355298
     43          1           0        2.572045    2.202890   -1.080581
     44          1           0        3.555761   -1.330728   -1.429415
     45          1           0        2.481993   -0.058780   -2.004476
     46          1           0        3.256212   -2.218528    0.738352
     47          1           0        3.157967   -0.731910    1.674965
     48          1           0        1.891247   -2.379567    2.883326
     49          1           0        1.046850   -2.937607    1.441112
     50          1           0       -0.416232   -1.394758    2.830012
     51          1           0        0.802203   -0.134731    2.663765
     52          1           0       -1.160240    1.306965    0.175970
     53          1           0       -0.853375    1.248924    1.912985
     54          1           0       -2.768784   -0.363354    2.194844
     55          1           0       -3.279485    1.151766    1.473371
     56          1           0       -4.369321   -1.245460   -2.196172
     57          1           0       -8.851243   -0.335046   -2.204599
     58          1           0      -10.419683    0.813037   -0.628491
     59          1           0       -9.559512    1.729886    1.517942
     60          1           0       -7.151223    1.505129    2.107916
     61          1           0       -1.862679   -0.664089   -1.519605
     62          1           0       -2.795837   -2.103431   -1.068801
     63          1           0       -0.490154   -2.395624   -0.376298
     64          1           0       -1.542741   -2.324413    1.031369
     65          1           0        5.281901   -1.605932   -0.597980
 ---------------------------------------------------------------------

 The electronic state is 1-A.
 Alpha  occ. eigenvalues --  -19.11367 -14.36895 -14.35465 -14.35051 -14.33235
 Alpha  occ. eigenvalues --  -14.31403 -10.28586 -10.25607 -10.23696 -10.23255
 Alpha  occ. eigenvalues --  -10.23105 -10.22599 -10.22374 -10.22055 -10.21406
 Alpha  occ. eigenvalues --  -10.21320 -10.21310 -10.20667 -10.20143 -10.20115
 Alpha  occ. eigenvalues --  -10.19696 -10.19199 -10.19049 -10.19036 -10.18915
 Alpha  occ. eigenvalues --  -10.18613 -10.18520 -10.18502 -10.18345 -10.18249
 Alpha  occ. eigenvalues --  -10.18090 -10.18010 -10.17691 -10.17614  -1.03391
 Alpha  occ. eigenvalues --   -0.97895  -0.94704  -0.93662  -0.93630  -0.88566
 Alpha  occ. eigenvalues --   -0.84630  -0.83908  -0.82828  -0.80639  -0.78672
 Alpha  occ. eigenvalues --   -0.76630  -0.76554  -0.75086  -0.74538  -0.73554
 Alpha  occ. eigenvalues --   -0.71113  -0.70424  -0.69384  -0.66877  -0.65537
 Alpha  occ. eigenvalues --   -0.63462  -0.63342  -0.62064  -0.61555  -0.61538
 Alpha  occ. eigenvalues --   -0.59549  -0.58915  -0.56178  -0.53938  -0.53419
 Alpha  occ. eigenvalues --   -0.52729  -0.52403  -0.51895  -0.50922  -0.50205
 Alpha  occ. eigenvalues --   -0.49879  -0.49277  -0.48104  -0.47134  -0.46553
 Alpha  occ. eigenvalues --   -0.46142  -0.45568  -0.45238  -0.44429  -0.44089
 Alpha  occ. eigenvalues --   -0.43708  -0.43089  -0.42609  -0.42346  -0.42172
 Alpha  occ. eigenvalues --   -0.42062  -0.41608  -0.41344  -0.41112  -0.40487
 Alpha  occ. eigenvalues --   -0.39998  -0.39586  -0.39119  -0.38647  -0.37940
 Alpha  occ. eigenvalues --   -0.37875  -0.37305  -0.36822  -0.36015  -0.35671
 Alpha  occ. eigenvalues --   -0.35358  -0.35151  -0.34934  -0.34343  -0.34157
 Alpha  occ. eigenvalues --   -0.33605  -0.32983  -0.32576  -0.32094  -0.31429
 Alpha  occ. eigenvalues --   -0.29989  -0.29073  -0.28609  -0.26670  -0.25301
 Alpha  occ. eigenvalues --   -0.24178  -0.23190  -0.22930  -0.22512  -0.19373
 Alpha  occ. eigenvalues --   -0.18935
 Alpha virt. eigenvalues --   -0.04611  -0.02646   0.00471   0.00779   0.01937
 Alpha virt. eigenvalues --    0.02938   0.05176   0.05750   0.07527   0.09352
 Alpha virt. eigenvalues --    0.09919   0.10138   0.10916   0.11045   0.11284

 Mulliken charges:
               1
     1  C   -0.438565
     2  C    0.012054
     3  C   -0.151761
     4  C   -0.132447
     5  C    0.140350
     6  C   -0.214228
     7  C   -0.135554
     8  C   -0.203243
     9  C    0.121643
    10  C   -0.266391
    11  N   -0.430781
    12  C   -0.119948
    13  C   -0.292319
    14  C   -0.296722
    15  C    0.031858
    16  C   -0.312437
    17  C   -0.132949
    18  N   -0.492592
    19  C    0.528470
    20  C   -0.008189
    21  N   -0.465220
    22  C    0.247575
    23  C   -0.151491
    24  C   -0.145048
    25  C   -0.132662
    26  C   -0.168887
    27  C    0.307410
    28  N   -0.606043
    29  C   -0.133568
    30  C   -0.309982
    31  C    0.602391
    32  O   -0.543076
    33  C    0.225290
    34  N   -0.680147
    35  H    0.146948
    36  H    0.163952
    37  H    0.134409
    38  H    0.137493
    39  H    0.132125
    40  H    0.129220
    41  H    0.124669
    42  H    0.125258
    43  H    0.157784
    44  H    0.130688
    45  H    0.204319
    46  H    0.138545
    47  H    0.168946
    48  H    0.149516
    49  H    0.149366
    50  H    0.142641
    51  H    0.144000
    52  H    0.189094
    53  H    0.140348
    54  H    0.138204
    55  H    0.183711
    56  H    0.144995
    57  H    0.138507
    58  H    0.127622
    59  H    0.128649
    60  H    0.132592
    61  H    0.179263
    62  H    0.151331
    63  H    0.152616
    64  H    0.151626
    65  H    0.308771
 Sum of Mulliken charges =  -0.00000

 Dipole moment (field-independent basis, Debye):
    X=              5.6142    Y=             -3.1656    Z=              2.2577  Tot=              6.8291
 Quadrupole moment (field-independent basis, Debye-Ang):
   XX=           -195.2651   YY=           -190.5228   ZZ=           -201.2260
   XY=            -11.7987   XZ=             -5.2080   YZ=              3.9102

 Normal termination of Gaussian 16 at Fri Nov  4 21:07:52 2022.
