 Gaussian 16, Revision B.01,
 Gaussian 16:  ES64L-G16RevB.01 20-Dec-2017

 -------------------------------------------------------------------
 #p b3lyp/6-31g(d) 6D 10F nosymm GFInput td=(50-50,nstate=2) SCF=XQC
 -------------------------------------------------------------------

 ------------------------------
 Gaussian input prepared by ASE
 ------------------------------
 Symbolic Z-matrix:
 Charge =  0 Multiplicity = 1

                          Input orientation:
 ---------------------------------------------------------------------
 Center     Atomic      Atomic             Coordinates (Angstroms)
 Number     Number       Type             X           Y           Z
 ---------------------------------------------------------------------
      1          6           0       -7.473352    0.903544    1.869382
      2          6           0       -6.913467   -0.333027    1.132789
      3          6           0       -7.653082   -0.581805   -0.159034
      4          6           0       -7.139750   -0.208662   -1.339383
      5          6           0       -5.814242    0.391384   -1.447135
      6          6           0       -5.337771    0.933058   -2.643013
      7          6           0       -4.060529    1.485759   -2.722443
      8          6           0       -3.250990    1.480850   -1.589405
      9          6           0       -3.685170    0.936424   -0.370949
     10          6           0       -2.713198    0.948561    0.796896
     11          7           0       -1.683817   -0.105528    0.732332
     12          6           0       -2.163958   -1.481062    0.909032
     13          6           0       -1.032487   -2.473930    1.150606
     14          6           0        0.062091   -2.258297    0.108917
     15          6           0        0.661360   -0.841589    0.206515
     16          6           0        1.593942   -0.557017   -1.004094
     17          6           0        3.060289   -0.890028   -0.722973
     18          7           0        3.568097   -0.050317    0.366455
     19          6           0        4.880070    0.343049    0.373062
     20          6           0        5.359553    1.330421    1.317406
     21          7           0        6.605560    1.721132    1.360821
     22          6           0        7.472884    1.167103    0.456740
     23          6           0        8.833416    1.553746    0.462974
     24          6           0        9.710228    1.012462   -0.453963
     25          6           0        9.248808    0.070491   -1.405307
     26          6           0        7.926647   -0.321761   -1.431822
     27          6           0        7.004062    0.215698   -0.497906
     28          7           0        5.704575   -0.189219   -0.521489
     29          6           0        2.618532    0.343440    1.410296
     30          6           0        1.497748   -0.693816    1.521409
     31          6           0       -0.439259    0.244638    0.267675
     32          8           0       -0.163279    1.413894   -0.011543
     33          6           0       -4.984983    0.389282   -0.292698
     34          7           0       -5.473099   -0.231331    0.856217
     35          1           0       -8.541230    0.776064    2.084019
     36          1           0       -7.351373    1.802088    1.255576
     37          1           0       -6.954639    1.058647    2.824440
     38          1           0       -7.042096   -1.202721    1.793066
     39          1           0       -8.647292   -1.014919   -0.087244
     40          1           0       -7.707966   -0.345504   -2.257287
     41          1           0       -5.986947    0.921973   -3.516008
     42          1           0       -3.700669    1.914092   -3.653040
     43          1           0       -2.250906    1.904219   -1.630119
     44          1           0       -3.223922    0.848516    1.763194
     45          1           0       -2.173205    1.895123    0.813387
     46          1           0       -2.860969   -1.485011    1.756101
     47          1           0       -2.745769   -1.778934    0.024839
     48          1           0       -1.437682   -3.490709    1.091715
     49          1           0       -0.629445   -2.349187    2.163200
     50          1           0        0.861975   -3.002359    0.214080
     51          1           0       -0.367529   -2.400002   -0.892887
     52          1           0        1.518908    0.502200   -1.263517
     53          1           0        1.259406   -1.132620   -1.875707
     54          1           0        3.190709   -1.957571   -0.483875
     55          1           0        3.673260   -0.698006   -1.605289
     56          1           0        4.676956    1.804039    2.018569
     57          1           0        9.151856    2.281401    1.203745
     58          1           0       10.755858    1.307222   -0.451661
     59          1           0        9.948870   -0.347939   -2.124053
     60          1           0        7.558691   -1.044041   -2.154433
     61          1           0        2.186294    1.333552    1.209720
     62          1           0        3.139319    0.392078    2.372082
     63          1           0        0.854851   -0.421727    2.365336
     64          1           0        1.944664   -1.666099    1.766686
     65          1           0       -4.925409   -0.071408    1.690617
 ---------------------------------------------------------------------

 SCF Done:  E(RB3LYP) =  -1434.65204048     A.U. after   15 cycles

 Excitation energies and oscillator strengths:

 Excited state symmetry could not be determined.
 Excited State   1:      Triplet-?Sym    2.5527 eV  485.70 nm  f=0.0000  <S**2>=2.000
     120 ->122         0.68181
     120 ->124         0.10077
 This state for optimization and/or second-order correction.
 Total Energy, E(TD-HF/TD-DFT) =  -1434.55823019
 Copying the excited state density for this state as the 1-particle RhoCI density.

 Excited state symmetry could not be determined.
 Excited State   2:      Triplet-?Sym    2.6675 eV  464.79 nm  f=0.0000  <S**2>=2.000
     119 ->123        -0.28456
     121 ->123         0.61179
     121 ->125         0.15803

 Excited state symmetry could not be determined.
 Excited State   3:      Singlet-?Sym    3.5431 eV  349.93 nm  f=0.1369  <S**2>=0.000
     120 ->122         0.69159

 Excited state symmetry could not be determined.
 Excited State   4:      Singlet-?Sym    3.6555 eV  339.17 nm  f=0.0000  <S**2>=0.000
     121 ->122         0.70660

 Alpha  occ. eigenvalues --  -19.11367 -14.36895 -14.35465 -14.35051 -14.33235
 Alpha  occ. eigenvalues --  -14.31403 -10.28585 -10.25607 -10.23697 -10.23255
 Alpha  occ. eigenvalues --  -10.23105 -10.22599 -10.22374 -10.22055 -10.21406
 Alpha  occ. eigenvalues --  -10.21319 -10.21310 -10.20667 -10.20143 -10.20115
 Alpha  occ. eigenvalues --  -10.19696 -10.19199 -10.19049 -10.19036 -10.18915
 Alpha  occ. eigenvalues --  -10.18613 -10.18520 -10.18502 -10.18345 -10.18249
 Alpha  occ. eigenvalues --  -10.18090 -10.18010 -10.17691 -10.17614  -1.03391
 Alpha  occ. eigenvalues --   -0.97895  -0.94704  -0.93662  -0.93630  -0.88566
 Alpha  occ. eigenvalues --   -0.84630  -0.83908  -0.82828  -0.80639  -0.78672
 Alpha  occ. eigenvalues --   -0.76631  -0.76554  -0.75086  -0.74538  -0.73554
 Alpha  occ. eigenvalues --   -0.71113  -0.70424  -0.69384  -0.66877  -0.65537
 Alpha  occ. eigenvalues --   -0.63462  -0.63342  -0.62064  -0.61555  -0.61538
 Alpha  occ. eigenvalues --   -0.59549  -0.58915  -0.56178  -0.53938  -0.53419
 Alpha  occ. eigenvalues --   -0.52729  -0.52403  -0.51895  -0.50922  -0.50205
 Alpha  occ. eigenvalues --   -0.49879  -0.49277  -0.48104  -0.47134  -0.46553
 Alpha  occ. eigenvalues --   -0.46142  -0.45568  -0.45238  -0.44429  -0.44089
 Alpha  occ. eigenvalues --   -0.43708  -0.43089  -0.42609  -0.42346  -0.42172
 Alpha  occ. eigenvalues --   -0.42062  -0.41608  -0.41344  -0.41112  -0.40487
 Alpha  occ. eigenvalues --   -0.39998  -0.39586  -0.39119  -0.38647  -0.37940
 Alpha  occ. eigenvalues --   -0.37875  -0.37305  -0.36822  -0.36015  -0.35671
 Alpha  occ. eigenvalues --   -0.35358  -0.35151  -0.34934  -0.34343  -0.34157
 Alpha  occ. eigenvalues --   -0.33605  -0.32983  -0.32576  -0.32094  -0.31429
 Alpha  occ. eigenvalues --   -0.29989  -0.29073  -0.28609  -0.26670  -0.25301
 Alpha  occ. eigenvalues --   -0.24178  -0.23190  -0.22930  -0.22512  -0.19373
 Alpha  occ. eigenvalues --   -0.18935
 Alpha virt. eigenvalues --   -0.04611  -0.02646   0.00471   0.00779   0.01937
 Alpha virt. eigenvalues --    0.02938   0.05176   0.05750   0.07527   0.09352
 Alpha virt. eigenvalues --    0.09919   0.10138   0.10916   0.11045   0.11284

 Mulliken charges:
               1
     1  C   -0.438566
     2  C    0.012064
     3  C   -0.151771
     4  C   -0.132448
     5  C    0.140332
     6  C   -0.214231
     7  C   -0.135547
     8  C   -0.203253
     9  C    0.121648
    10  C   -0.266385
    11  N   -0.430804
    12  C   -0.119936
    13  C   -0.292367
    14  C   -0.296680
    15  C    0.031866
    16  C   -0.312468
    17  C   -0.132933
    18  N   -0.492571
    19  C    0.528472
    20  C   -0.008199
    21  N   -0.465226
    22  C    0.247570
    23  C   -0.151496
    24  C   -0.145035
    25  C   -0.132666
    26  C   -0.168898
    27  C    0.307431
    28  N   -0.606049
    29  C   -0.133552
    30  C   -0.310027
    31  C    0.602427
    32  O   -0.543073
    33  C    0.225312
    34  N   -0.680146
    35  H    0.146948
    36  H    0.163952
    37  H    0.134409
    38  H    0.137493
    39  H    0.132125
    40  H    0.129222
    41  H    0.124669
    42  H    0.125258
    43  H    0.157786
    44  H    0.130683
    45  H    0.204315
    46  H    0.138546
    47  H    0.168943
    48  H    0.149520
    49  H    0.149370
    50  H    0.142638
    51  H    0.143998
    52  H    0.189093
    53  H    0.140349
    54  H    0.138200
    55  H    0.183709
    56  H    0.144997
    57  H    0.138508
    58  H    0.127621
    59  H    0.128648
    60  H    0.132592
    61  H    0.179262
    62  H    0.151329
    63  H    0.152622
    64  H    0.151630
    65  H    0.308770
 Sum of Mulliken charges =  -0.00000

 Dipole moment (field-independent basis, Debye):
    X=             -5.5334    Y=             -3.4479    Z=              2.0327  Tot=              6.8292
 Quadrupole moment (field-independent basis, Debye-Ang):
   XX=           -199.1230   YY=           -203.3553   ZZ=           -189.4363
   XY=             -2.0827   XZ=            -12.1857   YZ=             -1.1139

 Normal termination of Gaussian 16 at Sat Nov  5 12:16:55 2022.
