 Gaussian 16, Revision B.01,
 Gaussian 16:  ES64L-G16RevB.01 20-Dec-2017

 -----------------------------
 #p b3lyp/6-31g(d) opt SCF=XQC
 -----------------------------

 ------------------------------
 Gaussian input prepared by ASE
 ------------------------------
 Symbolic Z-matrix:
 Charge =  0 Multiplicity = 1

 SCF Done:  E(RB3LYP) =  -770.568325260     A.U. after   14 cycles
 SCF Done:  E(RB3LYP) =  -770.572908956     A.U. after   12 cycles
 SCF Done:  E(RB3LYP) =  -770.573143732     A.U. after   11 cycles
 SCF Done:  E(RB3LYP) =  -770.573231090     A.U. after   11 cycles
 SCF Done:  E(RB3LYP) =  -770.573338463     A.U. after   12 cycles
 SCF Done:  E(RB3LYP) =  -770.573426584     A.U. after   12 cycles
 SCF Done:  E(RB3LYP) =  -770.573543727     A.U. after   12 cycles
 SCF Done:  E(RB3LYP) =  -770.573825461     A.U. after   12 cycles
 SCF Done:  E(RB3LYP) =  -770.573915297     A.U. after   12 cycles
 SCF Done:  E(RB3LYP) =  -770.573967109     A.U. after   14 cycles
 SCF Done:  E(RB3LYP) =  -770.574406637     A.U. after   13 cycles
 SCF Done:  E(RB3LYP) =  -770.574381150     A.U. after   12 cycles
 SCF Done:  E(RB3LYP) =  -770.574410562     A.U. after   12 cycles
 SCF Done:  E(RB3LYP) =  -770.574404236     A.U. after   11 cycles
 SCF Done:  E(RB3LYP) =  -770.574422580     A.U. after   12 cycles
 SCF Done:  E(RB3LYP) =  -770.574423244     A.U. after    9 cycles
 SCF Done:  E(RB3LYP) =  -770.574424170     A.U. after    9 cycles
 SCF Done:  E(RB3LYP) =  -770.574424403     A.U. after    7 cycles
 SCF Done:  E(RB3LYP) =  -770.574424491     A.U. after    7 cycles
 SCF Done:  E(RB3LYP) =  -770.574424532     A.U. after    7 cycles
 Optimization completed.
    -- Stationary point found.

                         Standard orientation:
 ---------------------------------------------------------------------
 Center     Atomic      Atomic             Coordinates (Angstroms)
 Number     Number       Type             X           Y           Z
 ---------------------------------------------------------------------
      1          6           0        4.914698    2.794977    0.487530
      2          6           0        5.070703    1.622405   -0.494916
      3          6           0        3.994974    0.573546   -0.318076
      4          6           0        2.993595    0.366849   -1.273565
      5          6           0        2.018873   -0.603261   -1.047747
      6          6           0        2.056603   -1.351234    0.128813
      7          6           0        1.064919   -2.468929    0.440923
      8          7           0       -0.188161   -2.458990   -0.282606
      9          6           0       -1.174800   -1.487844   -0.116145
     10          6           0       -1.151286   -0.552656    0.931046
     11          6           0       -2.195491    0.361166    1.081469
     12          6           0       -3.288038    0.397839    0.210229
     13          6           0       -4.411171    1.408827    0.395051
     14          6           0       -4.524327    2.373297   -0.800999
     15          6           0       -5.762425    0.725495    0.679298
     16          6           0       -3.295586   -0.535499   -0.838867
     17          6           0       -2.269320   -1.457234   -1.002550
     18          6           0        3.092084   -1.059363    1.025623
     19          7           0        4.035677   -0.137756    0.823308
     20          1           0        3.969896    3.325829    0.322886
     21          1           0        5.733501    3.513742    0.370560
     22          1           0        4.921515    2.426508    1.517968
     23          1           0        6.046474    1.147996   -0.332436
     24          1           0        5.058439    1.992654   -1.527194
     25          1           0        2.977846    0.962032   -2.182551
     26          1           0        1.228237   -0.768566   -1.774576
     27          1           0        0.853725   -2.471061    1.518371
     28          1           0        1.538648   -3.437177    0.234091
     29          1           0       -0.177231   -2.907875   -1.187267
     30          1           0       -0.317107   -0.523373    1.623946
     31          1           0       -2.147621    1.073148    1.903259
     32          1           0       -4.157535    2.011693    1.278234
     33          1           0       -5.300953    3.127027   -0.622210
     34          1           0       -4.788450    1.836735   -1.720480
     35          1           0       -3.577057    2.893662   -0.979983
     36          1           0       -6.544980    1.471162    0.865947
     37          1           0       -5.697470    0.070636    1.555060
     38          1           0       -6.084401    0.112530   -0.171375
     39          1           0       -4.121716   -0.548066   -1.546380
     40          1           0       -2.312518   -2.174654   -1.820430
     41          1           0        3.162121   -1.607653    1.966932
 ---------------------------------------------------------------------

 The electronic state is 1-A.
 Alpha  occ. eigenvalues --  -14.34765 -14.32263 -10.23272 -10.22276 -10.22135
 Alpha  occ. eigenvalues --  -10.21801 -10.20235 -10.19979 -10.19306 -10.18661
 Alpha  occ. eigenvalues --  -10.18310 -10.17967 -10.17850 -10.17811 -10.17530
 Alpha  occ. eigenvalues --  -10.17478 -10.17140 -10.16884 -10.16853  -0.93987
 Alpha  occ. eigenvalues --   -0.93221  -0.84121  -0.80732  -0.78806  -0.78487
 Alpha  occ. eigenvalues --   -0.74712  -0.73423  -0.71652  -0.67892  -0.67541
 Alpha  occ. eigenvalues --   -0.63374  -0.62458  -0.60595  -0.60061  -0.57975
 Alpha  occ. eigenvalues --   -0.55351  -0.52712  -0.50919  -0.49408  -0.48359
 Alpha  occ. eigenvalues --   -0.46053  -0.45202  -0.44142  -0.44032  -0.43214
 Alpha  occ. eigenvalues --   -0.42339  -0.41722  -0.40918  -0.40596  -0.40443
 Alpha  occ. eigenvalues --   -0.40359  -0.39163  -0.38637  -0.38070  -0.37812
 Alpha  occ. eigenvalues --   -0.35950  -0.35383  -0.34079  -0.33984  -0.33855
 Alpha  occ. eigenvalues --   -0.33403  -0.31910  -0.31554  -0.28648  -0.27835
 Alpha  occ. eigenvalues --   -0.24859  -0.24523  -0.23916  -0.18954
 Alpha virt. eigenvalues --   -0.01995  -0.00734   0.00948   0.02429   0.07588
 Alpha virt. eigenvalues --    0.09244   0.10225   0.10723   0.11916   0.12590
 Alpha virt. eigenvalues --    0.12739   0.13265   0.14798   0.15582   0.15723

 Mulliken charges:
               1
     1  C   -0.441102
     2  C   -0.310982
     3  C    0.303669
     4  C   -0.176083
     5  C   -0.137704
     6  C    0.141605
     7  C   -0.222806
     8  N   -0.660170
     9  C    0.361749
    10  C   -0.176353
    11  C   -0.212324
    12  C    0.187310
    13  C   -0.158897
    14  C   -0.436728
    15  C   -0.436668
    16  C   -0.192125
    17  C   -0.196390
    18  C   -0.012503
    19  N   -0.466094
    20  H    0.143459
    21  H    0.141764
    22  H    0.168797
    23  H    0.156531
    24  H    0.134115
    25  H    0.131430
    26  H    0.135266
    27  H    0.167316
    28  H    0.165728
    29  H    0.315815
    30  H    0.125766
    31  H    0.119734
    32  H    0.125393
    33  H    0.137538
    34  H    0.139580
    35  H    0.146998
    36  H    0.137328
    37  H    0.147840
    38  H    0.139985
    39  H    0.120168
    40  H    0.111044
    41  H    0.131001
 Sum of Mulliken charges =  -0.00000

 Dipole moment (field-independent basis, Debye):
    X=             -0.2102    Y=             -0.8300    Z=             -1.7796  Tot=              1.9748
 Quadrupole moment (field-independent basis, Debye-Ang):
   XX=           -121.0231   YY=           -108.4782   ZZ=           -110.1718
   XY=             -1.6755   XZ=             -3.0190   YZ=              2.5921

 1\1\GINC-NODE93\FOpt\RB3LYP\6-31G(d)\C17H22N2\WYKGROUP\04-Nov-2022\0\\
 #p b3lyp/6-31g(d) opt SCF=XQC\\Gaussian input prepared by ASE\\0,1\C,5
 .2663281878,-2.1885839651,-0.7293957242\C,5.4249264966,-0.7727207064,-
 0.1509150022\C,4.2116055287,0.0943872249,-0.4049731428\C,3.3534326083,
 0.4931147735,0.6260447862\C,2.2413369485,1.2785607686,0.3285429753\C,2
 .0009423679,1.6527760803,-0.9933322846\C,0.8402321474,2.5526062145,-1.
 409444136\N,-0.2734704666,2.6581217777,-0.4916560862\C,-1.1440318963,1
 .6083946173,-0.2009933237\C,-1.1666678103,0.4137797877,-0.9386388675\C

 Normal termination of Gaussian 16 at Fri Nov  4 07:48:46 2022.
