 Gaussian 16, Revision B.01,
 Gaussian 16:  ES64L-G16RevB.01 20-Dec-2017

 -------------------------------------------------------------------
 #p b3lyp/6-31g(d) 6D 10F nosymm GFInput td=(50-50,nstate=2) SCF=XQC
 -------------------------------------------------------------------

 ------------------------------
 Gaussian input prepared by ASE
 ------------------------------
 Symbolic Z-matrix:
 Charge =  0 Multiplicity = 1

                          Input orientation:
 ---------------------------------------------------------------------
 Center     Atomic      Atomic             Coordinates (Angstroms)
 Number     Number       Type             X           Y           Z
 ---------------------------------------------------------------------
      1          6           0        5.266328   -2.188584   -0.729396
      2          6           0        5.424926   -0.772721   -0.150915
      3          6           0        4.211606    0.094387   -0.404973
      4          6           0        3.353433    0.493115    0.626045
      5          6           0        2.241337    1.278561    0.328543
      6          6           0        2.000942    1.652776   -0.993332
      7          6           0        0.840232    2.552606   -1.409444
      8          7           0       -0.273470    2.658122   -0.491656
      9          6           0       -1.144032    1.608395   -0.200993
     10          6           0       -1.166668    0.413780   -0.938639
     11          6           0       -2.098334   -0.580992   -0.637824
     12          6           0       -3.028374   -0.445816    0.396978
     13          6           0       -4.030520   -1.549268    0.706460
     14          6           0       -3.833780   -2.130045    2.119801
     15          6           0       -5.484592   -1.082982    0.501809
     16          6           0       -2.989565    0.748804    1.133971
     17          6           0       -2.074403    1.753612    0.846836
     18          6           0        2.912376    1.192465   -1.952021
     19          7           0        3.984214    0.444079   -1.684182
     20          1           0        4.433026   -2.718926   -0.254099
     21          1           0        6.177111   -2.777812   -0.574388
     22          1           0        5.066112   -2.136202   -1.804006
     23          1           0        6.296001   -0.293227   -0.614496
     24          1           0        5.620317   -0.826679    0.926927
     25          1           0        3.554462    0.188510    1.649544
     26          1           0        1.559207    1.587369    1.115974
     27          1           0        0.465131    2.225329   -2.388060
     28          1           0        1.214924    3.572277   -1.566224
     29          1           0       -0.178186    3.350097    0.237810
     30          1           0       -0.453682    0.247883   -1.739234
     31          1           0       -2.090030   -1.495335   -1.228125
     32          1           0       -3.843897   -2.361730   -0.009689
     33          1           0       -4.527824   -2.960010    2.300586
     34          1           0       -4.016689   -1.371068    2.890256
     35          1           0       -2.812399   -2.502241    2.255403
     36          1           0       -6.186683   -1.907994    0.674071
     37          1           0       -5.639732   -0.708057   -0.515728
     38          1           0       -5.744507   -0.275540    1.197165
     39          1           0       -3.690286    0.903618    1.951435
     40          1           0       -2.079422    2.672361    1.431097
     41          1           0        2.765391    1.447079   -3.003285
 ---------------------------------------------------------------------

 SCF Done:  E(RB3LYP) =  -770.574425899     A.U. after   14 cycles

 Excitation energies and oscillator strengths:

 Excited state symmetry could not be determined.
 Excited State   1:      Triplet-?Sym    3.5688 eV  347.41 nm  f=0.0000  <S**2>=2.000
      67 -> 72        -0.13401
      68 -> 71         0.11314
      68 -> 72        -0.29082
      69 -> 70        -0.20614
      69 -> 73         0.56685
 This state for optimization and/or second-order correction.
 Total Energy, E(TD-HF/TD-DFT) =  -770.443274748
 Copying the excited state density for this state as the 1-particle RhoCI density.

 Excited state symmetry could not be determined.
 Excited State   2:      Triplet-?Sym    3.7630 eV  329.48 nm  f=0.0000  <S**2>=2.000
      69 -> 71        -0.32266
      69 -> 72         0.60428

 Excited state symmetry could not be determined.
 Excited State   3:      Singlet-?Sym    3.9585 eV  313.21 nm  f=0.0096  <S**2>=0.000
      69 -> 70         0.70249

 Excited state symmetry could not be determined.
 Excited State   4:      Singlet-?Sym    4.2954 eV  288.64 nm  f=0.0062  <S**2>=0.000
      69 -> 71         0.70053

 Alpha  occ. eigenvalues --  -14.34765 -14.32264 -10.23272 -10.22276 -10.22135
 Alpha  occ. eigenvalues --  -10.21801 -10.20235 -10.19979 -10.19306 -10.18661
 Alpha  occ. eigenvalues --  -10.18310 -10.17966 -10.17850 -10.17810 -10.17530
 Alpha  occ. eigenvalues --  -10.17478 -10.17140 -10.16884 -10.16853  -0.93987
 Alpha  occ. eigenvalues --   -0.93221  -0.84121  -0.80732  -0.78806  -0.78486
 Alpha  occ. eigenvalues --   -0.74712  -0.73423  -0.71652  -0.67892  -0.67540
 Alpha  occ. eigenvalues --   -0.63374  -0.62458  -0.60595  -0.60061  -0.57975
 Alpha  occ. eigenvalues --   -0.55350  -0.52712  -0.50919  -0.49408  -0.48359
 Alpha  occ. eigenvalues --   -0.46053  -0.45202  -0.44142  -0.44032  -0.43214
 Alpha  occ. eigenvalues --   -0.42339  -0.41722  -0.40918  -0.40596  -0.40443
 Alpha  occ. eigenvalues --   -0.40359  -0.39163  -0.38637  -0.38070  -0.37812
 Alpha  occ. eigenvalues --   -0.35950  -0.35383  -0.34079  -0.33984  -0.33855
 Alpha  occ. eigenvalues --   -0.33403  -0.31910  -0.31554  -0.28648  -0.27835
 Alpha  occ. eigenvalues --   -0.24860  -0.24523  -0.23916  -0.18954
 Alpha virt. eigenvalues --   -0.01995  -0.00734   0.00948   0.02429   0.07588
 Alpha virt. eigenvalues --    0.09244   0.10225   0.10723   0.11916   0.12591
 Alpha virt. eigenvalues --    0.12739   0.13265   0.14798   0.15583   0.15723

 Mulliken charges:
               1
     1  C   -0.441094
     2  C   -0.310983
     3  C    0.303657
     4  C   -0.176074
     5  C   -0.137711
     6  C    0.141613
     7  C   -0.222805
     8  N   -0.660171
     9  C    0.361768
    10  C   -0.176372
    11  C   -0.212316
    12  C    0.187333
    13  C   -0.158928
    14  C   -0.436715
    15  C   -0.436659
    16  C   -0.192128
    17  C   -0.196403
    18  C   -0.012511
    19  N   -0.466090
    20  H    0.143458
    21  H    0.141763
    22  H    0.168795
    23  H    0.156532
    24  H    0.134116
    25  H    0.131429
    26  H    0.135267
    27  H    0.167316
    28  H    0.165727
    29  H    0.315815
    30  H    0.125766
    31  H    0.119734
    32  H    0.125395
    33  H    0.137537
    34  H    0.139578
    35  H    0.146997
    36  H    0.137328
    37  H    0.147839
    38  H    0.139983
    39  H    0.120168
    40  H    0.111044
    41  H    0.131002
 Sum of Mulliken charges =  -0.00000

 Dipole moment (field-independent basis, Debye):
    X=             -0.0329    Y=              1.2930    Z=              1.4923  Tot=              1.9748
 Quadrupole moment (field-independent basis, Debye-Ang):
   XX=           -120.1654   YY=           -106.2462   ZZ=           -113.0040
   XY=              1.9433   XZ=              4.1716   YZ=              1.7715

 Normal termination of Gaussian 16 at Sat Nov  5 12:12:16 2022.
