 Gaussian 16, Revision B.01,
 Gaussian 16:  ES64L-G16RevB.01 20-Dec-2017

 -------------------------------------------------------------------
 #p b3lyp/6-31g(d) 6D 10F nosymm GFInput td=(50-50,nstate=2) SCF=XQC
 -------------------------------------------------------------------

 ------------------------------
 Gaussian input prepared by ASE
 ------------------------------
 Symbolic Z-matrix:
 Charge =  0 Multiplicity = 1

                          Input orientation:
 ---------------------------------------------------------------------
 Center     Atomic      Atomic             Coordinates (Angstroms)
 Number     Number       Type             X           Y           Z
 ---------------------------------------------------------------------
      1          6           0       -7.257989    0.378124   -1.777278
      2          6           0       -5.938275    0.709520   -1.119109
      3          6           0       -5.870786    1.023560    0.243401
      4          6           0       -4.651492    1.352075    0.837565
      5          6           0       -3.479979    1.378206    0.081490
      6          6           0       -3.520891    1.067291   -1.287570
      7          6           0       -2.263573    1.119792   -2.131491
      8          6           0       -1.055915    0.305225   -1.649929
      9          8           0        0.085625    0.594579   -1.998547
     10          7           0       -1.320971   -0.783181   -0.870600
     11          6           0       -0.223203   -1.467052   -0.199614
     12          6           0        0.470668   -0.487509    0.784454
     13          8           0       -0.180921    0.308499    1.454851
     14          7           0        1.819872   -0.622423    0.863985
     15          6           0        2.662853    0.308186    1.610516
     16          6           0        3.677965    1.007553    0.728211
     17          6           0        3.324911    1.517278   -0.528071
     18          6           0        4.265813    2.186264   -1.304110
     19          6           0        5.582843    2.367040   -0.854008
     20          7           0        6.535043    2.988274   -1.674759
     21          6           0        5.957710    1.851552    0.406176
     22          6           0        7.374636    2.007445    0.901118
     23          6           0        4.994958    1.182572    1.165235
     24          6           0       -0.731031   -2.707042    0.519772
     25          6           0       -0.455208   -3.979972    0.007547
     26          6           0       -0.937388   -5.122944    0.646870
     27          6           0       -1.705032   -5.003562    1.806322
     28          6           0       -1.984733   -3.736965    2.323577
     29          6           0       -1.500035   -2.594127    1.687125
     30          6           0       -4.751702    0.730981   -1.863476
     31          1           0       -7.762118    1.285330   -2.136665
     32          1           0       -7.121743   -0.280806   -2.641423
     33          1           0       -7.941487   -0.116492   -1.078752
     34          1           0       -6.777843    1.005269    0.843662
     35          1           0       -4.612016    1.586793    1.898111
     36          1           0       -2.530380    1.610321    0.557581
     37          1           0       -2.482790    0.792906   -3.156003
     38          1           0       -1.894088    2.148217   -2.215185
     39          1           0       -2.238620   -0.859431   -0.451857
     40          1           0        0.495226   -1.763006   -0.970797
     41          1           0        2.280258   -1.195824    0.169372
     42          1           0        3.176928   -0.223685    2.421787
     43          1           0        1.970866    1.017567    2.076109
     44          1           0        2.314816    1.386822   -0.909256
     45          1           0        3.979167    2.575434   -2.279231
     46          1           0        6.134739    3.556437   -2.411953
     47          1           0        7.258305    3.496867   -1.180803
     48          1           0        7.515873    1.496682    1.858281
     49          1           0        8.098643    1.593545    0.186645
     50          1           0        7.646765    3.062832    1.056225
     51          1           0        5.289401    0.782267    2.134630
     52          1           0        0.135746   -4.076572   -0.900378
     53          1           0       -0.714193   -6.104834    0.238002
     54          1           0       -2.081586   -5.892561    2.305213
     55          1           0       -2.577345   -3.637114    3.229084
     56          1           0       -1.697387   -1.609000    2.099832
     57          1           0       -4.788905    0.482796   -2.923046
 ---------------------------------------------------------------------

 SCF Done:  E(RB3LYP) =  -1283.67822272     A.U. after   15 cycles

 Excitation energies and oscillator strengths:

 Excited state symmetry could not be determined.
 Excited State   1:      Triplet-?Sym    3.5510 eV  349.15 nm  f=0.0000  <S**2>=2.000
     105 ->112         0.30535
     106 ->112        -0.15012
     107 ->112         0.10677
     107 ->113         0.52227
     107 ->114         0.26950
 This state for optimization and/or second-order correction.
 Total Energy, E(TD-HF/TD-DFT) =  -1283.54772494
 Copying the excited state density for this state as the 1-particle RhoCI density.

 Excited state symmetry could not be determined.
 Excited State   2:      Triplet-?Sym    3.9598 eV  313.11 nm  f=0.0000  <S**2>=2.000
     107 ->112         0.68448

 Excited state symmetry could not be determined.
 Excited State   3:      Singlet-?Sym    4.5475 eV  272.64 nm  f=0.0074  <S**2>=0.000
     107 ->108         0.70155

 Excited state symmetry could not be determined.
 Excited State   4:      Singlet-?Sym    4.7011 eV  263.73 nm  f=0.0019  <S**2>=0.000
     107 ->109         0.70271

 Alpha  occ. eigenvalues --  -19.10927 -19.10782 -14.35613 -14.35296 -14.33590
 Alpha  occ. eigenvalues --  -10.28152 -10.28098 -10.23602 -10.21637 -10.21424
 Alpha  occ. eigenvalues --  -10.20353 -10.19686 -10.19614 -10.19457 -10.19373
 Alpha  occ. eigenvalues --  -10.19363 -10.19314 -10.19242 -10.18951 -10.18669
 Alpha  occ. eigenvalues --  -10.18513 -10.18425 -10.18397 -10.18266 -10.18194
 Alpha  occ. eigenvalues --  -10.18181 -10.17691 -10.17637 -10.17227 -10.17095
 Alpha  occ. eigenvalues --   -1.03275  -1.02134  -0.91973  -0.91831  -0.91173
 Alpha  occ. eigenvalues --   -0.85763  -0.85390  -0.83015  -0.79078  -0.77206
 Alpha  occ. eigenvalues --   -0.76270  -0.75691  -0.74667  -0.74207  -0.71272
 Alpha  occ. eigenvalues --   -0.69482  -0.68153  -0.67661  -0.66237  -0.61067
 Alpha  occ. eigenvalues --   -0.59834  -0.59712  -0.59640  -0.58767  -0.57578
 Alpha  occ. eigenvalues --   -0.56828  -0.56407  -0.52486  -0.51730  -0.50706
 Alpha  occ. eigenvalues --   -0.50298  -0.50243  -0.48446  -0.47454  -0.46807
 Alpha  occ. eigenvalues --   -0.45633  -0.45386  -0.44856  -0.44109  -0.43803
 Alpha  occ. eigenvalues --   -0.43554  -0.42344  -0.42179  -0.41937  -0.41781
 Alpha  occ. eigenvalues --   -0.41628  -0.41140  -0.40611  -0.40273  -0.40042
 Alpha  occ. eigenvalues --   -0.39548  -0.39124  -0.38840  -0.38428  -0.38069
 Alpha  occ. eigenvalues --   -0.37131  -0.36213  -0.35959  -0.35270  -0.34648
 Alpha  occ. eigenvalues --   -0.34457  -0.34093  -0.33743  -0.33624  -0.33200
 Alpha  occ. eigenvalues --   -0.32477  -0.29768  -0.26653  -0.25967  -0.25310
 Alpha  occ. eigenvalues --   -0.25045  -0.24891  -0.24041  -0.23636  -0.23202
 Alpha  occ. eigenvalues --   -0.23134  -0.19181
 Alpha virt. eigenvalues --   -0.01052  -0.00596  -0.00184   0.00198   0.01277
 Alpha virt. eigenvalues --    0.01895   0.02671   0.04079   0.07845   0.08750
 Alpha virt. eigenvalues --    0.09873   0.10064   0.11384   0.11692   0.12101

 Mulliken charges:
               1
     1  C   -0.529778
     2  C    0.183024
     3  C   -0.180330
     4  C   -0.131141
     5  C   -0.201911
     6  C    0.141611
     7  C   -0.440952
     8  C    0.622484
     9  O   -0.534095
    10  N   -0.583837
    11  C   -0.132087
    12  C    0.652769
    13  O   -0.542739
    14  N   -0.592176
    15  C   -0.208234
    16  C    0.141848
    17  C   -0.210348
    18  C   -0.177543
    19  C    0.239420
    20  N   -0.790752
    21  C    0.174339
    22  C   -0.552821
    23  C   -0.271024
    24  C    0.133406
    25  C   -0.179183
    26  C   -0.131248
    27  C   -0.124880
    28  C   -0.131185
    29  C   -0.182156
    30  C   -0.244166
    31  H    0.166780
    32  H    0.156734
    33  H    0.157223
    34  H    0.121663
    35  H    0.134262
    36  H    0.169750
    37  H    0.174364
    38  H    0.188589
    39  H    0.345747
    40  H    0.156361
    41  H    0.329300
    42  H    0.149206
    43  H    0.199088
    44  H    0.177111
    45  H    0.120127
    46  H    0.318566
    47  H    0.319901
    48  H    0.158163
    49  H    0.167548
    50  H    0.146914
    51  H    0.110111
    52  H    0.130861
    53  H    0.132753
    54  H    0.132035
    55  H    0.134950
    56  H    0.167761
    57  H    0.117814
 Sum of Mulliken charges =  -0.00000

 Dipole moment (field-independent basis, Debye):
    X=             -0.0874    Y=             -0.9636    Z=             -0.1924  Tot=              0.9865
 Quadrupole moment (field-independent basis, Debye-Ang):
   XX=           -145.0061   YY=           -158.4509   ZZ=           -170.6211
   XY=             13.1321   XZ=              2.7257   YZ=             -5.1137

 Normal termination of Gaussian 16 at Sat Nov  5 12:14:56 2022.
