 Gaussian 16, Revision B.01,
 Gaussian 16:  ES64L-G16RevB.01 20-Dec-2017

 -----------------------------
 #p b3lyp/6-31g(d) opt SCF=XQC
 -----------------------------

 ------------------------------
 Gaussian input prepared by ASE
 ------------------------------
 Symbolic Z-matrix:
 Charge =  0 Multiplicity = 1

 SCF Done:  E(RB3LYP) =  -1283.66608980     A.U. after   15 cycles
 SCF Done:  E(RB3LYP) =  -1283.67460850     A.U. after   13 cycles
 SCF Done:  E(RB3LYP) =  -1283.67562619     A.U. after   12 cycles
 SCF Done:  E(RB3LYP) =  -1283.67650685     A.U. after   12 cycles
 SCF Done:  E(RB3LYP) =  -1283.67721448     A.U. after   12 cycles
 SCF Done:  E(RB3LYP) =  -1283.67773434     A.U. after   13 cycles
 SCF Done:  E(RB3LYP) =  -1283.67796612     A.U. after   14 cycles
 SCF Done:  E(RB3LYP) =  -1283.67806585     A.U. after   12 cycles
 SCF Done:  E(RB3LYP) =  -1283.67813121     A.U. after   11 cycles
 SCF Done:  E(RB3LYP) =  -1283.67815721     A.U. after   10 cycles
 SCF Done:  E(RB3LYP) =  -1283.67821879     A.U. after    7 cycles
 SCF Done:  E(RB3LYP) =  -1283.67821885     A.U. after    7 cycles
 SCF Done:  E(RB3LYP) =  -1283.67821894     A.U. after    7 cycles
 SCF Done:  E(RB3LYP) =  -1283.67821905     A.U. after    7 cycles
 SCF Done:  E(RB3LYP) =  -1283.67821919     A.U. after    7 cycles
 SCF Done:  E(RB3LYP) =  -1283.67821936     A.U. after    7 cycles
 SCF Done:  E(RB3LYP) =  -1283.67821949     A.U. after    8 cycles
 SCF Done:  E(RB3LYP) =  -1283.67821956     A.U. after    7 cycles
 SCF Done:  E(RB3LYP) =  -1283.67821961     A.U. after    7 cycles
 SCF Done:  E(RB3LYP) =  -1283.67821963     A.U. after    6 cycles
 Optimization completed.
    -- Stationary point found.

                         Standard orientation:
 ---------------------------------------------------------------------
 Center     Atomic      Atomic             Coordinates (Angstroms)
 Number     Number       Type             X           Y           Z
 ---------------------------------------------------------------------
      1          6           0       -7.047649   -2.465493    0.400371
      2          6           0       -5.663266   -2.220218   -0.154586
      3          6           0       -5.475536   -1.877780   -1.498871
      4          6           0       -4.192016   -1.676935   -2.008644
      5          6           0       -3.073955   -1.819659   -1.187458
      6          6           0       -3.235351   -2.162843    0.164889
      7          6           0       -2.031150   -2.351886    1.064873
      8          6           0       -1.019374   -1.201065    1.140894
      9          8           0        0.143923   -1.399069    1.481346
     10          7           0       -1.491853    0.050483    0.871402
     11          6           0       -0.550626    1.150607    0.707648
     12          6           0        0.381880    0.857000   -0.497995
     13          8           0       -0.048881    0.336784   -1.523398
     14          7           0        1.668562    1.259466   -0.332617
     15          6           0        2.726309    0.930735   -1.285016
     16          6           0        3.838138    0.112854   -0.658169
     17          6           0        3.560934   -0.957260    0.202485
     18          6           0        4.597714   -1.714983    0.737292
     19          6           0        5.937848   -1.430588    0.432329
     20          7           0        6.973235   -2.164226    1.028983
     21          6           0        6.235151   -0.349664   -0.426467
     22          6           0        7.668690   -0.005108   -0.747710
     23          6           0        5.176449    0.396479   -0.948980
     24          6           0       -1.295764    2.463642    0.524098
     25          6           0       -1.331812    3.402939    1.561029
     26          6           0       -2.033267    4.600080    1.411253
     27          6           0       -2.710133    4.868927    0.220694
     28          6           0       -2.679090    3.936701   -0.818558
     29          6           0       -1.975105    2.741418   -0.670961
     30          6           0       -4.531142   -2.350868    0.660108
     31          1           0       -7.348917   -3.513493    0.268972
     32          1           0       -7.095371   -2.246582    1.472424
     33          1           0       -7.797625   -1.847602   -0.105097
     34          1           0       -6.340209   -1.762375   -2.148811
     35          1           0       -4.060786   -1.404274   -3.052599
     36          1           0       -2.079149   -1.636498   -1.586320
     37          1           0       -2.356706   -2.560887    2.091941
     38          1           0       -1.444053   -3.222544    0.751102
     39          1           0       -2.386708    0.134107    0.407201
     40          1           0        0.053461    1.199976    1.619293
     41          1           0        1.962087    1.538497    0.594322
     42          1           0        3.138493    1.852263   -1.716536
     43          1           0        2.229034    0.388027   -2.095591
     44          1           0        2.533592   -1.198541    0.465094
     45          1           0        4.368822   -2.542248    1.406410
     46          1           0        6.682785   -3.063678    1.393856
     47          1           0        7.810259   -2.257264    0.466396
     48          1           0        7.728051    0.893961   -1.368305
     49          1           0        8.253927    0.173888    0.164117
     50          1           0        8.176070   -0.811271   -1.299634
     51          1           0        5.410223    1.232401   -1.607198
     52          1           0       -0.812375    3.193272    2.493290
     53          1           0       -2.051432    5.320431    2.224801
     54          1           0       -3.257137    5.800502    0.102540
     55          1           0       -3.199505    4.142138   -1.750259
     56          1           0       -1.930901    2.024701   -1.485891
     57          1           0       -4.663139   -2.610870    1.709223
 ---------------------------------------------------------------------

 The electronic state is 1-A.
 Alpha  occ. eigenvalues --  -19.10927 -19.10781 -14.35613 -14.35296 -14.33590
 Alpha  occ. eigenvalues --  -10.28152 -10.28098 -10.23602 -10.21637 -10.21424
 Alpha  occ. eigenvalues --  -10.20353 -10.19685 -10.19614 -10.19457 -10.19373
 Alpha  occ. eigenvalues --  -10.19363 -10.19314 -10.19242 -10.18951 -10.18669
 Alpha  occ. eigenvalues --  -10.18513 -10.18425 -10.18397 -10.18266 -10.18194
 Alpha  occ. eigenvalues --  -10.18181 -10.17691 -10.17637 -10.17227 -10.17095
 Alpha  occ. eigenvalues --   -1.03275  -1.02134  -0.91973  -0.91831  -0.91173
 Alpha  occ. eigenvalues --   -0.85763  -0.85390  -0.83015  -0.79078  -0.77206
 Alpha  occ. eigenvalues --   -0.76270  -0.75691  -0.74667  -0.74207  -0.71272
 Alpha  occ. eigenvalues --   -0.69482  -0.68153  -0.67661  -0.66237  -0.61067
 Alpha  occ. eigenvalues --   -0.59834  -0.59712  -0.59640  -0.58767  -0.57578
 Alpha  occ. eigenvalues --   -0.56828  -0.56407  -0.52486  -0.51730  -0.50706
 Alpha  occ. eigenvalues --   -0.50298  -0.50243  -0.48446  -0.47454  -0.46807
 Alpha  occ. eigenvalues --   -0.45633  -0.45386  -0.44856  -0.44109  -0.43803
 Alpha  occ. eigenvalues --   -0.43554  -0.42344  -0.42179  -0.41937  -0.41781
 Alpha  occ. eigenvalues --   -0.41628  -0.41140  -0.40611  -0.40273  -0.40042
 Alpha  occ. eigenvalues --   -0.39548  -0.39124  -0.38840  -0.38428  -0.38069
 Alpha  occ. eigenvalues --   -0.37131  -0.36213  -0.35959  -0.35270  -0.34648
 Alpha  occ. eigenvalues --   -0.34457  -0.34093  -0.33743  -0.33624  -0.33200
 Alpha  occ. eigenvalues --   -0.32477  -0.29768  -0.26653  -0.25966  -0.25310
 Alpha  occ. eigenvalues --   -0.25045  -0.24891  -0.24041  -0.23636  -0.23202
 Alpha  occ. eigenvalues --   -0.23134  -0.19181
 Alpha virt. eigenvalues --   -0.01052  -0.00596  -0.00184   0.00198   0.01277
 Alpha virt. eigenvalues --    0.01895   0.02671   0.04079   0.07845   0.08750
 Alpha virt. eigenvalues --    0.09873   0.10064   0.11384   0.11692   0.12101

 Mulliken charges:
               1
     1  C   -0.529777
     2  C    0.183030
     3  C   -0.180326
     4  C   -0.131144
     5  C   -0.201930
     6  C    0.141644
     7  C   -0.440967
     8  C    0.622503
     9  O   -0.534093
    10  N   -0.583861
    11  C   -0.132069
    12  C    0.652751
    13  O   -0.542736
    14  N   -0.592168
    15  C   -0.208236
    16  C    0.141852
    17  C   -0.210354
    18  C   -0.177536
    19  C    0.239409
    20  N   -0.790750
    21  C    0.174345
    22  C   -0.552819
    23  C   -0.271024
    24  C    0.133400
    25  C   -0.179178
    26  C   -0.131245
    27  C   -0.124887
    28  C   -0.131180
    29  C   -0.182151
    30  C   -0.244179
    31  H    0.166780
    32  H    0.156734
    33  H    0.157223
    34  H    0.121662
    35  H    0.134262
    36  H    0.169755
    37  H    0.174364
    38  H    0.188588
    39  H    0.345746
    40  H    0.156361
    41  H    0.329300
    42  H    0.149207
    43  H    0.199087
    44  H    0.177110
    45  H    0.120127
    46  H    0.318566
    47  H    0.319902
    48  H    0.158163
    49  H    0.167547
    50  H    0.146914
    51  H    0.110110
    52  H    0.130861
    53  H    0.132753
    54  H    0.132036
    55  H    0.134949
    56  H    0.167755
    57  H    0.117814
 Sum of Mulliken charges =  -0.00000

 Dipole moment (field-independent basis, Debye):
    X=             -0.3083    Y=              0.7433    Z=              0.5707  Tot=              0.9865
 Quadrupole moment (field-independent basis, Debye-Ang):
   XX=           -139.8744   YY=           -160.2208   ZZ=           -174.0686
   XY=             -7.5960   XZ=             -4.1333   YZ=             -0.7781

 Normal termination of Gaussian 16 at Fri Nov  4 21:17:01 2022.
