 Gaussian 16, Revision B.01,
 Gaussian 16:  ES64L-G16RevB.01 20-Dec-2017

 -----------------------------
 #p b3lyp/6-31g(d) opt SCF=XQC
 -----------------------------

 ------------------------------
 Gaussian input prepared by ASE
 ------------------------------
 Symbolic Z-matrix:
 Charge =  0 Multiplicity = 1

 SCF Done:  E(RB3LYP) =  -1280.87646027     A.U. after   15 cycles
 SCF Done:  E(RB3LYP) =  -1280.88283279     A.U. after   13 cycles
 SCF Done:  E(RB3LYP) =  -1280.88344575     A.U. after   12 cycles
 SCF Done:  E(RB3LYP) =  -1280.88347923     A.U. after   12 cycles
 SCF Done:  E(RB3LYP) =  -1280.88366574     A.U. after   12 cycles
 SCF Done:  E(RB3LYP) =  -1280.88377997     A.U. after   11 cycles
 SCF Done:  E(RB3LYP) =  -1280.88394418     A.U. after   12 cycles
 SCF Done:  E(RB3LYP) =  -1280.88403733     A.U. after   12 cycles
 SCF Done:  E(RB3LYP) =  -1280.88402792     A.U. after   12 cycles
 SCF Done:  E(RB3LYP) =  -1280.88431396     A.U. after   13 cycles
 SCF Done:  E(RB3LYP) =  -1280.88668452     A.U. after   11 cycles
 SCF Done:  E(RB3LYP) =  -1280.88668757     A.U. after    8 cycles
 SCF Done:  E(RB3LYP) =  -1280.88668892     A.U. after    8 cycles
 SCF Done:  E(RB3LYP) =  -1280.88669027     A.U. after    9 cycles
 SCF Done:  E(RB3LYP) =  -1280.88669108     A.U. after    9 cycles
 SCF Done:  E(RB3LYP) =  -1280.88669165     A.U. after    8 cycles
 SCF Done:  E(RB3LYP) =  -1280.88669217     A.U. after    9 cycles
 SCF Done:  E(RB3LYP) =  -1280.88669245     A.U. after    7 cycles
 SCF Done:  E(RB3LYP) =  -1280.88669249     A.U. after    7 cycles
 SCF Done:  E(RB3LYP) =  -1280.88669249     A.U. after    6 cycles
 Optimization completed.
    -- Stationary point found.

                         Standard orientation:
 ---------------------------------------------------------------------
 Center     Atomic      Atomic             Coordinates (Angstroms)
 Number     Number       Type             X           Y           Z
 ---------------------------------------------------------------------
      1          6           0       -2.579094    4.146399    1.619613
      2          6           0       -1.902486    3.099898    0.728126
      3          6           0       -2.837727    2.566983   -0.364314
      4          6           0       -2.192266    1.541254   -1.329392
      5          6           0       -1.793324    0.243851   -0.670376
      6          6           0       -0.514460   -0.132457   -0.308859
      7          6           0        0.746585    0.612970   -0.509151
      8          8           0        0.769361    1.756951   -0.952943
      9          6           0        2.056992   -0.088570   -0.155318
     10          6           0        3.271338    0.817619   -0.391548
     11          7           0        4.527859    0.150455   -0.077617
     12          6           0        5.056639   -0.078087    1.179152
     13          6           0        6.211189   -0.791318    0.971228
     14          7           0        6.410972   -1.013519   -0.372749
     15          6           0        5.385530   -0.440256   -0.965705
     16         16           0       -0.462851   -1.742814    0.440177
     17          6           0       -2.191708   -1.915384    0.268405
     18          6           0       -2.966944   -3.013233    0.659360
     19          6           0       -4.335351   -2.969948    0.425619
     20          6           0       -4.927692   -1.851108   -0.191313
     21          6           0       -4.157929   -0.764491   -0.575207
     22          6           0       -2.765710   -0.775962   -0.346232
     23          1           0       -1.895563    4.511008    2.394813
     24          1           0       -3.461386    3.731301    2.122904
     25          1           0       -2.910311    5.013539    1.034659
     26          1           0       -1.007179    3.527548    0.260901
     27          1           0       -1.552489    2.264302    1.348565
     28          1           0       -3.727781    2.124913    0.104906
     29          1           0       -3.197320    3.408290   -0.973019
     30          1           0       -2.916573    1.310974   -2.122208
     31          1           0       -1.319979    1.994577   -1.800953
     32          1           0        2.152650   -1.006711   -0.750449
     33          1           0        2.026988   -0.415731    0.892839
     34          1           0        3.189596    1.727560    0.209072
     35          1           0        3.306209    1.134950   -1.436340
     36          1           0        4.576242    0.291667    2.073452
     37          1           0        6.914294   -1.149914    1.711321
     38          1           0        5.207679   -0.406966   -2.033364
     39          1           0       -2.509669   -3.878360    1.130216
     40          1           0       -4.955117   -3.812221    0.720008
     41          1           0       -5.999430   -1.841850   -0.367341
     42          1           0       -4.623445    0.093032   -1.051233
 ---------------------------------------------------------------------

 The electronic state is 1-A.
 Alpha  occ. eigenvalues --  -88.91672 -19.15048 -14.38849 -14.30169 -10.29535
 Alpha  occ. eigenvalues --  -10.24169 -10.23863 -10.23401 -10.22819 -10.22430
 Alpha  occ. eigenvalues --  -10.21401 -10.21251 -10.21232 -10.20971 -10.20957
 Alpha  occ. eigenvalues --  -10.20520 -10.20514 -10.19302 -10.18896 -10.18753
 Alpha  occ. eigenvalues --  -10.17705 -10.17276  -7.97778  -5.94214  -5.93856
 Alpha  occ. eigenvalues --   -5.93407  -1.04987  -1.00873  -0.90609  -0.88087
 Alpha  occ. eigenvalues --   -0.84434  -0.81055  -0.78949  -0.77910  -0.75122
 Alpha  occ. eigenvalues --   -0.74392  -0.73277  -0.70584  -0.68710  -0.64091
 Alpha  occ. eigenvalues --   -0.63817  -0.60203  -0.59180  -0.58913  -0.57264
 Alpha  occ. eigenvalues --   -0.56696  -0.53992  -0.52887  -0.49840  -0.49074
 Alpha  occ. eigenvalues --   -0.48433  -0.47912  -0.46274  -0.45694  -0.45209
 Alpha  occ. eigenvalues --   -0.44027  -0.43881  -0.43101  -0.42703  -0.41887
 Alpha  occ. eigenvalues --   -0.41489  -0.40803  -0.40580  -0.39941  -0.39227
 Alpha  occ. eigenvalues --   -0.39029  -0.38284  -0.37531  -0.36728  -0.36146
 Alpha  occ. eigenvalues --   -0.35086  -0.34667  -0.34255  -0.33186  -0.32584
 Alpha  occ. eigenvalues --   -0.32391  -0.28960  -0.27084  -0.25719  -0.25498
 Alpha  occ. eigenvalues --   -0.25056  -0.22981  -0.22007
 Alpha virt. eigenvalues --   -0.07746  -0.01715   0.00155   0.00813   0.03299
 Alpha virt. eigenvalues --    0.05759   0.07679   0.07752   0.08668   0.09501
 Alpha virt. eigenvalues --    0.10208   0.11236   0.11933   0.12406   0.13376

 Mulliken charges:
               1
     1  C   -0.443532
     2  C   -0.249540
     3  C   -0.255695
     4  C   -0.351842
     5  C    0.172548
     6  C   -0.292715
     7  C    0.453651
     8  O   -0.479415
     9  C   -0.389495
    10  C   -0.156895
    11  N   -0.368740
    12  C    0.002382
    13  C   -0.037408
    14  N   -0.435972
    15  C    0.191338
    16  S    0.229275
    17  C   -0.129843
    18  C   -0.177215
    19  C   -0.114191
    20  C   -0.144669
    21  C   -0.171329
    22  C    0.100105
    23  H    0.143137
    24  H    0.139725
    25  H    0.141192
    26  H    0.153940
    27  H    0.133357
    28  H    0.132447
    29  H    0.135865
    30  H    0.141414
    31  H    0.187832
    32  H    0.192414
    33  H    0.187250
    34  H    0.179938
    35  H    0.180234
    36  H    0.146113
    37  H    0.132561
    38  H    0.149411
    39  H    0.149005
    40  H    0.140618
    41  H    0.138694
    42  H    0.144048
 Sum of Mulliken charges =  -0.00000

 Dipole moment (field-independent basis, Debye):
    X=             -5.6258    Y=             -0.1139    Z=              0.8039  Tot=              5.6841
 Quadrupole moment (field-independent basis, Debye-Ang):
   XX=           -157.6544   YY=           -136.0537   ZZ=           -133.2374
   XY=             12.0160   XZ=              6.6455   YZ=             -2.5983

 Normal termination of Gaussian 16 at Fri Nov  4 20:56:50 2022.
