 Gaussian 16, Revision B.01,
 Gaussian 16:  ES64L-G16RevB.01 20-Dec-2017

 -------------------------------------------------------------------
 #p b3lyp/6-31g(d) 6D 10F nosymm GFInput td=(50-50,nstate=2) SCF=XQC
 -------------------------------------------------------------------

 ------------------------------
 Gaussian input prepared by ASE
 ------------------------------
 Symbolic Z-matrix:
 Charge =  0 Multiplicity = 1

                          Input orientation:
 ---------------------------------------------------------------------
 Center     Atomic      Atomic             Coordinates (Angstroms)
 Number     Number       Type             X           Y           Z
 ---------------------------------------------------------------------
      1          6           0       -3.385955    2.487925    1.877493
      2          6           0       -2.407781    1.863543    0.876976
      3          6           0       -3.122084    1.217576   -0.316590
      4          6           0       -2.180748    0.613036   -1.388287
      5          6           0       -1.369425   -0.562239   -0.901261
      6          6           0       -0.035354   -0.545403   -0.543814
      7          6           0        0.905931    0.593983   -0.586163
      8          8           0        0.544991    1.733480   -0.864428
      9          6           0        2.377449    0.318827   -0.280475
     10          6           0        3.221137    1.598094   -0.337825
     11          7           0        4.630118    1.343097   -0.069016
     12          6           0        5.214463    1.120974    1.164074
     13          6           0        6.538455    0.865344    0.905976
     14          7           0        6.790159    0.919134   -0.446545
     15          6           0        5.628149    1.203072   -0.995063
     16         16           0        0.552638   -2.140012   -0.025684
     17          6           0       -1.022691   -2.844586   -0.290538
     18          6           0       -1.387387   -4.180795   -0.088913
     19          6           0       -2.694622   -4.556407   -0.370151
     20          6           0       -3.628934   -3.617471   -0.848414
     21          6           0       -3.265626   -2.294570   -1.044847
     22          6           0       -1.946501   -1.880747   -0.762903
     23          1           0       -2.855837    2.940200    2.723372
     24          1           0       -4.076978    1.737266    2.281282
     25          1           0       -3.990263    3.273214    1.406387
     26          1           0       -1.708357    2.624950    0.511155
     27          1           0       -1.795930    1.108705    1.388365
     28          1           0       -3.811759    0.444151    0.049405
     29          1           0       -3.744790    1.972882   -0.815965
     30          1           0       -2.793976    0.275259   -2.234493
     31          1           0       -1.511582    1.391460   -1.755752
     32          1           0        2.767270   -0.419914   -0.993648
     33          1           0        2.465641   -0.148736    0.709563
     34          1           0        2.847207    2.332961    0.380203
     35          1           0        3.140820    2.057596   -1.325708
     36          1           0        4.645636    1.177982    2.080839
     37          1           0        7.326362    0.654323    1.616862
     38          1           0        5.441054    1.330902   -2.053973
     39          1           0       -0.665693   -4.906161    0.274754
     40          1           0       -2.998051   -5.588965   -0.221981
     41          1           0       -4.644544   -3.935670   -1.065160
     42          1           0       -3.992616   -1.578257   -1.415029
 ---------------------------------------------------------------------

 SCF Done:  E(RB3LYP) =  -1280.88669372     A.U. after   15 cycles

 Excitation energies and oscillator strengths:

 Excited state symmetry could not be determined.
 Excited State   1:      Triplet-?Sym    2.4785 eV  500.24 nm  f=0.0000  <S**2>=2.000
      81 -> 84         0.21662
      82 -> 84         0.65235
 This state for optimization and/or second-order correction.
 Total Energy, E(TD-HF/TD-DFT) =  -1280.79561039
 Copying the excited state density for this state as the 1-particle RhoCI density.

 Excited state symmetry could not be determined.
 Excited State   2:      Triplet-?Sym    3.1672 eV  391.46 nm  f=0.0000  <S**2>=2.000
      78 -> 84         0.39176
      80 -> 84         0.53509
      80 -> 86         0.11458
      83 -> 84        -0.14774

 Excited state symmetry could not be determined.
 Excited State   3:      Singlet-?Sym    3.4193 eV  362.61 nm  f=0.0037  <S**2>=0.000
      80 -> 84        -0.11170
      83 -> 84         0.69301

 Excited state symmetry could not be determined.
 Excited State   4:      Singlet-?Sym    3.6142 eV  343.04 nm  f=0.0091  <S**2>=0.000
      78 -> 84         0.33365
      80 -> 84         0.52289
      82 -> 84        -0.27791
      83 -> 84         0.13391

 Alpha  occ. eigenvalues --  -88.91672 -19.15048 -14.38849 -14.30169 -10.29535
 Alpha  occ. eigenvalues --  -10.24169 -10.23863 -10.23401 -10.22819 -10.22430
 Alpha  occ. eigenvalues --  -10.21401 -10.21251 -10.21232 -10.20971 -10.20957
 Alpha  occ. eigenvalues --  -10.20520 -10.20514 -10.19302 -10.18896 -10.18753
 Alpha  occ. eigenvalues --  -10.17705 -10.17276  -7.97778  -5.94215  -5.93856
 Alpha  occ. eigenvalues --   -5.93407  -1.04987  -1.00873  -0.90609  -0.88087
 Alpha  occ. eigenvalues --   -0.84434  -0.81055  -0.78949  -0.77910  -0.75122
 Alpha  occ. eigenvalues --   -0.74392  -0.73277  -0.70584  -0.68710  -0.64091
 Alpha  occ. eigenvalues --   -0.63817  -0.60203  -0.59180  -0.58913  -0.57264
 Alpha  occ. eigenvalues --   -0.56696  -0.53992  -0.52887  -0.49840  -0.49074
 Alpha  occ. eigenvalues --   -0.48433  -0.47912  -0.46274  -0.45694  -0.45209
 Alpha  occ. eigenvalues --   -0.44027  -0.43881  -0.43101  -0.42703  -0.41887
 Alpha  occ. eigenvalues --   -0.41489  -0.40803  -0.40580  -0.39941  -0.39227
 Alpha  occ. eigenvalues --   -0.39029  -0.38284  -0.37531  -0.36728  -0.36146
 Alpha  occ. eigenvalues --   -0.35086  -0.34667  -0.34255  -0.33186  -0.32584
 Alpha  occ. eigenvalues --   -0.32391  -0.28960  -0.27084  -0.25719  -0.25498
 Alpha  occ. eigenvalues --   -0.25056  -0.22981  -0.22007
 Alpha virt. eigenvalues --   -0.07746  -0.01715   0.00155   0.00813   0.03299
 Alpha virt. eigenvalues --    0.05759   0.07679   0.07752   0.08668   0.09501
 Alpha virt. eigenvalues --    0.10208   0.11236   0.11933   0.12406   0.13376

 Mulliken charges:
               1
     1  C   -0.443534
     2  C   -0.249529
     3  C   -0.255697
     4  C   -0.351857
     5  C    0.172575
     6  C   -0.292698
     7  C    0.453637
     8  O   -0.479409
     9  C   -0.389495
    10  C   -0.156892
    11  N   -0.368741
    12  C    0.002377
    13  C   -0.037409
    14  N   -0.435970
    15  C    0.191340
    16  S    0.229244
    17  C   -0.129817
    18  C   -0.177232
    19  C   -0.114183
    20  C   -0.144669
    21  C   -0.171345
    22  C    0.100106
    23  H    0.143137
    24  H    0.139725
    25  H    0.141191
    26  H    0.153938
    27  H    0.133357
    28  H    0.132447
    29  H    0.135865
    30  H    0.141413
    31  H    0.187834
    32  H    0.192413
    33  H    0.187250
    34  H    0.179938
    35  H    0.180232
    36  H    0.146114
    37  H    0.132561
    38  H    0.149412
    39  H    0.149006
    40  H    0.140619
    41  H    0.138696
    42  H    0.144049
 Sum of Mulliken charges =  -0.00000

 Dipole moment (field-independent basis, Debye):
    X=             -5.2641    Y=             -2.0732    Z=              0.5489  Tot=              5.6842
 Quadrupole moment (field-independent basis, Debye-Ang):
   XX=           -166.9846   YY=           -129.6525   ZZ=           -133.5940
   XY=              2.2454   XZ=              8.9324   YZ=              0.3405

 Normal termination of Gaussian 16 at Sat Nov  5 12:12:28 2022.
