 Gaussian 16, Revision B.01,
 Gaussian 16:  ES64L-G16RevB.01 20-Dec-2017

 -------------------------------------------------------------------
 #p b3lyp/6-31g(d) 6D 10F nosymm GFInput td=(50-50,nstate=2) SCF=XQC
 -------------------------------------------------------------------

 ------------------------------
 Gaussian input prepared by ASE
 ------------------------------
 Symbolic Z-matrix:
 Charge =  0 Multiplicity = 1

                          Input orientation:
 ---------------------------------------------------------------------
 Center     Atomic      Atomic             Coordinates (Angstroms)
 Number     Number       Type             X           Y           Z
 ---------------------------------------------------------------------
      1          6           0       -6.311363   -4.417643    0.880009
      2          6           0       -5.884310   -3.283758    0.323498
      3          6           0       -5.458503   -2.066808    1.106812
      4          7           0       -4.011155   -1.816009    1.097638
      5          6           0       -3.671611   -0.718433    2.008945
      6          6           0       -2.158603   -0.508441    2.085166
      7          6           0       -1.532269   -0.179294    0.697151
      8          6           0       -1.986372    1.248944    0.286042
      9          6           0       -1.648035    2.314274    1.151763
     10          6           0       -2.015832    3.623665    0.870279
     11          6           0       -2.735965    3.944811   -0.284331
     12          6           0       -3.075543    2.908487   -1.153154
     13          8           0       -3.771386    3.065998   -2.320283
     14          6           0       -4.185978    4.373612   -2.678758
     15          6           0       -2.703716    1.584524   -0.863767
     16          6           0        0.032597   -0.209507    0.799004
     17          6           0        0.763164   -0.630044   -0.508244
     18          7           0        2.083447    0.020307   -0.631593
     19          6           0        2.109850    1.427459   -1.019161
     20          6           0        3.158961   -0.639120   -0.076512
     21          8           0        3.024547   -1.672458    0.578778
     22          6           0        4.544227   -0.095998   -0.324800
     23          6           0        4.972475    0.365337   -1.600700
     24          6           0        6.273220    0.763905   -1.803123
     25          6           0        7.219894    0.738829   -0.744193
     26          6           0        8.566487    1.157871   -0.913929
     27          6           0        9.456073    1.111356    0.135855
     28          6           0        9.040650    0.640886    1.406649
     29          6           0        7.742954    0.226968    1.603297
     30          6           0        6.798391    0.264150    0.541169
     31          6           0        5.456638   -0.160444    0.710402
     32          6           0       -0.095946   -0.403783   -1.761236
     33          6           0       -1.401503   -1.222476   -1.688158
     34          6           0       -1.964008   -1.359786   -0.247915
     35          8           0       -1.299644   -2.489092    0.368180
     36          6           0       -1.739760   -3.796610    0.051479
     37          6           0       -3.492800   -1.567495   -0.246480
     38          1           0       -6.361100   -4.539910    1.960245
     39          1           0       -6.629915   -5.266861    0.280883
     40          1           0       -5.863828   -3.205466   -0.763308
     41          1           0       -6.015826   -1.183763    0.726212
     42          1           0       -5.755904   -2.198921    2.153853
     43          1           0       -4.173909    0.224115    1.711922
     44          1           0       -4.050468   -0.979586    3.004914
     45          1           0       -1.697489   -1.425204    2.458528
     46          1           0       -1.943592    0.289292    2.803300
     47          1           0       -1.087812    2.118376    2.060222
     48          1           0       -1.739519    4.416895    1.560348
     49          1           0       -3.014119    4.972688   -0.485684
     50          1           0       -4.716799    4.270908   -3.627138
     51          1           0       -3.328996    5.046998   -2.814647
     52          1           0       -4.863974    4.802959   -1.928988
     53          1           0       -3.002851    0.846344   -1.593525
     54          1           0        0.385368    0.778111    1.108128
     55          1           0        0.334933   -0.908831    1.581064
     56          1           0        0.977718   -1.694884   -0.430481
     57          1           0        1.300134    1.968456   -0.514604
     58          1           0        3.053307    1.885441   -0.723855
     59          1           0        1.980983    1.561526   -2.100406
     60          1           0        4.268015    0.377835   -2.427086
     61          1           0        6.595208    1.100054   -2.786096
     62          1           0        8.884278    1.516736   -1.890200
     63          1           0       10.483670    1.434943   -0.006671
     64          1           0        9.753677    0.607384    2.225929
     65          1           0        7.420338   -0.136825    2.575856
     66          1           0        5.136312   -0.556027    1.670064
     67          1           0       -0.337484    0.658188   -1.872744
     68          1           0        0.473144   -0.695765   -2.652358
     69          1           0       -1.214859   -2.237969   -2.055074
     70          1           0       -2.143342   -0.794214   -2.371412
     71          1           0       -2.729288   -4.004000    0.475079
     72          1           0       -1.006720   -4.471139    0.502676
     73          1           0       -1.758691   -3.991187   -1.032171
     74          1           0       -3.985759   -0.699189   -0.716911
     75          1           0       -3.724112   -2.431694   -0.877957
 ---------------------------------------------------------------------

 SCF Done:  E(RB3LYP) =  -1577.41045795     A.U. after   15 cycles

 Excitation energies and oscillator strengths:

 Excited state symmetry could not be determined.
 Excited State   1:      Triplet-?Sym    2.6505 eV  467.77 nm  f=0.0000  <S**2>=2.000
     124 ->140        -0.12668
     130 ->136         0.13064
     131 ->135        -0.10533
     133 ->135         0.65314
     133 <-135         0.10034
 This state for optimization and/or second-order correction.
 Total Energy, E(TD-HF/TD-DFT) =  -1577.31305225
 Copying the excited state density for this state as the 1-particle RhoCI density.

 Excited state symmetry could not be determined.
 Excited State   2:      Triplet-?Sym    3.7048 eV  334.66 nm  f=0.0000  <S**2>=2.000
     130 ->135         0.27527
     131 ->135         0.39223
     131 ->136         0.11943
     131 ->141        -0.13468
     133 ->135         0.13321
     133 ->136         0.41264

 Excited state symmetry could not be determined.
 Excited State   3:      Singlet-?Sym    4.1297 eV  300.22 nm  f=0.0234  <S**2>=0.000
     127 ->135         0.15610
     130 ->135         0.15910
     130 ->136         0.11313
     131 ->135         0.27717
     133 ->135         0.58392

 Excited state symmetry could not be determined.
 Excited State   4:      Singlet-?Sym    4.2231 eV  293.58 nm  f=0.0045  <S**2>=0.000
     134 ->135         0.69209

 Alpha  occ. eigenvalues --  -19.17902 -19.13355 -19.09629 -14.35008 -14.31904
 Alpha  occ. eigenvalues --  -10.27234 -10.24708 -10.24336 -10.23981 -10.21214
 Alpha  occ. eigenvalues --  -10.21106 -10.20853 -10.20434 -10.20198 -10.20050
 Alpha  occ. eigenvalues --  -10.19931 -10.19807 -10.19771 -10.19626 -10.19488
 Alpha  occ. eigenvalues --  -10.19263 -10.19151 -10.19131 -10.19083 -10.19037
 Alpha  occ. eigenvalues --  -10.19018 -10.18963 -10.18935 -10.18882 -10.18654
 Alpha  occ. eigenvalues --  -10.18215 -10.18161 -10.18032 -10.18019 -10.17665
 Alpha  occ. eigenvalues --  -10.17030 -10.16776  -1.06458  -1.01733  -1.01561
 Alpha  occ. eigenvalues --   -0.91881  -0.91799  -0.87107  -0.85605  -0.82317
 Alpha  occ. eigenvalues --   -0.81814  -0.78417  -0.77342  -0.77143  -0.75662
 Alpha  occ. eigenvalues --   -0.75170  -0.74022  -0.73533  -0.71956  -0.71798
 Alpha  occ. eigenvalues --   -0.69878  -0.69460  -0.68572  -0.66889  -0.64120
 Alpha  occ. eigenvalues --   -0.63070  -0.62044  -0.61560  -0.60354  -0.59794
 Alpha  occ. eigenvalues --   -0.59298  -0.57682  -0.56622  -0.55139  -0.54586
 Alpha  occ. eigenvalues --   -0.53063  -0.51859  -0.51110  -0.50634  -0.49593
 Alpha  occ. eigenvalues --   -0.49178  -0.48706  -0.48518  -0.47530  -0.46990
 Alpha  occ. eigenvalues --   -0.46815  -0.46635  -0.46403  -0.45292  -0.45012
 Alpha  occ. eigenvalues --   -0.44574  -0.44456  -0.43965  -0.43220  -0.42621
 Alpha  occ. eigenvalues --   -0.42253  -0.41989  -0.41857  -0.41535  -0.41142
 Alpha  occ. eigenvalues --   -0.40781  -0.40335  -0.40068  -0.39558  -0.39163
 Alpha  occ. eigenvalues --   -0.38869  -0.38491  -0.38359  -0.37533  -0.37343
 Alpha  occ. eigenvalues --   -0.37048  -0.36754  -0.36635  -0.36239  -0.35937
 Alpha  occ. eigenvalues --   -0.35487  -0.34943  -0.34417  -0.33913  -0.33528
 Alpha  occ. eigenvalues --   -0.33156  -0.32907  -0.32654  -0.31933  -0.31749
 Alpha  occ. eigenvalues --   -0.31205  -0.30401  -0.29824  -0.28284  -0.27831
 Alpha  occ. eigenvalues --   -0.26149  -0.24614  -0.24434  -0.24024  -0.23454
 Alpha  occ. eigenvalues --   -0.22196  -0.21787  -0.21146  -0.20693
 Alpha virt. eigenvalues --   -0.04139  -0.01641  -0.00148   0.00864   0.01377
 Alpha virt. eigenvalues --    0.03101   0.05153   0.08520   0.09146   0.09723
 Alpha virt. eigenvalues --    0.09960   0.10252   0.10478   0.10987   0.11022

 Mulliken charges:
               1
     1  C   -0.331009
     2  C   -0.056222
     3  C   -0.152462
     4  N   -0.389539
     5  C   -0.127796
     6  C   -0.282142
     7  C   -0.021077
     8  C    0.159331
     9  C   -0.195882
    10  C   -0.139536
    11  C   -0.202227
    12  C    0.380008
    13  O   -0.508911
    14  C   -0.214166
    15  C   -0.255204
    16  C   -0.292252
    17  C    0.039636
    18  N   -0.438214
    19  C   -0.336175
    20  C    0.521435
    21  O   -0.519204
    22  C    0.054331
    23  C   -0.166138
    24  C   -0.199217
    25  C    0.144553
    26  C   -0.193349
    27  C   -0.132555
    28  C   -0.138702
    29  C   -0.183077
    30  C    0.130381
    31  C   -0.232556
    32  C   -0.296502
    33  C   -0.300110
    34  C    0.311305
    35  O   -0.503979
    36  C   -0.211857
    37  C   -0.173267
    38  H    0.141588
    39  H    0.141311
    40  H    0.132192
    41  H    0.114463
    42  H    0.141847
    43  H    0.117753
    44  H    0.135045
    45  H    0.170126
    46  H    0.131793
    47  H    0.132291
    48  H    0.129656
    49  H    0.129784
    50  H    0.169252
    51  H    0.150921
    52  H    0.152050
    53  H    0.134021
    54  H    0.133871
    55  H    0.172957
    56  H    0.187069
    57  H    0.169064
    58  H    0.177713
    59  H    0.155141
    60  H    0.138090
    61  H    0.130433
    62  H    0.129807
    63  H    0.130905
    64  H    0.131549
    65  H    0.135745
    66  H    0.153587
    67  H    0.148100
    68  H    0.136697
    69  H    0.146489
    70  H    0.140505
    71  H    0.162756
    72  H    0.159035
    73  H    0.120638
    74  H    0.124963
    75  H    0.143135
 Sum of Mulliken charges =  -0.00000

 Dipole moment (field-independent basis, Debye):
    X=             -1.9916    Y=              4.0452    Z=             -2.0210  Tot=              4.9411
 Quadrupole moment (field-independent basis, Debye-Ang):
   XX=           -201.0926   YY=           -207.4366   ZZ=           -206.7494
   XY=              7.5115   XZ=              1.8138   YZ=             -2.0312

 Normal termination of Gaussian 16 at Sat Nov  5 12:31:18 2022.
