 Gaussian 16, Revision B.01,
 Gaussian 16:  ES64L-G16RevB.01 20-Dec-2017

 -----------------------------
 #p b3lyp/6-31g(d) opt SCF=XQC
 -----------------------------

 ------------------------------
 Gaussian input prepared by ASE
 ------------------------------
 Symbolic Z-matrix:
 Charge =  0 Multiplicity = 1

 SCF Done:  E(RB3LYP) =  -1577.39712200     A.U. after   15 cycles
 SCF Done:  E(RB3LYP) =  -1577.40589851     A.U. after   12 cycles
 SCF Done:  E(RB3LYP) =  -1577.40673013     A.U. after   13 cycles
 SCF Done:  E(RB3LYP) =  -1577.40756456     A.U. after   12 cycles
 SCF Done:  E(RB3LYP) =  -1577.40795255     A.U. after   12 cycles
 SCF Done:  E(RB3LYP) =  -1577.40895326     A.U. after   11 cycles
 SCF Done:  E(RB3LYP) =  -1577.40945851     A.U. after   12 cycles
 SCF Done:  E(RB3LYP) =  -1577.40991490     A.U. after   11 cycles
 SCF Done:  E(RB3LYP) =  -1577.41020836     A.U. after   11 cycles
 SCF Done:  E(RB3LYP) =  -1577.41034891     A.U. after   11 cycles
 SCF Done:  E(RB3LYP) =  -1577.41044504     A.U. after   10 cycles
 SCF Done:  E(RB3LYP) =  -1577.41045342     A.U. after    9 cycles
 SCF Done:  E(RB3LYP) =  -1577.41045564     A.U. after    9 cycles
 SCF Done:  E(RB3LYP) =  -1577.41045660     A.U. after    8 cycles
 SCF Done:  E(RB3LYP) =  -1577.41045694     A.U. after    7 cycles
 SCF Done:  E(RB3LYP) =  -1577.41045701     A.U. after    7 cycles
 SCF Done:  E(RB3LYP) =  -1577.41045706     A.U. after    6 cycles
 SCF Done:  E(RB3LYP) =  -1577.41045709     A.U. after    6 cycles
 SCF Done:  E(RB3LYP) =  -1577.41045710     A.U. after    7 cycles
 SCF Done:  E(RB3LYP) =  -1577.41045711     A.U. after    5 cycles
 Optimization completed.
    -- Stationary point found.

                         Standard orientation:
 ---------------------------------------------------------------------
 Center     Atomic      Atomic             Coordinates (Angstroms)
 Number     Number       Type             X           Y           Z
 ---------------------------------------------------------------------
      1          6           0       -7.086011   -3.847537   -0.329737
      2          6           0       -6.541400   -2.645143   -0.517943
      3          6           0       -6.004892   -1.777843    0.593726
      4          7           0       -4.539704   -1.680506    0.633134
      5          6           0       -4.102412   -0.957152    1.831458
      6          6           0       -2.576947   -0.931267    1.938171
      7          6           0       -1.905153   -0.252995    0.706969
      8          6           0       -2.209423    1.269852    0.765605
      9          6           0       -1.776041    1.976898    1.910655
     10          6           0       -2.007800    3.338773    2.054178
     11          6           0       -2.679076    4.070191    1.069663
     12          6           0       -3.110756    3.391663   -0.069367
     13          8           0       -3.774093    3.969755   -1.116740
     14          6           0       -4.051715    5.358341   -1.046044
     15          6           0       -2.876535    2.013166   -0.209947
     16          6           0       -0.352412   -0.467372    0.762937
     17          6           0        0.347178   -0.533513   -0.624751
     18          7           0        1.727207   -0.010411   -0.568146
     19          6           0        1.898625    1.437828   -0.503321
     20          6           0        2.725007   -0.911728   -0.265306
     21          8           0        2.480489   -2.078375    0.041947
     22          6           0        4.160377   -0.457885   -0.361903
     23          6           0        4.647046    0.330346   -1.441715
     24          6           0        5.983344    0.641614   -1.537566
     25          6           0        6.910710    0.197482   -0.557315
     26          6           0        8.294302    0.513500   -0.616690
     27          6           0        9.162829    0.057542    0.349403
     28          6           0        8.688064   -0.739019    1.421283
     29          6           0        7.353328   -1.063324    1.506847
     30          6           0        6.429311   -0.606961    0.527244
     31          6           0        5.049984   -0.928553    0.584332
     32          6           0       -0.470745    0.152236   -1.729288
     33          6           0       -1.852393   -0.516043   -1.885915
     34          6           0       -2.442085   -1.035266   -0.547171
     35          8           0       -1.901039   -2.359374   -0.322911
     36          6           0       -2.466127   -3.455049   -1.018451
     37          6           0       -3.983904   -1.081418   -0.579006
     38          1           0       -7.159957   -4.291918    0.660916
     39          1           0       -7.481109   -4.434432   -1.154994
     40          1           0       -6.500883   -2.237448   -1.527814
     41          1           0       -6.466740   -0.769982    0.515329
     42          1           0       -6.325853   -2.196859    1.554769
     43          1           0       -4.504509    0.075757    1.849786
     44          1           0       -4.516746   -1.474431    2.705779
     45          1           0       -2.214110   -1.959301    2.001228
     46          1           0       -2.291361   -0.419620    2.862822
     47          1           0       -1.248547    1.455758    2.702921
     48          1           0       -1.661357    3.848783    2.949512
     49          1           0       -2.850716    5.132167    1.200768
     50          1           0       -4.579374    5.606438   -1.968956
     51          1           0       -3.130188    5.952802   -0.984911
     52          1           0       -4.691808    5.599805   -0.186888
     53          1           0       -3.239729    1.569742   -1.125592
     54          1           0        0.093860    0.336638    1.354380
     55          1           0       -0.130423   -1.400274    1.284945
     56          1           0        0.453243   -1.586014   -0.883511
     57          1           0        1.141426    1.873635    0.159715
     58          1           0        2.879759    1.686819   -0.100276
     59          1           0        1.796067    1.911297   -1.487689
     60          1           0        3.956772    0.666872   -2.209573
     61          1           0        6.348454    1.231433   -2.375251
     62          1           0        8.657431    1.123153   -1.440911
     63          1           0       10.219188    0.306319    0.292907
     64          1           0        9.384840   -1.094064    2.175733
     65          1           0        6.984948   -1.676016    2.326115
     66          1           0        4.680848   -1.567561    1.381486
     67          1           0       -0.603562    1.215106   -1.502961
     68          1           0        0.076337    0.095113   -2.678316
     69          1           0       -1.764125   -1.381773   -2.551804
     70          1           0       -2.539887    0.173271   -2.388676
     71          1           0       -3.476170   -3.684468   -0.659575
     72          1           0       -1.809395   -4.304790   -0.812155
     73          1           0       -2.492156   -3.302571   -2.108676
     74          1           0       -4.382173   -0.066104   -0.748682
     75          1           0       -4.293338   -1.681098   -1.441412
 ---------------------------------------------------------------------

 The electronic state is 1-A.
 Alpha  occ. eigenvalues --  -19.17902 -19.13355 -19.09629 -14.35008 -14.31904
 Alpha  occ. eigenvalues --  -10.27234 -10.24708 -10.24336 -10.23981 -10.21214
 Alpha  occ. eigenvalues --  -10.21106 -10.20853 -10.20434 -10.20198 -10.20050
 Alpha  occ. eigenvalues --  -10.19931 -10.19807 -10.19771 -10.19626 -10.19488
 Alpha  occ. eigenvalues --  -10.19263 -10.19151 -10.19131 -10.19083 -10.19037
 Alpha  occ. eigenvalues --  -10.19018 -10.18963 -10.18935 -10.18882 -10.18654
 Alpha  occ. eigenvalues --  -10.18215 -10.18160 -10.18032 -10.18019 -10.17665
 Alpha  occ. eigenvalues --  -10.17030 -10.16776  -1.06458  -1.01733  -1.01561
 Alpha  occ. eigenvalues --   -0.91881  -0.91799  -0.87107  -0.85605  -0.82317
 Alpha  occ. eigenvalues --   -0.81814  -0.78417  -0.77342  -0.77143  -0.75662
 Alpha  occ. eigenvalues --   -0.75170  -0.74022  -0.73533  -0.71956  -0.71798
 Alpha  occ. eigenvalues --   -0.69878  -0.69459  -0.68572  -0.66889  -0.64120
 Alpha  occ. eigenvalues --   -0.63070  -0.62044  -0.61561  -0.60354  -0.59794
 Alpha  occ. eigenvalues --   -0.59298  -0.57682  -0.56622  -0.55139  -0.54586
 Alpha  occ. eigenvalues --   -0.53063  -0.51859  -0.51110  -0.50634  -0.49593
 Alpha  occ. eigenvalues --   -0.49178  -0.48706  -0.48518  -0.47530  -0.46990
 Alpha  occ. eigenvalues --   -0.46815  -0.46635  -0.46403  -0.45292  -0.45012
 Alpha  occ. eigenvalues --   -0.44574  -0.44456  -0.43965  -0.43220  -0.42621
 Alpha  occ. eigenvalues --   -0.42253  -0.41989  -0.41857  -0.41535  -0.41142
 Alpha  occ. eigenvalues --   -0.40781  -0.40335  -0.40068  -0.39558  -0.39163
 Alpha  occ. eigenvalues --   -0.38869  -0.38491  -0.38359  -0.37533  -0.37343
 Alpha  occ. eigenvalues --   -0.37048  -0.36754  -0.36635  -0.36239  -0.35937
 Alpha  occ. eigenvalues --   -0.35487  -0.34943  -0.34417  -0.33913  -0.33528
 Alpha  occ. eigenvalues --   -0.33156  -0.32907  -0.32654  -0.31933  -0.31749
 Alpha  occ. eigenvalues --   -0.31205  -0.30401  -0.29824  -0.28284  -0.27831
 Alpha  occ. eigenvalues --   -0.26149  -0.24614  -0.24434  -0.24024  -0.23454
 Alpha  occ. eigenvalues --   -0.22196  -0.21787  -0.21146  -0.20693
 Alpha virt. eigenvalues --   -0.04139  -0.01641  -0.00148   0.00864   0.01377
 Alpha virt. eigenvalues --    0.03101   0.05153   0.08520   0.09146   0.09723
 Alpha virt. eigenvalues --    0.09960   0.10252   0.10478   0.10987   0.11022

 Mulliken charges:
               1
     1  C   -0.331007
     2  C   -0.056232
     3  C   -0.152441
     4  N   -0.389534
     5  C   -0.127807
     6  C   -0.282126
     7  C   -0.021107
     8  C    0.159337
     9  C   -0.195873
    10  C   -0.139535
    11  C   -0.202228
    12  C    0.380012
    13  O   -0.508909
    14  C   -0.214164
    15  C   -0.255211
    16  C   -0.292272
    17  C    0.039639
    18  N   -0.438204
    19  C   -0.336188
    20  C    0.521426
    21  O   -0.519207
    22  C    0.054320
    23  C   -0.166135
    24  C   -0.199212
    25  C    0.144548
    26  C   -0.193346
    27  C   -0.132560
    28  C   -0.138701
    29  C   -0.183071
    30  C    0.130373
    31  C   -0.232545
    32  C   -0.296508
    33  C   -0.300117
    34  C    0.311350
    35  O   -0.503974
    36  C   -0.211878
    37  C   -0.173300
    38  H    0.141588
    39  H    0.141310
    40  H    0.132193
    41  H    0.114460
    42  H    0.141847
    43  H    0.117754
    44  H    0.135045
    45  H    0.170131
    46  H    0.131792
    47  H    0.132291
    48  H    0.129655
    49  H    0.129783
    50  H    0.169252
    51  H    0.150921
    52  H    0.152048
    53  H    0.134019
    54  H    0.133874
    55  H    0.172959
    56  H    0.187077
    57  H    0.169068
    58  H    0.177715
    59  H    0.155143
    60  H    0.138093
    61  H    0.130433
    62  H    0.129807
    63  H    0.130906
    64  H    0.131549
    65  H    0.135746
    66  H    0.153586
    67  H    0.148104
    68  H    0.136697
    69  H    0.146491
    70  H    0.140503
    71  H    0.162758
    72  H    0.159037
    73  H    0.120645
    74  H    0.124966
    75  H    0.143138
 Sum of Mulliken charges =  -0.00000

 Dipole moment (field-independent basis, Debye):
    X=             -1.5539    Y=              4.6473    Z=             -0.6344  Tot=              4.9411
 Quadrupole moment (field-independent basis, Debye-Ang):
   XX=           -198.5950   YY=           -207.5921   ZZ=           -208.2537
   XY=              4.2856   XZ=              3.8040   YZ=             -2.0243

 Normal termination of Gaussian 16 at Fri Nov  4 21:28:33 2022.
