 Gaussian 16, Revision B.01,
 Gaussian 16:  ES64L-G16RevB.01 20-Dec-2017

 -------------------------------------------------------------------
 #p b3lyp/6-31g(d) 6D 10F nosymm GFInput td=(50-50,nstate=2) SCF=XQC
 -------------------------------------------------------------------

 ------------------------------
 Gaussian input prepared by ASE
 ------------------------------
 Symbolic Z-matrix:
 Charge =  0 Multiplicity = 1

                          Input orientation:
 ---------------------------------------------------------------------
 Center     Atomic      Atomic             Coordinates (Angstroms)
 Number     Number       Type             X           Y           Z
 ---------------------------------------------------------------------
      1          6           0       -2.386205   -2.005630    3.300803
      2          6           0       -2.542598   -1.405083    1.924405
      3          6           0       -3.525284   -1.925068    1.038884
      4          6           0       -3.741558   -1.405713   -0.219212
      5          6           0       -4.804198   -1.960451   -1.131775
      6          6           0       -2.937151   -0.302832   -0.654922
      7          7           0       -3.191230    0.211667   -1.891326
      8          6           0       -2.494142    1.253767   -2.309550
      9          6           0       -2.815893    1.812176   -3.673707
     10          6           0       -1.470679    1.841097   -1.521236
     11          6           0       -1.157488    1.317118   -0.285641
     12          6           0       -0.035557    1.988111    0.467379
     13          8           0        0.029663    3.208266    0.580760
     14          7           0        0.931375    1.174295    0.993969
     15          6           0        2.242114    1.655075    1.452506
     16          6           0        2.825181    0.227085    1.193908
     17          6           0        4.067849    0.095141    0.354701
     18          6           0        5.166881   -0.649846    0.794039
     19          6           0        6.298191   -0.750752   -0.013517
     20          6           0        6.294132   -0.098587   -1.245906
     21          7           0        5.257335    0.621955   -1.693198
     22          6           0        4.183092    0.707416   -0.903590
     23          6           0        1.448146   -0.135006    0.545814
     24          6           0       -1.920880    0.214636    0.210894
     25          6           0       -1.757798   -0.352325    1.504097
     26          1           0       -3.314425   -1.919692    3.879887
     27          1           0       -2.144196   -3.074748    3.244860
     28          1           0       -1.591904   -1.509515    3.867005
     29          1           0       -4.137443   -2.759888    1.375820
     30          1           0       -5.544461   -1.194330   -1.386935
     31          1           0       -4.374204   -2.297639   -2.081149
     32          1           0       -5.320582   -2.803072   -0.661336
     33          1           0       -1.940122    1.778370   -4.333960
     34          1           0       -3.126969    2.862251   -3.606533
     35          1           0       -3.622738    1.233756   -4.128460
     36          1           0       -0.924306    2.704154   -1.889591
     37          1           0        2.647737    2.445174    0.810743
     38          1           0        2.255649    2.001426    2.490744
     39          1           0        2.963995   -0.314766    2.133751
     40          1           0        5.134814   -1.145963    1.761784
     41          1           0        7.165001   -1.322520    0.304595
     42          1           0        7.158562   -0.154183   -1.905275
     43          1           0        3.360075    1.303538   -1.298087
     44          1           0        1.478033   -0.241126   -0.544823
     45          1           0        0.927878   -0.996389    0.975002
     46          1           0       -1.013688    0.068656    2.173375
 ---------------------------------------------------------------------

 SCF Done:  E(RB3LYP) =  -1052.36962420     A.U. after   16 cycles

 Excitation energies and oscillator strengths:

 Excited state symmetry could not be determined.
 Excited State   1:      Triplet-?Sym    2.7240 eV  455.16 nm  f=0.0000  <S**2>=2.000
      87 -> 92        -0.15972
      88 -> 89         0.64666
      88 -> 93         0.14104
 This state for optimization and/or second-order correction.
 Total Energy, E(TD-HF/TD-DFT) =  -1052.26951915
 Copying the excited state density for this state as the 1-particle RhoCI density.

 Excited state symmetry could not be determined.
 Excited State   2:      Triplet-?Sym    3.5578 eV  348.49 nm  f=0.0000  <S**2>=2.000
      85 -> 89        -0.11777
      87 -> 89         0.65951

 Excited state symmetry could not be determined.
 Excited State   3:      Singlet-?Sym    3.9553 eV  313.46 nm  f=0.0763  <S**2>=0.000
      85 -> 89        -0.14098
      86 -> 89         0.19495
      88 -> 89         0.64408

 Excited state symmetry could not be determined.
 Excited State   4:      Singlet-?Sym    4.1107 eV  301.61 nm  f=0.0182  <S**2>=0.000
      85 -> 89        -0.33990
      86 -> 89         0.48001
      87 -> 89         0.27376
      88 -> 89        -0.24245

 Alpha  occ. eigenvalues --  -19.11725 -14.36474 -14.33655 -14.32326 -10.28948
 Alpha  occ. eigenvalues --  -10.23892 -10.23215 -10.22990 -10.22949 -10.22825
 Alpha  occ. eigenvalues --  -10.22175 -10.21999 -10.21647 -10.21542 -10.21400
 Alpha  occ. eigenvalues --  -10.20721 -10.20590 -10.20177 -10.19702 -10.19643
 Alpha  occ. eigenvalues --  -10.18867 -10.18825 -10.18815 -10.18000 -10.17484
 Alpha  occ. eigenvalues --   -1.03676  -0.95951  -0.94591  -0.94131  -0.85355
 Alpha  occ. eigenvalues --   -0.82862  -0.81587  -0.78850  -0.78254  -0.76108
 Alpha  occ. eigenvalues --   -0.75046  -0.72334  -0.70670  -0.68838  -0.66985
 Alpha  occ. eigenvalues --   -0.66417  -0.63995  -0.63335  -0.61399  -0.58912
 Alpha  occ. eigenvalues --   -0.57574  -0.55197  -0.53121  -0.53005  -0.51088
 Alpha  occ. eigenvalues --   -0.50743  -0.49495  -0.48098  -0.46926  -0.46268
 Alpha  occ. eigenvalues --   -0.45337  -0.44226  -0.43414  -0.43073  -0.42315
 Alpha  occ. eigenvalues --   -0.42139  -0.41809  -0.41186  -0.40944  -0.40904
 Alpha  occ. eigenvalues --   -0.40687  -0.40268  -0.39436  -0.39307  -0.38911
 Alpha  occ. eigenvalues --   -0.37980  -0.37807  -0.37234  -0.36271  -0.35810
 Alpha  occ. eigenvalues --   -0.35591  -0.34685  -0.33977  -0.32005  -0.29601
 Alpha  occ. eigenvalues --   -0.29081  -0.26345  -0.25985  -0.25808  -0.25057
 Alpha  occ. eigenvalues --   -0.24471  -0.24005  -0.22130
 Alpha virt. eigenvalues --   -0.05549  -0.03031  -0.02311  -0.01564   0.00499
 Alpha virt. eigenvalues --    0.04243   0.07024   0.08176   0.09158   0.10012
 Alpha virt. eigenvalues --    0.10850   0.11680   0.11763   0.12091   0.12551

 Mulliken charges:
               1
     1  C   -0.533010
     2  C    0.195248
     3  C   -0.254293
     4  C    0.168627
     5  C   -0.508240
     6  C    0.164648
     7  N   -0.555468
     8  C    0.320260
     9  C   -0.524383
    10  C   -0.217052
    11  C    0.057698
    12  C    0.478380
    13  O   -0.498835
    14  N   -0.438076
    15  C   -0.101912
    16  C   -0.259068
    17  C    0.180854
    18  C   -0.159283
    19  C   -0.136017
    20  C    0.038025
    21  N   -0.407776
    22  C   -0.020207
    23  C   -0.117108
    24  C    0.143104
    25  C   -0.288092
    26  H    0.166101
    27  H    0.160977
    28  H    0.155400
    29  H    0.118713
    30  H    0.171275
    31  H    0.168998
    32  H    0.141707
    33  H    0.161617
    34  H    0.166234
    35  H    0.175026
    36  H    0.152750
    37  H    0.171709
    38  H    0.166213
    39  H    0.148490
    40  H    0.141185
    41  H    0.141270
    42  H    0.145865
    43  H    0.144101
    44  H    0.164905
    45  H    0.168131
    46  H    0.141310
 Sum of Mulliken charges =  -0.00000

 Dipole moment (field-independent basis, Debye):
    X=              1.9781    Y=             -3.8851    Z=              2.2184  Tot=              4.8917
 Quadrupole moment (field-independent basis, Debye-Ang):
   XX=           -135.8277   YY=           -153.4759   ZZ=           -139.8471
   XY=             -3.8456   XZ=              8.4662   YZ=             -7.5765

 Normal termination of Gaussian 16 at Sat Nov  5 12:16:29 2022.
