 Gaussian 16, Revision B.01,
 Gaussian 16:  ES64L-G16RevB.01 20-Dec-2017

 -----------------------------
 #p b3lyp/6-31g(d) opt SCF=XQC
 -----------------------------

 ------------------------------
 Gaussian input prepared by ASE
 ------------------------------
 Symbolic Z-matrix:
 Charge =  0 Multiplicity = 1

 SCF Done:  E(RB3LYP) =  -1052.36186339     A.U. after   15 cycles
 SCF Done:  E(RB3LYP) =  -1052.36793199     A.U. after   13 cycles
 SCF Done:  E(RB3LYP) =  -1052.36820502     A.U. after   13 cycles
 SCF Done:  E(RB3LYP) =  -1052.36869158     A.U. after   12 cycles
 SCF Done:  E(RB3LYP) =  -1052.36895322     A.U. after   12 cycles
 SCF Done:  E(RB3LYP) =  -1052.36925442     A.U. after   11 cycles
 SCF Done:  E(RB3LYP) =  -1052.36938185     A.U. after   11 cycles
 SCF Done:  E(RB3LYP) =  -1052.36945945     A.U. after   12 cycles
 SCF Done:  E(RB3LYP) =  -1052.36955085     A.U. after   11 cycles
 SCF Done:  E(RB3LYP) =  -1052.36959099     A.U. after   11 cycles
 SCF Done:  E(RB3LYP) =  -1052.36960282     A.U. after   11 cycles
 SCF Done:  E(RB3LYP) =  -1052.36962329     A.U. after   11 cycles
 SCF Done:  E(RB3LYP) =  -1052.36962514     A.U. after    9 cycles
 SCF Done:  E(RB3LYP) =  -1052.36962531     A.U. after    8 cycles
 SCF Done:  E(RB3LYP) =  -1052.36962539     A.U. after    8 cycles
 Optimization completed.
    -- Stationary point found.

                         Standard orientation:
 ---------------------------------------------------------------------
 Center     Atomic      Atomic             Coordinates (Angstroms)
 Number     Number       Type             X           Y           Z
 ---------------------------------------------------------------------
      1          6           0       -2.587092   -3.946250    0.315986
      2          6           0       -2.736369   -2.468380    0.045425
      3          6           0       -3.791817   -2.010360   -0.789111
      4          6           0       -4.003902   -0.674595   -1.053797
      5          6           0       -5.142991   -0.212142   -1.924616
      6          6           0       -3.119195    0.290284   -0.471078
      7          7           0       -3.368596    1.606268   -0.723952
      8          6           0       -2.595566    2.524764   -0.171137
      9          6           0       -2.912796    3.972420   -0.453846
     10          6           0       -1.496838    2.184055    0.659879
     11          6           0       -1.189479    0.862052    0.898990
     12          6           0        0.013556    0.595546    1.769439
     13          8           0        0.192025    1.190636    2.827693
     14          7           0        0.921074   -0.320505    1.309205
     15          6           0        2.284772   -0.456034    1.839679
     16          6           0        2.727885   -1.063476    0.468307
     17          6           0        3.923922   -0.474095   -0.230282
     18          6           0        4.966095   -1.282250   -0.695746
     19          6           0        6.055173   -0.698913   -1.340584
     20          6           0        6.067138    0.686008   -1.501735
     21          7           0        5.084440    1.485501   -1.066633
     22          6           0        4.050156    0.906946   -0.449939
     23          6           0        1.302313   -0.703063   -0.065739
     24          6           0       -2.031225   -0.153666    0.347119
     25          6           0       -1.875148   -1.544105    0.597589
     26          1           0       -3.483265   -4.354247    0.800472
     27          1           0       -2.444202   -4.510167   -0.614762
     28          1           0       -1.732334   -4.150289    0.968202
     29          1           0       -4.464498   -2.746522   -1.225864
     30          1           0       -5.819797    0.448079   -1.371370
     31          1           0       -4.778102    0.370218   -2.777619
     32          1           0       -5.716428   -1.064926   -2.301314
     33          1           0       -2.066949    4.477994   -0.936537
     34          1           0       -3.125753    4.517859    0.474099
     35          1           0       -3.783582    4.038314   -1.109405
     36          1           0       -0.888187    2.963564    1.108192
     37          1           0        2.737323    0.510776    2.086905
     38          1           0        2.365248   -1.116420    2.708871
     39          1           0        2.849851   -2.147851    0.542018
     40          1           0        4.923046   -2.359932   -0.552781
     41          1           0        6.877577   -1.303959   -1.710779
     42          1           0        6.899769    1.178784   -2.000729
     43          1           0        3.270890    1.587757   -0.107028
     44          1           0        1.284832    0.135405   -0.771650
     45          1           0        0.721897   -1.532363   -0.480759
     46          1           0       -1.073537   -1.874487    1.251137
 ---------------------------------------------------------------------

 The electronic state is 1-A.
 Alpha  occ. eigenvalues --  -19.11725 -14.36474 -14.33655 -14.32326 -10.28948
 Alpha  occ. eigenvalues --  -10.23892 -10.23215 -10.22990 -10.22949 -10.22825
 Alpha  occ. eigenvalues --  -10.22175 -10.21999 -10.21647 -10.21542 -10.21400
 Alpha  occ. eigenvalues --  -10.20721 -10.20590 -10.20177 -10.19702 -10.19643
 Alpha  occ. eigenvalues --  -10.18867 -10.18825 -10.18815 -10.18000 -10.17484
 Alpha  occ. eigenvalues --   -1.03676  -0.95951  -0.94591  -0.94131  -0.85355
 Alpha  occ. eigenvalues --   -0.82862  -0.81587  -0.78850  -0.78254  -0.76108
 Alpha  occ. eigenvalues --   -0.75046  -0.72334  -0.70670  -0.68838  -0.66985
 Alpha  occ. eigenvalues --   -0.66417  -0.63995  -0.63335  -0.61399  -0.58912
 Alpha  occ. eigenvalues --   -0.57574  -0.55197  -0.53121  -0.53005  -0.51088
 Alpha  occ. eigenvalues --   -0.50743  -0.49495  -0.48098  -0.46926  -0.46268
 Alpha  occ. eigenvalues --   -0.45337  -0.44226  -0.43414  -0.43073  -0.42315
 Alpha  occ. eigenvalues --   -0.42139  -0.41809  -0.41186  -0.40944  -0.40904
 Alpha  occ. eigenvalues --   -0.40687  -0.40268  -0.39436  -0.39307  -0.38911
 Alpha  occ. eigenvalues --   -0.37980  -0.37807  -0.37234  -0.36271  -0.35810
 Alpha  occ. eigenvalues --   -0.35591  -0.34685  -0.33977  -0.32005  -0.29601
 Alpha  occ. eigenvalues --   -0.29081  -0.26345  -0.25985  -0.25808  -0.25057
 Alpha  occ. eigenvalues --   -0.24472  -0.24005  -0.22130
 Alpha virt. eigenvalues --   -0.05549  -0.03031  -0.02311  -0.01564   0.00499
 Alpha virt. eigenvalues --    0.04243   0.07024   0.08176   0.09158   0.10012
 Alpha virt. eigenvalues --    0.10850   0.11680   0.11763   0.12091   0.12551

 Mulliken charges:
               1
     1  C   -0.533009
     2  C    0.195247
     3  C   -0.254298
     4  C    0.168633
     5  C   -0.508244
     6  C    0.164647
     7  N   -0.555454
     8  C    0.320242
     9  C   -0.524379
    10  C   -0.217043
    11  C    0.057675
    12  C    0.478366
    13  O   -0.498830
    14  N   -0.438075
    15  C   -0.101905
    16  C   -0.259048
    17  C    0.180820
    18  C   -0.159279
    19  C   -0.136022
    20  C    0.038031
    21  N   -0.407778
    22  C   -0.020193
    23  C   -0.117096
    24  C    0.143123
    25  C   -0.288087
    26  H    0.166101
    27  H    0.160977
    28  H    0.155400
    29  H    0.118713
    30  H    0.171275
    31  H    0.168998
    32  H    0.141707
    33  H    0.161617
    34  H    0.166233
    35  H    0.175025
    36  H    0.152750
    37  H    0.171708
    38  H    0.166212
    39  H    0.148489
    40  H    0.141185
    41  H    0.141270
    42  H    0.145865
    43  H    0.144099
    44  H    0.164903
    45  H    0.168130
    46  H    0.141301
 Sum of Mulliken charges =  -0.00000

 Dipole moment (field-independent basis, Debye):
    X=              1.6965    Y=             -4.0704    Z=             -2.1171  Tot=              4.8917
 Quadrupole moment (field-independent basis, Debye-Ang):
   XX=           -136.6219   YY=           -135.5541   ZZ=           -155.7538
   XY=             -9.1309   XZ=             -0.2584   YZ=             -1.9637

 Normal termination of Gaussian 16 at Fri Nov  4 20:49:47 2022.
