 Gaussian 16, Revision B.01,
 Gaussian 16:  ES64L-G16RevB.01 20-Dec-2017

 -----------------------------
 #p b3lyp/6-31g(d) opt SCF=XQC
 -----------------------------

 ------------------------------
 Gaussian input prepared by ASE
 ------------------------------
 Symbolic Z-matrix:
 Charge =  0 Multiplicity = 1

 SCF Done:  E(RB3LYP) =  -1838.06126220     A.U. after   16 cycles
 SCF Done:  E(RB3LYP) =  -1838.06938375     A.U. after   14 cycles
 SCF Done:  E(RB3LYP) =  -1838.07156082     A.U. after   12 cycles
 SCF Done:  E(RB3LYP) =  -1838.07258411     A.U. after   12 cycles
 SCF Done:  E(RB3LYP) =  -1838.07366954     A.U. after   12 cycles
 SCF Done:  E(RB3LYP) =  -1838.07502433     A.U. after   14 cycles
 SCF Done:  E(RB3LYP) =  -1838.07474275     A.U. after   15 cycles
 SCF Done:  E(RB3LYP) =  -1838.07648160     A.U. after   12 cycles
 SCF Done:  E(RB3LYP) =  -1838.07710496     A.U. after   13 cycles
 SCF Done:  E(RB3LYP) =  -1838.07795554     A.U. after   12 cycles
 SCF Done:  E(RB3LYP) =  -1838.07945430     A.U. after   11 cycles
 SCF Done:  E(RB3LYP) =  -1838.07946465     A.U. after   10 cycles
 SCF Done:  E(RB3LYP) =  -1838.07946853     A.U. after   10 cycles
 SCF Done:  E(RB3LYP) =  -1838.07947168     A.U. after   10 cycles
 SCF Done:  E(RB3LYP) =  -1838.07947267     A.U. after    9 cycles
 SCF Done:  E(RB3LYP) =  -1838.07947283     A.U. after    8 cycles
 SCF Done:  E(RB3LYP) =  -1838.07947291     A.U. after    7 cycles
 SCF Done:  E(RB3LYP) =  -1838.07947304     A.U. after    8 cycles
 SCF Done:  E(RB3LYP) =  -1838.07947307     A.U. after    6 cycles
 SCF Done:  E(RB3LYP) =  -1838.07947307     A.U. after    6 cycles
 Optimization completed.
    -- Stationary point found.

                         Standard orientation:
 ---------------------------------------------------------------------
 Center     Atomic      Atomic             Coordinates (Angstroms)
 Number     Number       Type             X           Y           Z
 ---------------------------------------------------------------------
      1          6           0       -7.576829    3.935776   -1.161537
      2          6           0       -7.751225    2.425218   -0.973813
      3          6           0       -6.571743    1.618418   -1.538577
      4          6           0       -6.685822    0.081354   -1.427113
      5          7           0       -5.914759   -0.506250   -0.319959
      6          6           0       -6.347026   -0.100191    1.028050
      7          6           0       -7.728315   -0.590798    1.507548
      8          6           0       -8.034916   -0.213145    2.968095
      9          6           0       -8.208572    1.289835    3.220920
     10          6           0       -5.718049   -1.951994   -0.480466
     11          6           0       -4.547594   -2.476273    0.359233
     12          7           0       -3.377079   -1.645992    0.137263
     13          6           0       -2.113880   -2.155018    0.099461
     14          8           0       -1.875237   -3.346171    0.297559
     15          6           0       -1.009755   -1.178710   -0.210994
     16          6           0       -1.138194    0.214180   -0.112725
     17          6           0       -0.056262    1.039275   -0.410284
     18          6           0        1.159630    0.492781   -0.829007
     19          6           0        1.298172   -0.903140   -0.919766
     20          6           0        0.217613   -1.724680   -0.594363
     21          7           0        2.499703   -1.468380   -1.364898
     22          6           0        3.782175   -0.941558   -1.366530
     23          8           0        4.714101   -1.667833   -1.697510
     24          6           0        3.908810    0.478697   -0.939985
     25          6           0        4.969569    1.097440   -0.353484
     26          6           0        6.329762    0.725579    0.028706
     27          6           0        7.026077   -0.451168   -0.334393
     28          6           0        8.316874   -0.678924    0.111346
     29          6           0        8.971695    0.252742    0.933463
     30          8           0       10.236390   -0.074956    1.312068
     31          6           0       10.951899    0.831555    2.138504
     32          6           0        8.309710    1.432465    1.297792
     33          6           0        7.014291    1.653197    0.840783
     34         16           0        2.504778    1.532353   -1.330565
     35          1           0       -6.680764    4.299241   -0.643464
     36          1           0       -8.436509    4.489647   -0.767881
     37          1           0       -7.471259    4.193693   -2.222592
     38          1           0       -7.891515    2.206970    0.092310
     39          1           0       -8.675024    2.100017   -1.472763
     40          1           0       -5.631329    1.932734   -1.065917
     41          1           0       -6.471217    1.877100   -2.601486
     42          1           0       -7.752714   -0.208897   -1.397493
     43          1           0       -6.280328   -0.363854   -2.342139
     44          1           0       -5.586400   -0.446727    1.739109
     45          1           0       -6.306878    0.992697    1.063863
     46          1           0       -7.778193   -1.683283    1.416163
     47          1           0       -8.518025   -0.191417    0.856860
     48          1           0       -7.236682   -0.602622    3.616397
     49          1           0       -8.952367   -0.731626    3.275929
     50          1           0       -9.003314    1.706883    2.589657
     51          1           0       -8.480696    1.481788    4.264991
     52          1           0       -7.290905    1.852532    3.015390
     53          1           0       -6.617694   -2.549846   -0.251421
     54          1           0       -5.484227   -2.128377   -1.536536
     55          1           0       -4.305520   -3.502576    0.069352
     56          1           0       -4.805317   -2.502626    1.427331
     57          1           0       -3.577805   -0.703654   -0.174107
     58          1           0       -2.061601    0.667371    0.234892
     59          1           0       -0.149899    2.117256   -0.315566
     60          1           0        0.306830   -2.806330   -0.635060
     61          1           0        2.492360   -2.457370   -1.586746
     62          1           0        4.748387    2.126633   -0.070959
     63          1           0        6.540801   -1.171723   -0.978262
     64          1           0        8.851391   -1.580375   -0.172093
     65          1           0       10.444041    0.986884    3.099208
     66          1           0       11.924939    0.369993    2.314868
     67          1           0       11.094117    1.800993    1.643529
     68          1           0        8.788587    2.176031    1.924347
     69          1           0        6.512640    2.573741    1.130362
 ---------------------------------------------------------------------

 The electronic state is 1-A.
 Alpha  occ. eigenvalues --  -88.89712 -19.18454 -19.12469 -19.10256 -14.37890
 Alpha  occ. eigenvalues --  -14.35032 -14.33535 -10.30431 -10.28083 -10.25304
 Alpha  occ. eigenvalues --  -10.24729 -10.24560 -10.23069 -10.22941 -10.21798
 Alpha  occ. eigenvalues --  -10.21742 -10.21398 -10.21333 -10.21223 -10.20480
 Alpha  occ. eigenvalues --  -10.20373 -10.20127 -10.19782 -10.19774 -10.19718
 Alpha  occ. eigenvalues --  -10.19087 -10.18864 -10.18712 -10.18658 -10.18519
 Alpha  occ. eigenvalues --  -10.18301 -10.18225 -10.18012 -10.17909  -7.95754
 Alpha  occ. eigenvalues --   -5.92254  -5.91885  -5.91271  -1.07040  -1.04565
 Alpha  occ. eigenvalues --   -1.02193  -0.95014  -0.93309  -0.90605  -0.86276
 Alpha  occ. eigenvalues --   -0.85736  -0.82947  -0.79828  -0.79408  -0.78617
 Alpha  occ. eigenvalues --   -0.76410  -0.75509  -0.74908  -0.74474  -0.73126
 Alpha  occ. eigenvalues --   -0.71824  -0.69996  -0.68548  -0.66055  -0.65437
 Alpha  occ. eigenvalues --   -0.63936  -0.63222  -0.61902  -0.61208  -0.59965
 Alpha  occ. eigenvalues --   -0.58899  -0.58876  -0.57858  -0.56037  -0.55518
 Alpha  occ. eigenvalues --   -0.53958  -0.53058  -0.50731  -0.50647  -0.50039
 Alpha  occ. eigenvalues --   -0.48832  -0.48335  -0.47323  -0.46921  -0.46825
 Alpha  occ. eigenvalues --   -0.46180  -0.45357  -0.45193  -0.44909  -0.44513
 Alpha  occ. eigenvalues --   -0.44188  -0.43765  -0.43473  -0.43341  -0.42928
 Alpha  occ. eigenvalues --   -0.42391  -0.41956  -0.41449  -0.40723  -0.40498
 Alpha  occ. eigenvalues --   -0.40396  -0.40008  -0.39059  -0.38752  -0.38505
 Alpha  occ. eigenvalues --   -0.38206  -0.37792  -0.37461  -0.37333  -0.36926
 Alpha  occ. eigenvalues --   -0.36331  -0.35914  -0.35567  -0.35326  -0.34761
 Alpha  occ. eigenvalues --   -0.34064  -0.33828  -0.33544  -0.33398  -0.33035
 Alpha  occ. eigenvalues --   -0.32834  -0.32594  -0.32334  -0.31241  -0.30228
 Alpha  occ. eigenvalues --   -0.27639  -0.26026  -0.25153  -0.24734  -0.24646
 Alpha  occ. eigenvalues --   -0.23677  -0.22490  -0.21873  -0.19792
 Alpha virt. eigenvalues --   -0.05500  -0.03615  -0.01392   0.00050   0.01759
 Alpha virt. eigenvalues --    0.04021   0.06230   0.06696   0.07022   0.08208
 Alpha virt. eigenvalues --    0.08475   0.08953   0.09202   0.09651   0.10129

 Mulliken charges:
               1
     1  C   -0.442328
     2  C   -0.263818
     3  C   -0.265635
     4  C   -0.117320
     5  N   -0.420037
     6  C   -0.144991
     7  C   -0.272141
     8  C   -0.252992
     9  C   -0.448028
    10  C   -0.141031
    11  C   -0.130870
    12  N   -0.628337
    13  C    0.569586
    14  O   -0.534019
    15  C    0.064296
    16  C   -0.178411
    17  C   -0.180606
    18  C   -0.117603
    19  C    0.377604
    20  C   -0.215875
    21  N   -0.723880
    22  C    0.601966
    23  O   -0.499265
    24  C   -0.191463
    25  C   -0.208219
    26  C    0.173069
    27  C   -0.191650
    28  C   -0.180777
    29  C    0.383300
    30  O   -0.499910
    31  C   -0.217438
    32  C   -0.197125
    33  C   -0.201437
    34  S    0.177740
    35  H    0.142530
    36  H    0.144753
    37  H    0.143931
    38  H    0.143210
    39  H    0.134112
    40  H    0.139807
    41  H    0.136674
    42  H    0.121295
    43  H    0.137988
    44  H    0.144032
    45  H    0.148123
    46  H    0.136517
    47  H    0.137597
    48  H    0.133710
    49  H    0.136612
    50  H    0.145273
    51  H    0.147145
    52  H    0.146184
    53  H    0.129605
    54  H    0.148852
    55  H    0.183265
    56  H    0.152346
    57  H    0.342357
    58  H    0.133184
    59  H    0.146222
    60  H    0.165890
    61  H    0.343304
    62  H    0.149766
    63  H    0.207115
    64  H    0.144461
    65  H    0.155292
    66  H    0.173551
    67  H    0.155151
    68  H    0.133863
    69  H    0.133928
 Sum of Mulliken charges =  -0.00000

 Dipole moment (field-independent basis, Debye):
    X=             -2.9750    Y=              4.0689    Z=              1.8974  Tot=              5.3858
 Quadrupole moment (field-independent basis, Debye-Ang):
   XX=           -155.5586   YY=           -214.3499   ZZ=           -209.1351
   XY=             13.6747   XZ=             21.7933   YZ=              7.1640

 Normal termination of Gaussian 16 at Fri Nov  4 21:33:51 2022.
