 Gaussian 16, Revision B.01,
 Gaussian 16:  ES64L-G16RevB.01 20-Dec-2017

 -------------------------------------------------------------------
 #p b3lyp/6-31g(d) 6D 10F nosymm GFInput td=(50-50,nstate=2) SCF=XQC
 -------------------------------------------------------------------

 ------------------------------
 Gaussian input prepared by ASE
 ------------------------------
 Symbolic Z-matrix:
 Charge =  0 Multiplicity = 1

                          Input orientation:
 ---------------------------------------------------------------------
 Center     Atomic      Atomic             Coordinates (Angstroms)
 Number     Number       Type             X           Y           Z
 ---------------------------------------------------------------------
      1          6           0       -6.304138   -1.542020   -3.833001
      2          6           0       -6.531389   -1.045864   -2.401351
      3          6           0       -5.452220   -1.539725   -1.425360
      4          6           0       -5.628183   -1.118002    0.050848
      5          7           0       -4.782148    0.012811    0.464482
      6          6           0       -5.061534    1.286365   -0.220259
      7          6           0       -6.411549    1.970113    0.077268
      8          6           0       -6.556431    3.348370   -0.592989
      9          6           0       -6.632750    3.313864   -2.124658
     10          6           0       -4.671209    0.124207    1.923907
     11          6           0       -3.451087    0.947006    2.353131
     12          7           0       -2.269375    0.465902    1.659707
     13          6           0       -1.041572    0.420760    2.248495
     14          8           0       -0.841955    0.828564    3.392560
     15          6           0        0.072517   -0.169843    1.424694
     16          6           0        0.020879   -0.337468    0.033460
     17          6           0        1.106938   -0.883753   -0.646206
     18          6           0        2.248918   -1.289446    0.049260
     19          6           0        2.311185   -1.114758    1.442685
     20          6           0        1.229365   -0.542099    2.113617
     21          7           0        3.435428   -1.541312    2.160630
     22          6           0        4.735357   -1.757026    1.729436
     23          8           0        5.594980   -2.017173    2.565428
     24          6           0        4.970491   -1.631382    0.265186
     25          6           0        6.111535   -1.271794   -0.383469
     26          6           0        7.483111   -0.942159   -0.003213
     27          6           0        8.083880   -1.124598    1.264549
     28          6           0        9.399521   -0.755349    1.486936
     29          6           0       10.174840   -0.192463    0.459946
     30          8           0       11.453240    0.133174    0.791364
     31          6           0       12.288108    0.700021   -0.207831
     32          6           0        9.608460   -0.012359   -0.808708
     33          6           0        8.286794   -0.390832   -1.022358
     34         16           0        3.587069   -2.099871   -0.783961
     35          1           0       -5.345656   -1.184768   -4.229388
     36          1           0       -7.094081   -1.192884   -4.507450
     37          1           0       -6.289952   -2.638168   -3.874988
     38          1           0       -6.577704    0.050398   -2.401465
     39          1           0       -7.513757   -1.389601   -2.047926
     40          1           0       -4.456409   -1.220945   -1.761988
     41          1           0       -5.443193   -2.637400   -1.468071
     42          1           0       -6.699786   -0.940131    0.259200
     43          1           0       -5.335218   -1.958686    0.689070
     44          1           0       -4.252845    1.983720    0.032648
     45          1           0       -4.965966    1.102404   -1.294654
     46          1           0       -6.522169    2.100559    1.161293
     47          1           0       -7.240763    1.323798   -0.240883
     48          1           0       -5.718501    3.989669   -0.283517
     49          1           0       -7.463340    3.830095   -0.204712
     50          1           0       -7.464237    2.683466   -2.464167
     51          1           0       -6.792684    4.319041   -2.530883
     52          1           0       -5.713577    2.923311   -2.575849
     53          1           0       -5.571860    0.543106    2.406194
     54          1           0       -4.549775   -0.892467    2.314668
     55          1           0       -3.287595    0.845456    3.429646
     56          1           0       -3.604792    2.017454    2.157008
     57          1           0       -2.454181   -0.006724    0.783515
     58          1           0       -0.841697   -0.007962   -0.537758
     59          1           0        1.074518   -0.995747   -1.726108
     60          1           0        1.262464   -0.376245    3.186454
     61          1           0        3.359359   -1.562337    3.171147
     62          1           0        5.968234   -1.179793   -1.460029
     63          1           0        7.504505   -1.569609    2.061763
     64          1           0        9.860326   -0.900365    2.459196
     65          1           0       11.883980    1.651270   -0.577702
     66          1           0       13.250528    0.879616    0.274294
     67          1           0       12.427688    0.013263   -1.052767
     68          1           0       10.180890    0.411755   -1.625552
     69          1           0        7.860171   -0.246410   -2.012331
 ---------------------------------------------------------------------

 SCF Done:  E(RB3LYP) =  -1838.07946652     A.U. after   16 cycles

 Excitation energies and oscillator strengths:

 Excited state symmetry could not be determined.
 Excited State   1:      Triplet-?Sym    2.3568 eV  526.08 nm  f=0.0000  <S**2>=2.000
     121 ->130        -0.11701
     127 ->130         0.13775
     129 ->130         0.65797
 This state for optimization and/or second-order correction.
 Total Energy, E(TD-HF/TD-DFT) =  -1837.99285694
 Copying the excited state density for this state as the 1-particle RhoCI density.

 Excited state symmetry could not be determined.
 Excited State   2:      Triplet-?Sym    3.0634 eV  404.73 nm  f=0.0000  <S**2>=2.000
     126 ->131         0.13323
     126 ->132        -0.14573
     127 ->130        -0.27684
     127 ->131        -0.27312
     127 ->132        -0.11510
     129 ->130         0.10070
     129 ->131         0.48323

 Excited state symmetry could not be determined.
 Excited State   3:      Singlet-?Sym    3.5008 eV  354.16 nm  f=0.5307  <S**2>=0.000
     127 ->130        -0.11911
     129 ->130         0.68129

 Excited state symmetry could not be determined.
 Excited State   4:      Singlet-?Sym    3.8303 eV  323.69 nm  f=0.2356  <S**2>=0.000
     129 ->131         0.67783

 Alpha  occ. eigenvalues --  -88.89713 -19.18454 -19.12469 -19.10256 -14.37890
 Alpha  occ. eigenvalues --  -14.35032 -14.33534 -10.30431 -10.28083 -10.25304
 Alpha  occ. eigenvalues --  -10.24729 -10.24560 -10.23069 -10.22941 -10.21798
 Alpha  occ. eigenvalues --  -10.21742 -10.21398 -10.21333 -10.21223 -10.20480
 Alpha  occ. eigenvalues --  -10.20373 -10.20127 -10.19782 -10.19774 -10.19718
 Alpha  occ. eigenvalues --  -10.19087 -10.18864 -10.18712 -10.18658 -10.18519
 Alpha  occ. eigenvalues --  -10.18301 -10.18225 -10.18012 -10.17909  -7.95754
 Alpha  occ. eigenvalues --   -5.92254  -5.91885  -5.91271  -1.07040  -1.04565
 Alpha  occ. eigenvalues --   -1.02193  -0.95014  -0.93309  -0.90605  -0.86276
 Alpha  occ. eigenvalues --   -0.85736  -0.82947  -0.79828  -0.79408  -0.78617
 Alpha  occ. eigenvalues --   -0.76410  -0.75509  -0.74908  -0.74474  -0.73126
 Alpha  occ. eigenvalues --   -0.71824  -0.69996  -0.68548  -0.66055  -0.65438
 Alpha  occ. eigenvalues --   -0.63936  -0.63222  -0.61902  -0.61208  -0.59965
 Alpha  occ. eigenvalues --   -0.58899  -0.58876  -0.57858  -0.56037  -0.55518
 Alpha  occ. eigenvalues --   -0.53958  -0.53058  -0.50731  -0.50646  -0.50039
 Alpha  occ. eigenvalues --   -0.48832  -0.48335  -0.47323  -0.46921  -0.46825
 Alpha  occ. eigenvalues --   -0.46180  -0.45357  -0.45193  -0.44909  -0.44513
 Alpha  occ. eigenvalues --   -0.44188  -0.43765  -0.43473  -0.43341  -0.42928
 Alpha  occ. eigenvalues --   -0.42391  -0.41956  -0.41449  -0.40723  -0.40498
 Alpha  occ. eigenvalues --   -0.40396  -0.40008  -0.39059  -0.38752  -0.38505
 Alpha  occ. eigenvalues --   -0.38206  -0.37792  -0.37461  -0.37333  -0.36926
 Alpha  occ. eigenvalues --   -0.36331  -0.35914  -0.35567  -0.35326  -0.34761
 Alpha  occ. eigenvalues --   -0.34064  -0.33828  -0.33544  -0.33398  -0.33035
 Alpha  occ. eigenvalues --   -0.32834  -0.32594  -0.32334  -0.31241  -0.30228
 Alpha  occ. eigenvalues --   -0.27639  -0.26026  -0.25153  -0.24734  -0.24646
 Alpha  occ. eigenvalues --   -0.23677  -0.22490  -0.21873  -0.19792
 Alpha virt. eigenvalues --   -0.05500  -0.03615  -0.01392   0.00050   0.01759
 Alpha virt. eigenvalues --    0.04021   0.06230   0.06696   0.07022   0.08208
 Alpha virt. eigenvalues --    0.08476   0.08953   0.09202   0.09651   0.10129

 Mulliken charges:
               1
     1  C   -0.442330
     2  C   -0.263818
     3  C   -0.265625
     4  C   -0.117339
     5  N   -0.420034
     6  C   -0.144990
     7  C   -0.272129
     8  C   -0.252982
     9  C   -0.448029
    10  C   -0.141041
    11  C   -0.130847
    12  N   -0.628352
    13  C    0.569600
    14  O   -0.534023
    15  C    0.064278
    16  C   -0.178416
    17  C   -0.180605
    18  C   -0.117594
    19  C    0.377589
    20  C   -0.215860
    21  N   -0.723871
    22  C    0.601959
    23  O   -0.499268
    24  C   -0.191453
    25  C   -0.208217
    26  C    0.173073
    27  C   -0.191652
    28  C   -0.180777
    29  C    0.383291
    30  O   -0.499904
    31  C   -0.217440
    32  C   -0.197122
    33  C   -0.201438
    34  S    0.177732
    35  H    0.142529
    36  H    0.144755
    37  H    0.143931
    38  H    0.143211
    39  H    0.134112
    40  H    0.139806
    41  H    0.136673
    42  H    0.121298
    43  H    0.137991
    44  H    0.144031
    45  H    0.148121
    46  H    0.136513
    47  H    0.137593
    48  H    0.133707
    49  H    0.136609
    50  H    0.145274
    51  H    0.147144
    52  H    0.146182
    53  H    0.129602
    54  H    0.148851
    55  H    0.183262
    56  H    0.152343
    57  H    0.342365
    58  H    0.133188
    59  H    0.146223
    60  H    0.165890
    61  H    0.343304
    62  H    0.149766
    63  H    0.207116
    64  H    0.144461
    65  H    0.155292
    66  H    0.173551
    67  H    0.155152
    68  H    0.133863
    69  H    0.133928
 Sum of Mulliken charges =  -0.00000

 Dipole moment (field-independent basis, Debye):
    X=             -2.5790    Y=              1.3064    Z=             -4.5441  Tot=              5.3858
 Quadrupole moment (field-independent basis, Debye-Ang):
   XX=           -156.5729   YY=           -215.6362   ZZ=           -216.2168
   XY=             16.1437   XZ=            -20.2911   YZ=             -3.4831

 Normal termination of Gaussian 16 at Sat Nov  5 12:25:57 2022.
