 Gaussian 16, Revision B.01,
 Gaussian 16:  ES64L-G16RevB.01 20-Dec-2017

 -------------------------------------------------------------------
 #p b3lyp/6-31g(d) 6D 10F nosymm GFInput td=(50-50,nstate=2) SCF=XQC
 -------------------------------------------------------------------

 ------------------------------
 Gaussian input prepared by ASE
 ------------------------------
 Symbolic Z-matrix:
 Charge =  0 Multiplicity = 1

                          Input orientation:
 ---------------------------------------------------------------------
 Center     Atomic      Atomic             Coordinates (Angstroms)
 Number     Number       Type             X           Y           Z
 ---------------------------------------------------------------------
      1          6           0        3.231702    3.002878    0.031747
      2          8           0        4.175766    1.994795   -0.287439
      3          6           0        3.718343    0.720345   -0.453456
      4          6           0        2.397237    0.315598   -0.280499
      5          6           0        2.010665   -1.025117   -0.487939
      6          6           0        0.620832   -1.470752   -0.308863
      7          7           0        0.185907   -2.640737   -0.869555
      8          6           0       -1.087601   -2.772871   -0.507317
      9          6           0       -2.038459   -3.775614   -0.807857
     10          6           0       -3.307848   -3.680182   -0.293094
     11          6           0       -3.692310   -2.586661    0.545358
     12          6           0       -5.089297   -2.505203    1.109049
     13          6           0       -2.764908   -1.617052    0.824502
     14          7           0       -1.499075   -1.710006    0.302466
     15          6           0       -0.400490   -0.864664    0.430414
     16          7           0       -0.459478    0.248993    1.274313
     17          6           0       -0.819656    1.542027    0.847138
     18          6           0       -0.649015    2.628114    1.722497
     19          6           0       -1.022611    3.915682    1.343070
     20          6           0       -1.573574    4.116176    0.082949
     21          9           0       -1.939955    5.364880   -0.288277
     22          6           0       -1.752501    3.061090   -0.802503
     23          6           0       -1.373483    1.774170   -0.421655
     24          6           0        2.980956   -1.950873   -0.884036
     25          6           0        4.306559   -1.551167   -1.052362
     26          6           0        4.691121   -0.229978   -0.838477
     27          8           0        5.974003    0.214128   -0.989119
     28          1           0        3.799920    3.932761    0.095760
     29          1           0        2.461648    3.098369   -0.745011
     30          1           0        2.740234    2.811240    0.995283
     31          1           0        1.648831    1.050882   -0.017232
     32          1           0       -1.729226   -4.599660   -1.441209
     33          1           0       -4.042722   -4.447615   -0.521154
     34          1           0       -5.839685   -2.474462    0.309263
     35          1           0       -5.221830   -1.610607    1.725292
     36          1           0       -5.318623   -3.378425    1.732471
     37          1           0       -2.954007   -0.751447    1.448222
     38          1           0        0.162195    0.227637    2.073973
     39          1           0       -0.227618    2.460727    2.711338
     40          1           0       -0.893122    4.758830    2.013897
     41          1           0       -2.179907    3.250134   -1.781945
     42          1           0       -1.498345    0.946941   -1.112817
     43          1           0        2.688002   -2.979656   -1.059269
     44          1           0        5.058632   -2.277973   -1.356283
     45          1           0        6.522792   -0.535677   -1.267333
 ---------------------------------------------------------------------

 SCF Done:  E(RB3LYP) =  -1225.59873525     A.U. after   15 cycles

 Excitation energies and oscillator strengths:

 Excited state symmetry could not be determined.
 Excited State   1:      Triplet-?Sym    2.8934 eV  428.50 nm  f=0.0000  <S**2>=2.000
      92 -> 96         0.17128
      93 -> 96        -0.40251
      93 -> 98        -0.10932
      94 -> 96         0.44915
      94 -> 98         0.10064
      95 -> 98         0.19906
 This state for optimization and/or second-order correction.
 Total Energy, E(TD-HF/TD-DFT) =  -1225.49240411
 Copying the excited state density for this state as the 1-particle RhoCI density.

 Excited state symmetry could not be determined.
 Excited State   2:      Triplet-?Sym    3.0145 eV  411.30 nm  f=0.0000  <S**2>=2.000
      93 -> 96        -0.11012
      95 -> 96         0.54888
      95 -> 98        -0.30913
      95 ->101         0.19553

 Excited state symmetry could not be determined.
 Excited State   3:      Singlet-?Sym    3.7966 eV  326.56 nm  f=0.2324  <S**2>=0.000
      94 -> 96         0.14973
      95 -> 96         0.66821

 Excited state symmetry could not be determined.
 Excited State   4:      Singlet-?Sym    4.0785 eV  304.00 nm  f=0.0160  <S**2>=0.000
      93 -> 96         0.12780
      94 -> 96         0.66751
      95 -> 96        -0.15417

 Alpha  occ. eigenvalues --  -24.69821 -19.17386 -19.16973 -14.41048 -14.36629
 Alpha  occ. eigenvalues --  -14.30564 -10.26475 -10.24655 -10.24323 -10.24274
 Alpha  occ. eigenvalues --  -10.23946 -10.23936 -10.23532 -10.23329 -10.21535
 Alpha  occ. eigenvalues --  -10.21015 -10.20173 -10.20126 -10.20107 -10.20046
 Alpha  occ. eigenvalues --  -10.19892 -10.19684 -10.19560 -10.18850 -10.18393
 Alpha  occ. eigenvalues --  -10.18203 -10.17628  -1.20873  -1.06504  -1.04532
 Alpha  occ. eigenvalues --   -1.03347  -0.94645  -0.90530  -0.85658  -0.84318
 Alpha  occ. eigenvalues --   -0.83115  -0.78224  -0.76004  -0.75478  -0.74939
 Alpha  occ. eigenvalues --   -0.74121  -0.71701  -0.70191  -0.68433  -0.64169
 Alpha  occ. eigenvalues --   -0.63678  -0.62564  -0.61800  -0.60853  -0.59063
 Alpha  occ. eigenvalues --   -0.57015  -0.54665  -0.54323  -0.53987  -0.52650
 Alpha  occ. eigenvalues --   -0.50937  -0.50200  -0.49248  -0.47473  -0.47113
 Alpha  occ. eigenvalues --   -0.46316  -0.46174  -0.46092  -0.45634  -0.45231
 Alpha  occ. eigenvalues --   -0.44831  -0.43718  -0.43440  -0.43342  -0.42390
 Alpha  occ. eigenvalues --   -0.41899  -0.40719  -0.40265  -0.40177  -0.39149
 Alpha  occ. eigenvalues --   -0.38856  -0.38637  -0.37869  -0.36624  -0.36394
 Alpha  occ. eigenvalues --   -0.34982  -0.34637  -0.34188  -0.33038  -0.32433
 Alpha  occ. eigenvalues --   -0.31796  -0.30832  -0.30784  -0.26690  -0.26264
 Alpha  occ. eigenvalues --   -0.25099  -0.22622  -0.21269  -0.20415  -0.18937
 Alpha virt. eigenvalues --   -0.03322  -0.01462  -0.00851   0.01192   0.01719
 Alpha virt. eigenvalues --    0.01963   0.06912   0.07254   0.09094   0.09763
 Alpha virt. eigenvalues --    0.09855   0.10839   0.11574   0.11779   0.12781

 Mulliken charges:
               1
     1  C   -0.214633
     2  O   -0.504824
     3  C    0.347662
     4  C   -0.276433
     5  C    0.099591
     6  C    0.185459
     7  N   -0.591999
     8  C    0.539518
     9  C   -0.185960
    10  C   -0.154615
    11  C    0.111163
    12  C   -0.529349
    13  C    0.017908
    14  N   -0.512543
    15  C    0.379813
    16  N   -0.793745
    17  C    0.342839
    18  C   -0.199793
    19  C   -0.201214
    20  C    0.371029
    21  F   -0.303995
    22  C   -0.206325
    23  C   -0.181037
    24  C   -0.176809
    25  C   -0.201146
    26  C    0.307673
    27  O   -0.631394
    28  H    0.168339
    29  H    0.158959
    30  H    0.144407
    31  H    0.148198
    32  H    0.155252
    33  H    0.134613
    34  H    0.166669
    35  H    0.159517
    36  H    0.166089
    37  H    0.171715
    38  H    0.329563
    39  H    0.129552
    40  H    0.146615
    41  H    0.149297
    42  H    0.154823
    43  H    0.155011
    44  H    0.117562
    45  H    0.406977
 Sum of Mulliken charges =  -0.00000

 Dipole moment (field-independent basis, Debye):
    X=             -1.9979    Y=             -1.3164    Z=              2.1346  Tot=              3.2064
 Quadrupole moment (field-independent basis, Debye-Ang):
   XX=           -140.9726   YY=           -154.5989   ZZ=           -148.4754
   XY=              3.2492   XZ=             -2.1949   YZ=              4.4714

 Normal termination of Gaussian 16 at Sat Nov  5 12:18:04 2022.
