 Gaussian 16, Revision B.01,
 Gaussian 16:  ES64L-G16RevB.01 20-Dec-2017

 -----------------------------
 #p b3lyp/6-31g(d) opt SCF=XQC
 -----------------------------

 ------------------------------
 Gaussian input prepared by ASE
 ------------------------------
 Symbolic Z-matrix:
 Charge =  0 Multiplicity = 1

 SCF Done:  E(RB3LYP) =  -1225.59345990     A.U. after   15 cycles
 SCF Done:  E(RB3LYP) =  -1225.59813372     A.U. after   13 cycles
 SCF Done:  E(RB3LYP) =  -1225.59849284     A.U. after   12 cycles
 SCF Done:  E(RB3LYP) =  -1225.59862396     A.U. after   11 cycles
 SCF Done:  E(RB3LYP) =  -1225.59866788     A.U. after   11 cycles
 SCF Done:  E(RB3LYP) =  -1225.59869545     A.U. after   11 cycles
 SCF Done:  E(RB3LYP) =  -1225.59871903     A.U. after   10 cycles
 SCF Done:  E(RB3LYP) =  -1225.59872458     A.U. after   10 cycles
 SCF Done:  E(RB3LYP) =  -1225.59872936     A.U. after    9 cycles
 SCF Done:  E(RB3LYP) =  -1225.59873330     A.U. after    9 cycles
 SCF Done:  E(RB3LYP) =  -1225.59873416     A.U. after    8 cycles
 SCF Done:  E(RB3LYP) =  -1225.59873460     A.U. after    8 cycles
 SCF Done:  E(RB3LYP) =  -1225.59873476     A.U. after    8 cycles
 SCF Done:  E(RB3LYP) =  -1225.59873478     A.U. after    7 cycles
 Optimization completed.
    -- Stationary point found.

                         Standard orientation:
 ---------------------------------------------------------------------
 Center     Atomic      Atomic             Coordinates (Angstroms)
 Number     Number       Type             X           Y           Z
 ---------------------------------------------------------------------
      1          6           0        3.871492    1.614480    0.253162
      2          8           0        4.403041    0.301945    0.189336
      3          6           0        3.526724   -0.737817    0.079859
      4          6           0        2.139367   -0.618254    0.080115
      5          6           0        1.308377   -1.750474   -0.052242
      6          6           0       -0.158196   -1.643434   -0.052837
      7          7           0       -0.930967   -2.654005   -0.556792
      8          6           0       -2.194344   -2.271156   -0.390043
      9          6           0       -3.409622   -2.905765   -0.736914
     10          6           0       -4.601722   -2.291364   -0.442219
     11          6           0       -4.643629   -1.019854    0.212080
     12          6           0       -5.963994   -0.365874    0.535966
     13          6           0       -3.459888   -0.410754    0.537491
     14          7           0       -2.269335   -1.022702    0.234841
     15          6           0       -0.957072   -0.611588    0.451211
     16          7           0       -0.692090    0.564216    1.160538
     17          6           0       -0.496370    1.821180    0.555659
     18          6           0       -0.033463    2.895044    1.335077
     19          6           0        0.142533    4.158881    0.775514
     20          6           0       -0.150350    4.349521   -0.569677
     21          9           0        0.016951    5.576160   -1.116189
     22          6           0       -0.608261    3.305693   -1.363395
     23          6           0       -0.779176    2.040750   -0.801640
     24          6           0        1.903248   -3.007835   -0.195611
     25          6           0        3.292362   -3.132947   -0.190104
     26          6           0        4.113530   -2.017074   -0.049801
     27          8           0        5.477778   -2.083427   -0.038103
     28          1           0        4.733384    2.281619    0.314153
     29          1           0        3.283752    1.858290   -0.641585
     30          1           0        3.239836    1.756142    1.140636
     31          1           0        1.693125    0.364826    0.147091
     32          1           0       -3.359886   -3.871068   -1.228369
     33          1           0       -5.538625   -2.774229   -0.706908
     34          1           0       -6.555078   -0.192258   -0.371868
     35          1           0       -5.822747    0.599497    1.031679
     36          1           0       -6.569135   -0.997278    1.198457
     37          1           0       -3.382381    0.548982    1.034440
     38          1           0       -0.216156    0.444770    2.046884
     39          1           0        0.182538    2.740035    2.389930
     40          1           0        0.500122    4.992283    1.371540
     41          1           0       -0.822808    3.484233   -2.412115
     42          1           0       -1.124320    1.217354   -1.418484
     43          1           0        1.270778   -3.880345   -0.312362
     44          1           0        3.749666   -4.115604   -0.297274
     45          1           0        5.736289   -3.011559   -0.150014
 ---------------------------------------------------------------------

 The electronic state is 1-A.
 Alpha  occ. eigenvalues --  -24.69821 -19.17386 -19.16973 -14.41048 -14.36629
 Alpha  occ. eigenvalues --  -14.30564 -10.26475 -10.24655 -10.24323 -10.24274
 Alpha  occ. eigenvalues --  -10.23946 -10.23936 -10.23532 -10.23329 -10.21535
 Alpha  occ. eigenvalues --  -10.21015 -10.20173 -10.20126 -10.20107 -10.20046
 Alpha  occ. eigenvalues --  -10.19892 -10.19684 -10.19560 -10.18850 -10.18393
 Alpha  occ. eigenvalues --  -10.18203 -10.17628  -1.20873  -1.06504  -1.04532
 Alpha  occ. eigenvalues --   -1.03347  -0.94645  -0.90530  -0.85659  -0.84318
 Alpha  occ. eigenvalues --   -0.83115  -0.78224  -0.76004  -0.75478  -0.74939
 Alpha  occ. eigenvalues --   -0.74121  -0.71701  -0.70191  -0.68433  -0.64169
 Alpha  occ. eigenvalues --   -0.63678  -0.62564  -0.61800  -0.60853  -0.59063
 Alpha  occ. eigenvalues --   -0.57015  -0.54665  -0.54323  -0.53987  -0.52650
 Alpha  occ. eigenvalues --   -0.50937  -0.50200  -0.49248  -0.47473  -0.47113
 Alpha  occ. eigenvalues --   -0.46316  -0.46174  -0.46092  -0.45634  -0.45231
 Alpha  occ. eigenvalues --   -0.44831  -0.43718  -0.43440  -0.43342  -0.42390
 Alpha  occ. eigenvalues --   -0.41899  -0.40719  -0.40265  -0.40177  -0.39149
 Alpha  occ. eigenvalues --   -0.38856  -0.38637  -0.37869  -0.36624  -0.36394
 Alpha  occ. eigenvalues --   -0.34982  -0.34637  -0.34188  -0.33038  -0.32433
 Alpha  occ. eigenvalues --   -0.31796  -0.30832  -0.30784  -0.26690  -0.26264
 Alpha  occ. eigenvalues --   -0.25099  -0.22622  -0.21269  -0.20415  -0.18937
 Alpha virt. eigenvalues --   -0.03322  -0.01462  -0.00851   0.01192   0.01719
 Alpha virt. eigenvalues --    0.01963   0.06912   0.07254   0.09094   0.09763
 Alpha virt. eigenvalues --    0.09855   0.10839   0.11574   0.11779   0.12781

 Mulliken charges:
               1
     1  C   -0.214633
     2  O   -0.504825
     3  C    0.347658
     4  C   -0.276428
     5  C    0.099596
     6  C    0.185490
     7  N   -0.592004
     8  C    0.539494
     9  C   -0.185944
    10  C   -0.154613
    11  C    0.111156
    12  C   -0.529350
    13  C    0.017906
    14  N   -0.512524
    15  C    0.379773
    16  N   -0.793729
    17  C    0.342827
    18  C   -0.199788
    19  C   -0.201220
    20  C    0.371034
    21  F   -0.303994
    22  C   -0.206328
    23  C   -0.181032
    24  C   -0.176822
    25  C   -0.201133
    26  C    0.307671
    27  O   -0.631397
    28  H    0.168339
    29  H    0.158960
    30  H    0.144407
    31  H    0.148197
    32  H    0.155251
    33  H    0.134612
    34  H    0.166669
    35  H    0.159517
    36  H    0.166090
    37  H    0.171716
    38  H    0.329564
    39  H    0.129552
    40  H    0.146617
    41  H    0.149297
    42  H    0.154821
    43  H    0.155010
    44  H    0.117562
    45  H    0.406977
 Sum of Mulliken charges =  -0.00000

 Dipole moment (field-independent basis, Debye):
    X=             -2.5685    Y=             -0.1880    Z=              1.9101  Tot=              3.2064
 Quadrupole moment (field-independent basis, Debye-Ang):
   XX=           -139.5152   YY=           -153.3970   ZZ=           -149.9789
   XY=             -2.7166   XZ=              0.5153   YZ=              5.3890

 Normal termination of Gaussian 16 at Fri Nov  4 20:51:57 2022.
