 Gaussian 16, Revision B.01,
 Gaussian 16:  ES64L-G16RevB.01 20-Dec-2017

 -------------------------------------------------------------------
 #p b3lyp/6-31g(d) 6D 10F nosymm GFInput td=(50-50,nstate=2) SCF=XQC
 -------------------------------------------------------------------

 ------------------------------
 Gaussian input prepared by ASE
 ------------------------------
 Symbolic Z-matrix:
 Charge =  0 Multiplicity = 1

                          Input orientation:
 ---------------------------------------------------------------------
 Center     Atomic      Atomic             Coordinates (Angstroms)
 Number     Number       Type             X           Y           Z
 ---------------------------------------------------------------------
      1          6           0       -6.260929    1.774600   -0.029655
      2          6           0       -4.971113    2.485090   -0.471467
      3          7           0       -3.710118    1.925582    0.015706
      4          6           0       -3.404642    0.573005   -0.451231
      5          6           0       -2.010204    0.136330   -0.040591
      6          6           0       -0.998495    1.073600    0.201977
      7          6           0        0.280641    0.673442    0.555643
      8          6           0        0.536667   -0.711108    0.671387
      9          7           0        1.774635   -1.207121    1.053281
     10          6           0        1.954225   -2.651945    1.234152
     11          6           0        2.360497   -3.400711   -0.038827
     12          6           0        2.837424   -0.300638    1.449588
     13          6           0        3.598539    0.409727    0.330472
     14          6           0        3.450591    0.069003   -1.016444
     15          6           0        4.192377    0.726680   -2.001272
     16          6           0        5.091987    1.733278   -1.651694
     17          6           0        5.242859    2.083854   -0.307620
     18          6           0        4.498485    1.428814    0.672167
     19          7           0       -0.419591   -1.620485    0.411334
     20          6           0       -1.652131   -1.218466    0.068754
     21          6           0       -2.637568   -2.332353   -0.209419
     22          1           0       -6.303953    0.740729   -0.389643
     23          1           0       -7.142795    2.297956   -0.418559
     24          1           0       -6.341897    1.753429    1.064739
     25          1           0       -4.918915    2.503479   -1.568337
     26          1           0       -5.008247    3.532907   -0.146814
     27          1           0       -3.699142    1.936841    1.035220
     28          1           0       -3.484670    0.591556   -1.550166
     29          1           0       -4.136696   -0.181129   -0.115389
     30          1           0       -1.234676    2.129114    0.106680
     31          1           0        1.056836    1.412111    0.712256
     32          1           0        1.015517   -3.064687    1.610800
     33          1           0        2.716364   -2.792343    2.009330
     34          1           0        2.474635   -4.471130    0.172656
     35          1           0        1.588496   -3.285190   -0.805573
     36          1           0        3.311003   -3.029651   -0.437734
     37          1           0        3.555209   -0.884398    2.037161
     38          1           0        2.438640    0.458590    2.139662
     39          1           0        2.745283   -0.707564   -1.293927
     40          1           0        4.061949    0.451154   -3.044702
     41          1           0        5.668058    2.244597   -2.418316
     42          1           0        5.937406    2.870266   -0.023222
     43          1           0        4.618210    1.710821    1.717139
     44          1           0       -3.052726   -2.266358   -1.223048
     45          1           0       -3.487110   -2.307617    0.485599
     46          1           0       -2.130917   -3.293663   -0.102052
 ---------------------------------------------------------------------

 SCF Done:  E(RB3LYP) =  -865.228859274     A.U. after   14 cycles

 Excitation energies and oscillator strengths:

 Excited state symmetry could not be determined.
 Excited State   1:      Triplet-?Sym    3.5140 eV  352.83 nm  f=0.0000  <S**2>=2.000
      72 -> 78         0.10424
      72 -> 80         0.11180
      77 -> 78         0.48055
      77 -> 80         0.41332
      77 -> 81         0.22964
 This state for optimization and/or second-order correction.
 Total Energy, E(TD-HF/TD-DFT) =  -865.099723722
 Copying the excited state density for this state as the 1-particle RhoCI density.

 Excited state symmetry could not be determined.
 Excited State   2:      Triplet-?Sym    3.6441 eV  340.23 nm  f=0.0000  <S**2>=2.000
      71 -> 81        -0.10626
      72 -> 78         0.12650
      72 -> 80         0.12038
      77 -> 78        -0.28529
      77 -> 81         0.58842

 Excited state symmetry could not be determined.
 Excited State   3:      Singlet-?Sym    4.2937 eV  288.76 nm  f=0.0535  <S**2>=0.000
      77 -> 78         0.69743

 Excited state symmetry could not be determined.
 Excited State   4:      Singlet-?Sym    4.5327 eV  273.53 nm  f=0.0133  <S**2>=0.000
      77 -> 79         0.69659

 Alpha  occ. eigenvalues --  -14.34452 -14.31431 -14.30336 -10.24251 -10.22352
 Alpha  occ. eigenvalues --  -10.21359 -10.20725 -10.20675 -10.20567 -10.19322
 Alpha  occ. eigenvalues --  -10.18716 -10.18569 -10.18550 -10.18452 -10.18173
 Alpha  occ. eigenvalues --  -10.18130 -10.17440 -10.17421 -10.17279 -10.17165
 Alpha  occ. eigenvalues --  -10.16646  -0.95901  -0.90429  -0.89540  -0.84824
 Alpha  occ. eigenvalues --   -0.78903  -0.77239  -0.76692  -0.73893  -0.73638
 Alpha  occ. eigenvalues --   -0.73099  -0.69013  -0.68472  -0.65348  -0.61941
 Alpha  occ. eigenvalues --   -0.60342  -0.59801  -0.59189  -0.58123  -0.55871
 Alpha  occ. eigenvalues --   -0.51573  -0.50629  -0.49439  -0.48410  -0.45701
 Alpha  occ. eigenvalues --   -0.45615  -0.44700  -0.44060  -0.43707  -0.43115
 Alpha  occ. eigenvalues --   -0.42725  -0.42096  -0.41415  -0.41348  -0.40834
 Alpha  occ. eigenvalues --   -0.40133  -0.39746  -0.38790  -0.38468  -0.37677
 Alpha  occ. eigenvalues --   -0.36583  -0.36431  -0.35796  -0.35627  -0.34877
 Alpha  occ. eigenvalues --   -0.34284  -0.34038  -0.33859  -0.33664  -0.33274
 Alpha  occ. eigenvalues --   -0.27412  -0.25804  -0.24525  -0.23943  -0.23702
 Alpha  occ. eigenvalues --   -0.21625  -0.18617
 Alpha virt. eigenvalues --   -0.00477   0.00513   0.00675   0.02034   0.08472
 Alpha virt. eigenvalues --    0.09860   0.10198   0.10938   0.11959   0.12229
 Alpha virt. eigenvalues --    0.13159   0.13479   0.14556   0.14775   0.15354

 Mulliken charges:
               1
     1  C   -0.453391
     2  C   -0.123214
     3  N   -0.549567
     4  C   -0.188258
     5  C    0.071027
     6  C   -0.149120
     7  C   -0.189287
     8  C    0.513078
     9  N   -0.469661
    10  C   -0.122130
    11  C   -0.445105
    12  C   -0.223522
    13  C    0.147319
    14  C   -0.172308
    15  C   -0.132036
    16  C   -0.129252
    17  C   -0.129987
    18  C   -0.179330
    19  N   -0.580307
    20  C    0.263381
    21  C   -0.524673
    22  H    0.150422
    23  H    0.143078
    24  H    0.138472
    25  H    0.140619
    26  H    0.138979
    27  H    0.290901
    28  H    0.148915
    29  H    0.124394
    30  H    0.151747
    31  H    0.135664
    32  H    0.172781
    33  H    0.130224
    34  H    0.136685
    35  H    0.167038
    36  H    0.145068
    37  H    0.162120
    38  H    0.157086
    39  H    0.148029
    40  H    0.129571
    41  H    0.127363
    42  H    0.127950
    43  H    0.119252
    44  H    0.154780
    45  H    0.156421
    46  H    0.168785
 Sum of Mulliken charges =  -0.00000

 Dipole moment (field-independent basis, Debye):
    X=             -0.3615    Y=              0.4550    Z=              0.7756  Tot=              0.9691
 Quadrupole moment (field-independent basis, Debye-Ang):
   XX=           -113.4392   YY=           -125.7507   ZZ=           -121.2889
   XY=              0.5700   XZ=              2.1516   YZ=              1.1801

 Normal termination of Gaussian 16 at Sat Nov  5 12:16:11 2022.
