 Gaussian 16, Revision B.01,
 Gaussian 16:  ES64L-G16RevB.01 20-Dec-2017

 -----------------------------
 #p b3lyp/6-31g(d) opt SCF=XQC
 -----------------------------

 ------------------------------
 Gaussian input prepared by ASE
 ------------------------------
 Symbolic Z-matrix:
 Charge =  0 Multiplicity = 1

 SCF Done:  E(RB3LYP) =  -865.221060838     A.U. after   14 cycles
 SCF Done:  E(RB3LYP) =  -865.226167976     A.U. after   12 cycles
 SCF Done:  E(RB3LYP) =  -865.227040469     A.U. after   11 cycles
 SCF Done:  E(RB3LYP) =  -865.227338193     A.U. after   11 cycles
 SCF Done:  E(RB3LYP) =  -865.227627548     A.U. after   11 cycles
 SCF Done:  E(RB3LYP) =  -865.227776732     A.U. after   11 cycles
 SCF Done:  E(RB3LYP) =  -865.227817190     A.U. after   11 cycles
 SCF Done:  E(RB3LYP) =  -865.228004964     A.U. after   11 cycles
 SCF Done:  E(RB3LYP) =  -865.228281617     A.U. after   12 cycles
 SCF Done:  E(RB3LYP) =  -865.228396413     A.U. after   10 cycles
 SCF Done:  E(RB3LYP) =  -865.228861295     A.U. after   10 cycles
 SCF Done:  E(RB3LYP) =  -865.228862451     A.U. after    9 cycles
 SCF Done:  E(RB3LYP) =  -865.228862413     A.U. after    9 cycles
 SCF Done:  E(RB3LYP) =  -865.228862863     A.U. after    9 cycles
 SCF Done:  E(RB3LYP) =  -865.228862950     A.U. after    7 cycles
 SCF Done:  E(RB3LYP) =  -865.228863019     A.U. after    7 cycles
 SCF Done:  E(RB3LYP) =  -865.228863057     A.U. after    7 cycles
 SCF Done:  E(RB3LYP) =  -865.228863116     A.U. after    7 cycles
 SCF Done:  E(RB3LYP) =  -865.228863148     A.U. after    7 cycles
 SCF Done:  E(RB3LYP) =  -865.228863165     A.U. after    6 cycles
 Optimization completed.
    -- Stationary point found.

                         Standard orientation:
 ---------------------------------------------------------------------
 Center     Atomic      Atomic             Coordinates (Angstroms)
 Number     Number       Type             X           Y           Z
 ---------------------------------------------------------------------
      1          6           0       -6.689074   -1.133618   -0.142679
      2          6           0       -5.463977   -2.029896    0.101131
      3          7           0       -4.162166   -1.487331   -0.287979
      4          6           0       -3.734189   -0.298998    0.450608
      5          6           0       -2.309766    0.096188    0.106203
      6          6           0       -1.387174   -0.848748   -0.359403
      7          6           0       -0.080389   -0.491624   -0.652947
      8          6           0        0.296596    0.858241   -0.474977
      9          7           0        1.570663    1.318202   -0.774352
     10          6           0        1.876353    2.747288   -0.644940
     11          6           0        2.357467    3.165198    0.747922
     12          6           0        2.545656    0.432174   -1.384790
     13          6           0        3.249488   -0.565801   -0.465551
     14          6           0        3.142951   -0.513666    0.926604
     15          6           0        3.831152   -1.429666    1.726603
     16          6           0        4.635097   -2.409321    1.144629
     17          6           0        4.743693   -2.471900   -0.246949
     18          6           0        4.052720   -1.559338   -1.042524
     19          7           0       -0.573104    1.767551    0.000208
     20          6           0       -1.833731    1.407060    0.281278
     21          6           0       -2.714200    2.513819    0.818929
     22          1           0       -6.637338   -0.202466    0.432308
     23          1           0       -7.610828   -1.651943    0.148088
     24          1           0       -6.776440   -0.869054   -1.204317
     25          1           0       -5.405002   -2.289848    1.166557
     26          1           0       -5.596513   -2.975458   -0.440207
     27          1           0       -4.160243   -1.278340   -1.285964
     28          1           0       -3.806911   -0.548322    1.521569
     29          1           0       -4.399036    0.569382    0.304650
     30          1           0       -1.715349   -1.875866   -0.487086
     31          1           0        0.625928   -1.242025   -0.985592
     32          1           0        0.975053    3.310047   -0.898620
     33          1           0        2.641832    2.987024   -1.391959
     34          1           0        2.564495    4.242351    0.768667
     35          1           0        1.584308    2.952320    1.492326
     36          1           0        3.274393    2.637153    1.031981
     37          1           0        3.307782    1.066225   -1.852100
     38          1           0        2.075652   -0.122829   -2.211061
     39          1           0        2.511553    0.241384    1.383492
     40          1           0        3.733894   -1.376679    2.807993
     41          1           0        5.169517   -3.121627    1.767548
     42          1           0        5.363444   -3.234114   -0.712417
     43          1           0        4.138730   -1.617385   -2.126527
     44          1           0       -3.125600    2.265306    1.805411
     45          1           0       -3.568019    2.712508    0.157945
     46          1           0       -2.125086    3.428956    0.907296
 ---------------------------------------------------------------------

 The electronic state is 1-A.
 Alpha  occ. eigenvalues --  -14.34452 -14.31431 -14.30336 -10.24251 -10.22352
 Alpha  occ. eigenvalues --  -10.21359 -10.20725 -10.20675 -10.20567 -10.19322
 Alpha  occ. eigenvalues --  -10.18716 -10.18569 -10.18550 -10.18452 -10.18173
 Alpha  occ. eigenvalues --  -10.18130 -10.17440 -10.17421 -10.17279 -10.17165
 Alpha  occ. eigenvalues --  -10.16646  -0.95901  -0.90429  -0.89540  -0.84824
 Alpha  occ. eigenvalues --   -0.78903  -0.77239  -0.76692  -0.73893  -0.73638
 Alpha  occ. eigenvalues --   -0.73099  -0.69013  -0.68472  -0.65348  -0.61941
 Alpha  occ. eigenvalues --   -0.60342  -0.59801  -0.59189  -0.58123  -0.55871
 Alpha  occ. eigenvalues --   -0.51573  -0.50629  -0.49439  -0.48410  -0.45701
 Alpha  occ. eigenvalues --   -0.45615  -0.44700  -0.44060  -0.43707  -0.43115
 Alpha  occ. eigenvalues --   -0.42725  -0.42096  -0.41415  -0.41348  -0.40834
 Alpha  occ. eigenvalues --   -0.40133  -0.39746  -0.38790  -0.38468  -0.37677
 Alpha  occ. eigenvalues --   -0.36583  -0.36431  -0.35796  -0.35627  -0.34877
 Alpha  occ. eigenvalues --   -0.34284  -0.34038  -0.33859  -0.33664  -0.33274
 Alpha  occ. eigenvalues --   -0.27412  -0.25804  -0.24524  -0.23943  -0.23702
 Alpha  occ. eigenvalues --   -0.21625  -0.18617
 Alpha virt. eigenvalues --   -0.00477   0.00513   0.00675   0.02034   0.08472
 Alpha virt. eigenvalues --    0.09860   0.10198   0.10938   0.11959   0.12229
 Alpha virt. eigenvalues --    0.13159   0.13479   0.14556   0.14775   0.15354

 Mulliken charges:
               1
     1  C   -0.453387
     2  C   -0.123226
     3  N   -0.549561
     4  C   -0.188259
     5  C    0.071010
     6  C   -0.149117
     7  C   -0.189275
     8  C    0.513064
     9  N   -0.469672
    10  C   -0.122115
    11  C   -0.445109
    12  C   -0.223525
    13  C    0.147330
    14  C   -0.172290
    15  C   -0.132055
    16  C   -0.129244
    17  C   -0.129982
    18  C   -0.179345
    19  N   -0.580314
    20  C    0.263401
    21  C   -0.524675
    22  H    0.150422
    23  H    0.143079
    24  H    0.138472
    25  H    0.140622
    26  H    0.138981
    27  H    0.290901
    28  H    0.148914
    29  H    0.124395
    30  H    0.151746
    31  H    0.135666
    32  H    0.172779
    33  H    0.130223
    34  H    0.136684
    35  H    0.167038
    36  H    0.145069
    37  H    0.162120
    38  H    0.157085
    39  H    0.148027
    40  H    0.129572
    41  H    0.127363
    42  H    0.127950
    43  H    0.119252
    44  H    0.154781
    45  H    0.156421
    46  H    0.168785
 Sum of Mulliken charges =  -0.00000

 Dipole moment (field-independent basis, Debye):
    X=             -0.4066    Y=             -0.2437    Z=             -0.8454  Tot=              0.9692
 Quadrupole moment (field-independent basis, Debye-Ang):
   XX=           -113.4292   YY=           -125.9673   ZZ=           -120.9454
   XY=             -1.1000   XZ=             -2.1704   YZ=              0.2745

 1\1\GINC-NODE89\FOpt\RB3LYP\6-31G(d)\C18H25N3\WYKGROUP\04-Nov-2022\0\\
 #p b3lyp/6-31g(d) opt SCF=XQC\\Gaussian input prepared by ASE\\0,1\C,-
 6.2609288193,1.7745995113,-0.0296548718\C,-4.9711129859,2.4850900324,-
 0.4714672944\N,-3.7101177354,1.9255822135,0.0157062162\C,-3.4046420031
 ,0.5730045578,-0.4512305994\C,-2.0102037535,0.1363302645,-0.0405910222
 \C,-0.9984948966,1.0735995551,0.2019766221\C,0.2806409251,0.6734418798
 ,0.5556428514\C,0.5366673087,-0.71110785,0.671386692\N,1.7746354445,-1
 .2071212163,1.0532811164\C,1.9542248072,-2.6519447755,1.2341520332\C,2

 Normal termination of Gaussian 16 at Fri Nov  4 21:04:19 2022.
