 Gaussian 16, Revision B.01,
 Gaussian 16:  ES64L-G16RevB.01 20-Dec-2017

 -------------------------------------------------------------------
 #p b3lyp/6-31g(d) 6D 10F nosymm GFInput td=(50-50,nstate=2) SCF=XQC
 -------------------------------------------------------------------

 ------------------------------
 Gaussian input prepared by ASE
 ------------------------------
 Symbolic Z-matrix:
 Charge =  0 Multiplicity = 1

                          Input orientation:
 ---------------------------------------------------------------------
 Center     Atomic      Atomic             Coordinates (Angstroms)
 Number     Number       Type             X           Y           Z
 ---------------------------------------------------------------------
      1          6           0        1.331044    7.638153   -0.277321
      2          6           0        0.744410    6.267469   -0.406561
      3          7           0        1.052923    5.447690   -1.369427
      4          7           0        0.391834    4.248713   -1.298029
      5          6           0       -0.413226    4.184396   -0.272205
      6          7           0       -1.183388    3.068565   -0.012777
      7          6           0       -2.178661    3.021242    0.946474
      8          8           0       -2.439185    3.899255    1.747426
      9          6           0       -2.891761    1.668608    0.777190
     10          8           0       -3.815319    1.328588    1.498329
     11          6           0       -2.252052    1.015059   -0.358419
     12          6           0       -2.669560   -0.087302   -1.047336
     13          8           0       -2.007078   -0.339706   -2.208071
     14          6           0       -3.773868   -1.007460   -0.727736
     15          6           0       -4.557944   -1.522516   -1.782074
     16          6           0       -5.585137   -2.420708   -1.524353
     17          6           0       -5.836989   -2.841224   -0.216700
     18          6           0       -5.036446   -2.358885    0.837332
     19          6           0       -4.023047   -1.442042    0.581504
     20          8           0       -5.225222   -2.771209    2.130440
     21          6           0       -6.027017   -3.946309    2.255536
     22          6           0       -7.255663   -3.837643    1.368876
     23          8           0       -6.861786   -3.718046   -0.003024
     24          6           0       -1.053150    1.831261   -0.826676
     25          6           0        0.286493    1.135193   -0.617919
     26          6           0        0.652605    0.630670    0.631162
     27          6           0        1.873317   -0.018864    0.825054
     28          6           0        2.750263   -0.175280   -0.255817
     29          8           0        3.964030   -0.798593   -0.189500
     30          6           0        4.422961   -1.263544    1.078738
     31          6           0        5.816050   -1.824057    0.921413
     32          6           0        6.770881   -1.159668    0.141361
     33          6           0        8.068264   -1.659480    0.038542
     34          6           0        8.430260   -2.824045    0.720428
     35          6           0        7.484410   -3.490156    1.499915
     36          6           0        6.182707   -2.993860    1.594087
     37          6           0        2.391648    0.325218   -1.515330
     38          6           0        1.176869    0.975480   -1.686992
     39         16           0       -0.443960    5.628824    0.729110
     40          1           0        2.030523    7.792598   -1.102487
     41          1           0        0.556759    8.412790   -0.320724
     42          1           0        1.869700    7.758189    0.669687
     43          1           0       -2.244706   -1.229102   -2.519677
     44          1           0       -4.405577   -1.171291   -2.798940
     45          1           0       -6.220785   -2.797037   -2.319403
     46          1           0       -3.437467   -1.077613    1.414486
     47          1           0       -5.437747   -4.830583    1.976004
     48          1           0       -6.302391   -4.018907    3.310459
     49          1           0       -7.876689   -4.734501    1.430454
     50          1           0       -7.853612   -2.962880    1.655636
     51          1           0       -1.140920    2.111971   -1.880151
     52          1           0       -0.018384    0.740244    1.479981
     53          1           0        2.122825   -0.396839    1.809692
     54          1           0        4.421840   -0.425662    1.793001
     55          1           0        3.743279   -2.032947    1.471248
     56          1           0        6.486568   -0.259142   -0.394376
     57          1           0        8.799229   -1.138416   -0.574208
     58          1           0        9.442544   -3.211226    0.640463
     59          1           0        7.754606   -4.400923    2.027755
     60          1           0        5.445414   -3.523095    2.194065
     61          1           0        3.086179    0.201978   -2.340339
     62          1           0        0.918298    1.378604   -2.661669
 ---------------------------------------------------------------------

 SCF Done:  E(RB3LYP) =  -2132.67124846     A.U. after   16 cycles

 Excitation energies and oscillator strengths:

 Excited state symmetry could not be determined.
 Excited State   1:      Triplet-?Sym    2.3196 eV  534.51 nm  f=0.0000  <S**2>=2.000
     132 ->142         0.19226
     136 ->142         0.24896
     138 ->142         0.12411
     140 ->142         0.42142
     141 ->142         0.41533
 This state for optimization and/or second-order correction.
 Total Energy, E(TD-HF/TD-DFT) =  -2132.58600532
 Copying the excited state density for this state as the 1-particle RhoCI density.

 Excited state symmetry could not be determined.
 Excited State   2:      Triplet-?Sym    2.4082 eV  514.84 nm  f=0.0000  <S**2>=2.000
     136 ->142        -0.16748
     138 ->142         0.55690
     139 ->142        -0.32763

 Excited state symmetry could not be determined.
 Excited State   3:      Singlet-?Sym    2.8282 eV  438.39 nm  f=0.0011  <S**2>=0.000
     136 ->142        -0.11842
     138 ->142         0.57613
     139 ->142        -0.32155
     140 ->142         0.11910
     141 ->142        -0.11319

 Excited state symmetry could not be determined.
 Excited State   4:      Singlet-?Sym    2.9783 eV  416.29 nm  f=0.0534  <S**2>=0.000
     138 ->142         0.10086
     141 ->142         0.68764

 Alpha  occ. eigenvalues --  -88.91366 -19.21215 -19.20175 -19.19552 -19.17759
 Alpha  occ. eigenvalues --  -19.13726 -19.13677 -14.39748 -14.35100 -14.34932
 Alpha  occ. eigenvalues --  -10.29557 -10.29076 -10.28598 -10.27564 -10.26993
 Alpha  occ. eigenvalues --  -10.26696 -10.26577 -10.26461 -10.24918 -10.24847
 Alpha  occ. eigenvalues --  -10.24823 -10.24690 -10.22173 -10.21461 -10.20954
 Alpha  occ. eigenvalues --  -10.20821 -10.20344 -10.19925 -10.19672 -10.19248
 Alpha  occ. eigenvalues --  -10.19174 -10.19155 -10.19083 -10.19073 -10.19021
 Alpha  occ. eigenvalues --  -10.18824 -10.18786 -10.18725 -10.18163  -7.97455
 Alpha  occ. eigenvalues --   -5.93845  -5.93512  -5.93134  -1.10474  -1.09501
 Alpha  occ. eigenvalues --   -1.06834  -1.06412  -1.06149  -1.02943  -1.02019
 Alpha  occ. eigenvalues --   -0.97021  -0.87884  -0.85929  -0.85226  -0.83731
 Alpha  occ. eigenvalues --   -0.81814  -0.80494  -0.78734  -0.78199  -0.77134
 Alpha  occ. eigenvalues --   -0.75348  -0.74562  -0.74441  -0.74039  -0.72384
 Alpha  occ. eigenvalues --   -0.70708  -0.70116  -0.68429  -0.67173  -0.64301
 Alpha  occ. eigenvalues --   -0.62167  -0.61449  -0.60873  -0.60211  -0.59076
 Alpha  occ. eigenvalues --   -0.58570  -0.57630  -0.56973  -0.54769  -0.54390
 Alpha  occ. eigenvalues --   -0.53730  -0.53044  -0.52789  -0.51777  -0.51083
 Alpha  occ. eigenvalues --   -0.50549  -0.49821  -0.48013  -0.47826  -0.47333
 Alpha  occ. eigenvalues --   -0.46994  -0.46007  -0.45694  -0.45396  -0.45209
 Alpha  occ. eigenvalues --   -0.45121  -0.44976  -0.44360  -0.44146  -0.43987
 Alpha  occ. eigenvalues --   -0.43596  -0.42806  -0.42647  -0.42016  -0.41944
 Alpha  occ. eigenvalues --   -0.41782  -0.41360  -0.41003  -0.40823  -0.40282
 Alpha  occ. eigenvalues --   -0.40145  -0.39457  -0.38787  -0.38597  -0.38394
 Alpha  occ. eigenvalues --   -0.37488  -0.37201  -0.36471  -0.36273  -0.35693
 Alpha  occ. eigenvalues --   -0.35084  -0.34390  -0.34306  -0.33948  -0.32418
 Alpha  occ. eigenvalues --   -0.32117  -0.31915  -0.30957  -0.29970  -0.29004
 Alpha  occ. eigenvalues --   -0.28067  -0.26564  -0.25565  -0.25060  -0.24866
 Alpha  occ. eigenvalues --   -0.24677  -0.24518  -0.23552  -0.23162  -0.22731
 Alpha  occ. eigenvalues --   -0.21405
 Alpha virt. eigenvalues --   -0.08493  -0.02883  -0.01712  -0.00705  -0.00513
 Alpha virt. eigenvalues --   -0.00142   0.00085   0.00950   0.02337   0.03040
 Alpha virt. eigenvalues --    0.05373   0.06413   0.07120   0.09033   0.09268

 Mulliken charges:
               1
     1  C   -0.516119
     2  C    0.114960
     3  N   -0.262228
     4  N   -0.322274
     5  C    0.313945
     6  N   -0.527683
     7  C    0.570775
     8  O   -0.482247
     9  C    0.314538
    10  O   -0.477749
    11  C   -0.006386
    12  C    0.264928
    13  O   -0.594963
    14  C    0.084884
    15  C   -0.209657
    16  C   -0.191403
    17  C    0.344814
    18  C    0.329515
    19  C   -0.183930
    20  O   -0.514655
    21  C   -0.064041
    22  C   -0.066547
    23  O   -0.515703
    24  C   -0.119759
    25  C    0.223165
    26  C   -0.204866
    27  C   -0.193025
    28  C    0.384465
    29  O   -0.520778
    30  C   -0.110398
    31  C    0.134154
    32  C   -0.158182
    33  C   -0.132820
    34  C   -0.126378
    35  C   -0.128974
    36  C   -0.180544
    37  C   -0.185462
    38  C   -0.164258
    39  S    0.266929
    40  H    0.192770
    41  H    0.176826
    42  H    0.176231
    43  H    0.418273
    44  H    0.147097
    45  H    0.152504
    46  H    0.174832
    47  H    0.162190
    48  H    0.169718
    49  H    0.167213
    50  H    0.172363
    51  H    0.187088
    52  H    0.131037
    53  H    0.136266
    54  H    0.157241
    55  H    0.144951
    56  H    0.145287
    57  H    0.132788
    58  H    0.130550
    59  H    0.130576
    60  H    0.124104
    61  H    0.139983
    62  H    0.144069
 Sum of Mulliken charges =  -0.00000

 Dipole moment (field-independent basis, Debye):
    X=             -1.3348    Y=             -6.7053    Z=             -0.0745  Tot=              6.8373
 Quadrupole moment (field-independent basis, Debye-Ang):
   XX=           -198.1400   YY=           -207.3437   ZZ=           -223.9603
   XY=             29.4978   XZ=              9.8001   YZ=            -10.1294

 Normal termination of Gaussian 16 at Sat Nov  5 12:15:05 2022.
