 Gaussian 16, Revision B.01,
 Gaussian 16:  ES64L-G16RevB.01 20-Dec-2017

 -----------------------------
 #p b3lyp/6-31g(d) opt SCF=XQC
 -----------------------------

 ------------------------------
 Gaussian input prepared by ASE
 ------------------------------
 Symbolic Z-matrix:
 Charge =  0 Multiplicity = 1

 SCF Done:  E(RB3LYP) =  -2132.65895120     A.U. after   16 cycles
 SCF Done:  E(RB3LYP) =  -2132.66907694     A.U. after   13 cycles
 SCF Done:  E(RB3LYP) =  -2132.67057017     A.U. after   13 cycles
 SCF Done:  E(RB3LYP) =  -2132.67101333     A.U. after   12 cycles
 SCF Done:  E(RB3LYP) =  -2132.67114373     A.U. after   12 cycles
 SCF Done:  E(RB3LYP) =  -2132.67119856     A.U. after   10 cycles
 SCF Done:  E(RB3LYP) =  -2132.67123779     A.U. after   10 cycles
 SCF Done:  E(RB3LYP) =  -2132.67124441     A.U. after   10 cycles
 SCF Done:  E(RB3LYP) =  -2132.67124684     A.U. after    8 cycles
 SCF Done:  E(RB3LYP) =  -2132.67124775     A.U. after    8 cycles
 SCF Done:  E(RB3LYP) =  -2132.67124830     A.U. after    8 cycles
 SCF Done:  E(RB3LYP) =  -2132.67124885     A.U. after    8 cycles
 SCF Done:  E(RB3LYP) =  -2132.67124938     A.U. after    9 cycles
 SCF Done:  E(RB3LYP) =  -2132.67124975     A.U. after    8 cycles
 SCF Done:  E(RB3LYP) =  -2132.67125010     A.U. after    9 cycles
 SCF Done:  E(RB3LYP) =  -2132.67125028     A.U. after    8 cycles
 SCF Done:  E(RB3LYP) =  -2132.67125043     A.U. after    7 cycles
 SCF Done:  E(RB3LYP) =  -2132.67125048     A.U. after    7 cycles
 SCF Done:  E(RB3LYP) =  -2132.67125049     A.U. after    6 cycles
 Optimization completed.
    -- Stationary point found.

                         Standard orientation:
 ---------------------------------------------------------------------
 Center     Atomic      Atomic             Coordinates (Angstroms)
 Number     Number       Type             X           Y           Z
 ---------------------------------------------------------------------
      1          6           0       -2.588940    6.965773   -0.313827
      2          6           0       -1.831652    5.702164   -0.050346
      3          7           0       -2.037415    4.951967    0.993300
      4          7           0       -1.227281    3.846859    1.039141
      5          6           0       -0.415088    3.782291    0.018972
      6          7           0        0.493541    2.754055   -0.131541
      7          6           0        1.491820    2.737469   -1.088690
      8          8           0        1.641628    3.555446   -1.976820
      9          6           0        2.371984    1.511989   -0.788192
     10          8           0        3.335487    1.221720   -1.478135
     11          6           0        1.815470    0.900834    0.412950
     12          6           0        2.367508   -0.062777    1.207197
     13          8           0        1.736698   -0.278582    2.392694
     14          6           0        3.582672   -0.861199    0.974325
     15          6           0        4.420739   -1.161130    2.069482
     16          6           0        5.556270   -1.941484    1.896530
     17          6           0        5.867178   -2.457209    0.636536
     18          6           0        5.016987   -2.191636   -0.454861
     19          6           0        3.892747   -1.391306   -0.285795
     20          8           0        5.264211   -2.705901   -1.700729
     21          6           0        6.211102   -3.774852   -1.711827
     22          6           0        7.410759   -3.419483   -0.850383
     23          8           0        6.997347   -3.212300    0.505242
     24          6           0        0.519060    1.599704    0.805015
     25          6           0       -0.718820    0.719704    0.678565
     26          6           0       -1.010252    0.047698   -0.509820
     27          6           0       -2.136253   -0.769607   -0.627140
     28          6           0       -2.991652   -0.926410    0.470807
     29          8           0       -4.114827   -1.703956    0.477674
     30          6           0       -4.503291   -2.350800   -0.733074
     31          6           0       -5.813583   -3.066642   -0.508731
     32          6           0       -6.850123   -2.454406    0.207055
     33          6           0       -8.073014   -3.103628    0.370258
     34          6           0       -8.278575   -4.368417   -0.186766
     35          6           0       -7.250724   -4.983447   -0.901745
     36          6           0       -6.023144   -4.336257   -1.056022
     37          6           0       -2.707191   -0.258275    1.670038
     38          6           0       -1.587049    0.556721    1.765215
     39         16           0       -0.564898    5.109084   -1.124325
     40          1           0       -3.306930    7.112363    0.496743
     41          1           0       -1.920925    7.833808   -0.355476
     42          1           0       -3.133420    6.918492   -1.263926
     43          1           0        2.085015   -1.093665    2.791326
     44          1           0        4.218973   -0.730610    3.046485
     45          1           0        6.230712   -2.150052    2.720789
     46          1           0        3.269693   -1.191909   -1.146967
     47          1           0        5.738911   -4.694367   -1.339207
     48          1           0        6.499236   -3.918594   -2.755992
     49          1           0        8.142265   -4.230706   -0.825202
     50          1           0        7.892818   -2.508972   -1.229292
     51          1           0        0.564301    1.995240    1.823747
     52          1           0       -0.354332    0.155483   -1.370562
     53          1           0       -2.329755   -1.274853   -1.566243
     54          1           0       -4.606039   -1.596898   -1.528872
     55          1           0       -3.728211   -3.062482   -1.050521
     56          1           0       -6.686859   -1.474954    0.646161
     57          1           0       -8.868215   -2.621071    0.932462
     58          1           0       -9.233095   -4.872240   -0.059969
     59          1           0       -7.398714   -5.970383   -1.332063
     60          1           0       -5.220685   -4.824762   -1.604738
     61          1           0       -3.384571   -0.384991    2.508668
     62          1           0       -1.387739    1.086924    2.691781
 ---------------------------------------------------------------------

 The electronic state is 1-A.
 Alpha  occ. eigenvalues --  -88.91366 -19.21215 -19.20175 -19.19552 -19.17759
 Alpha  occ. eigenvalues --  -19.13726 -19.13677 -14.39748 -14.35100 -14.34932
 Alpha  occ. eigenvalues --  -10.29557 -10.29076 -10.28598 -10.27564 -10.26993
 Alpha  occ. eigenvalues --  -10.26696 -10.26577 -10.26461 -10.24918 -10.24847
 Alpha  occ. eigenvalues --  -10.24823 -10.24690 -10.22173 -10.21461 -10.20954
 Alpha  occ. eigenvalues --  -10.20821 -10.20345 -10.19925 -10.19672 -10.19248
 Alpha  occ. eigenvalues --  -10.19174 -10.19155 -10.19083 -10.19073 -10.19021
 Alpha  occ. eigenvalues --  -10.18824 -10.18786 -10.18725 -10.18163  -7.97455
 Alpha  occ. eigenvalues --   -5.93845  -5.93512  -5.93134  -1.10474  -1.09501
 Alpha  occ. eigenvalues --   -1.06834  -1.06412  -1.06149  -1.02943  -1.02019
 Alpha  occ. eigenvalues --   -0.97021  -0.87884  -0.85928  -0.85226  -0.83731
 Alpha  occ. eigenvalues --   -0.81814  -0.80494  -0.78734  -0.78199  -0.77134
 Alpha  occ. eigenvalues --   -0.75348  -0.74562  -0.74441  -0.74039  -0.72384
 Alpha  occ. eigenvalues --   -0.70709  -0.70116  -0.68429  -0.67173  -0.64301
 Alpha  occ. eigenvalues --   -0.62166  -0.61449  -0.60873  -0.60211  -0.59076
 Alpha  occ. eigenvalues --   -0.58570  -0.57630  -0.56973  -0.54769  -0.54390
 Alpha  occ. eigenvalues --   -0.53730  -0.53044  -0.52789  -0.51776  -0.51084
 Alpha  occ. eigenvalues --   -0.50549  -0.49821  -0.48013  -0.47826  -0.47333
 Alpha  occ. eigenvalues --   -0.46994  -0.46007  -0.45694  -0.45396  -0.45209
 Alpha  occ. eigenvalues --   -0.45121  -0.44976  -0.44360  -0.44146  -0.43987
 Alpha  occ. eigenvalues --   -0.43596  -0.42806  -0.42647  -0.42016  -0.41944
 Alpha  occ. eigenvalues --   -0.41782  -0.41360  -0.41003  -0.40823  -0.40282
 Alpha  occ. eigenvalues --   -0.40145  -0.39457  -0.38787  -0.38597  -0.38394
 Alpha  occ. eigenvalues --   -0.37488  -0.37201  -0.36471  -0.36273  -0.35693
 Alpha  occ. eigenvalues --   -0.35084  -0.34390  -0.34306  -0.33949  -0.32418
 Alpha  occ. eigenvalues --   -0.32117  -0.31915  -0.30957  -0.29970  -0.29004
 Alpha  occ. eigenvalues --   -0.28067  -0.26564  -0.25565  -0.25060  -0.24866
 Alpha  occ. eigenvalues --   -0.24677  -0.24518  -0.23552  -0.23162  -0.22731
 Alpha  occ. eigenvalues --   -0.21405
 Alpha virt. eigenvalues --   -0.08493  -0.02883  -0.01712  -0.00705  -0.00513
 Alpha virt. eigenvalues --   -0.00142   0.00085   0.00950   0.02337   0.03040
 Alpha virt. eigenvalues --    0.05373   0.06413   0.07119   0.09033   0.09269

 Mulliken charges:
               1
     1  C   -0.516116
     2  C    0.114948
     3  N   -0.262221
     4  N   -0.322288
     5  C    0.313956
     6  N   -0.527677
     7  C    0.570771
     8  O   -0.482247
     9  C    0.314555
    10  O   -0.477753
    11  C   -0.006418
    12  C    0.264956
    13  O   -0.594970
    14  C    0.084863
    15  C   -0.209663
    16  C   -0.191403
    17  C    0.344808
    18  C    0.329513
    19  C   -0.183919
    20  O   -0.514651
    21  C   -0.064044
    22  C   -0.066550
    23  O   -0.515698
    24  C   -0.119738
    25  C    0.223159
    26  C   -0.204867
    27  C   -0.193013
    28  C    0.384447
    29  O   -0.520775
    30  C   -0.110399
    31  C    0.134166
    32  C   -0.158197
    33  C   -0.132807
    34  C   -0.126383
    35  C   -0.128977
    36  C   -0.180543
    37  C   -0.185463
    38  C   -0.164253
    39  S    0.266929
    40  H    0.192770
    41  H    0.176826
    42  H    0.176231
    43  H    0.418274
    44  H    0.147098
    45  H    0.152504
    46  H    0.174832
    47  H    0.162191
    48  H    0.169719
    49  H    0.167214
    50  H    0.172365
    51  H    0.187087
    52  H    0.131036
    53  H    0.136266
    54  H    0.157240
    55  H    0.144951
    56  H    0.145289
    57  H    0.132785
    58  H    0.130551
    59  H    0.130576
    60  H    0.124102
    61  H    0.139984
    62  H    0.144070
 Sum of Mulliken charges =  -0.00000

 Dipole moment (field-independent basis, Debye):
    X=              2.1855    Y=             -6.4355    Z=              0.7460  Tot=              6.8373
 Quadrupole moment (field-independent basis, Debye-Ang):
   XX=           -192.1095   YY=           -207.0600   ZZ=           -225.7708
   XY=            -25.4864   XZ=             11.5183   YZ=              8.5393

 Normal termination of Gaussian 16 at Fri Nov  4 21:06:57 2022.
