 Gaussian 16, Revision B.01,
 Gaussian 16:  ES64L-G16RevB.01 20-Dec-2017

 -----------------------------
 #p b3lyp/6-31g(d) opt SCF=XQC
 -----------------------------

 ------------------------------
 Gaussian input prepared by ASE
 ------------------------------
 Symbolic Z-matrix:
 Charge =  0 Multiplicity = 1

 SCF Done:  E(RB3LYP) =  -1678.02349251     A.U. after   14 cycles
 SCF Done:  E(RB3LYP) =  -1678.02929031     A.U. after   12 cycles
 SCF Done:  E(RB3LYP) =  -1678.02943320     A.U. after   10 cycles
 SCF Done:  E(RB3LYP) =  -1678.02944468     A.U. after    8 cycles
 Optimization completed.
    -- Stationary point found.

                         Standard orientation:
 ---------------------------------------------------------------------
 Center     Atomic      Atomic             Coordinates (Angstroms)
 Number     Number       Type             X           Y           Z
 ---------------------------------------------------------------------
      1          6           0       -6.036008   -3.534200   -0.000000
      2          6           0       -7.233413   -2.833491   -0.000000
      3          6           0       -7.244860   -1.424522    0.000000
      4          6           0       -8.473173   -0.680217    0.000000
      5          6           0       -8.473173    0.680217    0.000000
      6          6           0       -7.244860    1.424522    0.000000
      7          6           0       -7.233413    2.833491    0.000000
      8          6           0       -6.036008    3.534200    0.000000
      9          6           0       -4.817367    2.848538    0.000000
     10          6           0       -4.787464    1.452814    0.000000
     11          6           0       -3.513127    0.727665    0.000000
     12          7           0       -2.387611    1.415280    0.000000
     13          6           0       -1.213488    0.723773    0.000000
     14          6           0        0.000000    1.420789    0.000000
     15          6           0        1.213488    0.723773    0.000000
     16          7           0        2.387611    1.415280    0.000000
     17          6           0        3.513127    0.727665    0.000000
     18          6           0        4.787464    1.452814    0.000000
     19          6           0        4.817367    2.848538    0.000000
     20          6           0        6.036008    3.534200   -0.000000
     21          6           0        7.233413    2.833491   -0.000000
     22          6           0        7.244860    1.424522   -0.000000
     23          6           0        8.473173    0.680217   -0.000000
     24          6           0        8.473173   -0.680217   -0.000000
     25          6           0        7.244860   -1.424522    0.000000
     26          6           0        7.233413   -2.833491    0.000000
     27          6           0        6.036008   -3.534200    0.000000
     28          6           0        4.817367   -2.848538    0.000000
     29          6           0        4.787464   -1.452814    0.000000
     30          6           0        3.513127   -0.727665    0.000000
     31          7           0        2.387611   -1.415280   -0.000000
     32          6           0        1.213488   -0.723773   -0.000000
     33          6           0        0.000000   -1.420789   -0.000000
     34          6           0       -1.213488   -0.723773   -0.000000
     35          7           0       -2.387611   -1.415280   -0.000000
     36          6           0       -3.513127   -0.727665   -0.000000
     37          6           0       -4.787464   -1.452814   -0.000000
     38          6           0       -4.817367   -2.848538   -0.000000
     39          6           0       -6.005790   -0.719738    0.000000
     40          6           0       -6.005790    0.719738    0.000000
     41          6           0        6.005790   -0.719738    0.000000
     42          6           0        6.005790    0.719738   -0.000000
     43          1           0       -6.042074   -4.620591   -0.000000
     44          1           0       -8.181135   -3.366586   -0.000000
     45          1           0       -9.410007   -1.231875    0.000000
     46          1           0       -9.410007    1.231875    0.000000
     47          1           0       -8.181135    3.366586    0.000000
     48          1           0       -6.042075    4.620591   -0.000000
     49          1           0       -3.875226    3.385122   -0.000000
     50          1           0        0.000000    2.505346    0.000000
     51          1           0        3.875226    3.385122    0.000000
     52          1           0        6.042074    4.620591   -0.000000
     53          1           0        8.181135    3.366586   -0.000000
     54          1           0        9.410007    1.231875   -0.000000
     55          1           0        9.410007   -1.231875   -0.000000
     56          1           0        8.181135   -3.366586    0.000000
     57          1           0        6.042075   -4.620591    0.000000
     58          1           0        3.875226   -3.385122    0.000000
     59          1           0       -0.000000   -2.505346   -0.000000
     60          1           0       -3.875226   -3.385122   -0.000000
 ---------------------------------------------------------------------

 The electronic state is 1-A.
 Alpha  occ. eigenvalues --  -14.34314 -14.34314 -14.34314 -14.34314 -10.24391
 Alpha  occ. eigenvalues --  -10.24390 -10.24355 -10.24355 -10.23437 -10.23436
 Alpha  occ. eigenvalues --  -10.23400 -10.23399 -10.20839 -10.20839 -10.20799
 Alpha  occ. eigenvalues --  -10.20799 -10.20561 -10.20561 -10.20561 -10.20561
 Alpha  occ. eigenvalues --  -10.20471 -10.20471 -10.20470 -10.20470 -10.19947
 Alpha  occ. eigenvalues --  -10.19947 -10.19947 -10.19947 -10.19833 -10.19833
 Alpha  occ. eigenvalues --  -10.19761 -10.19761 -10.19676 -10.19676 -10.19676
 Alpha  occ. eigenvalues --  -10.19676 -10.19653 -10.19653 -10.19430 -10.19430
 Alpha  occ. eigenvalues --  -10.19430 -10.19430  -0.98480  -0.97905  -0.91637
 Alpha  occ. eigenvalues --   -0.91297  -0.89514  -0.89304  -0.85404  -0.85352
 Alpha  occ. eigenvalues --   -0.85316  -0.82638  -0.81183  -0.79848  -0.79155
 Alpha  occ. eigenvalues --   -0.77714  -0.76870  -0.75760  -0.74853  -0.73546
 Alpha  occ. eigenvalues --   -0.73025  -0.72895  -0.71672  -0.69679  -0.66457
 Alpha  occ. eigenvalues --   -0.66110  -0.63476  -0.63349  -0.63051  -0.63029
 Alpha  occ. eigenvalues --   -0.62178  -0.60804  -0.60323  -0.59115  -0.58179
 Alpha  occ. eigenvalues --   -0.55332  -0.54590  -0.54478  -0.53967  -0.53497
 Alpha  occ. eigenvalues --   -0.52746  -0.51684  -0.50853  -0.49927  -0.48758
 Alpha  occ. eigenvalues --   -0.47851  -0.47359  -0.47279  -0.46565  -0.46441
 Alpha  occ. eigenvalues --   -0.44952  -0.44426  -0.44397  -0.43760  -0.43757
 Alpha  occ. eigenvalues --   -0.43726  -0.43277  -0.43068  -0.42979  -0.42196
 Alpha  occ. eigenvalues --   -0.41397  -0.41206  -0.40965  -0.40026  -0.39920
 Alpha  occ. eigenvalues --   -0.39732  -0.39683  -0.39361  -0.37433  -0.37433
 Alpha  occ. eigenvalues --   -0.37277  -0.37241  -0.36847  -0.36768  -0.35389
 Alpha  occ. eigenvalues --   -0.34814  -0.33936  -0.33851  -0.33450  -0.33356
 Alpha  occ. eigenvalues --   -0.33086  -0.32626  -0.30678  -0.30535  -0.30402
 Alpha  occ. eigenvalues --   -0.29777  -0.28378  -0.27821  -0.26792  -0.25533
 Alpha  occ. eigenvalues --   -0.24611  -0.24561  -0.24233  -0.23345  -0.21606
 Alpha  occ. eigenvalues --   -0.21113  -0.20634
 Alpha virt. eigenvalues --   -0.10791  -0.06217  -0.05839  -0.05288  -0.02741
 Alpha virt. eigenvalues --   -0.02475  -0.02381   0.00506   0.01018   0.02725
 Alpha virt. eigenvalues --    0.03199   0.03912   0.05443   0.06899   0.09503

 Mulliken charges:
               1
     1  C   -0.126265
     2  C   -0.207190
     3  C    0.137313
     4  C   -0.194192
     5  C   -0.194192
     6  C    0.137313
     7  C   -0.207190
     8  C   -0.126265
     9  C   -0.191655
    10  C    0.082972
    11  C    0.255744
    12  N   -0.600368
    13  C    0.315980
    14  C   -0.244600
    15  C    0.315980
    16  N   -0.600368
    17  C    0.255744
    18  C    0.082972
    19  C   -0.191655
    20  C   -0.126265
    21  C   -0.207190
    22  C    0.137313
    23  C   -0.194192
    24  C   -0.194192
    25  C    0.137313
    26  C   -0.207190
    27  C   -0.126265
    28  C   -0.191655
    29  C    0.082972
    30  C    0.255744
    31  N   -0.600368
    32  C    0.315980
    33  C   -0.244600
    34  C    0.315980
    35  N   -0.600368
    36  C    0.255744
    37  C    0.082972
    38  C   -0.191655
    39  C    0.004788
    40  C    0.004788
    41  C    0.004788
    42  C    0.004788
    43  H    0.136388
    44  H    0.134075
    45  H    0.133733
    46  H    0.133733
    47  H    0.134075
    48  H    0.136388
    49  H    0.162776
    50  H    0.156400
    51  H    0.162776
    52  H    0.136388
    53  H    0.134075
    54  H    0.133733
    55  H    0.133733
    56  H    0.134075
    57  H    0.136388
    58  H    0.162776
    59  H    0.156400
    60  H    0.162776
 Sum of Mulliken charges =  -0.00000

 Dipole moment (field-independent basis, Debye):
    X=              0.0000    Y=             -0.0000    Z=              0.0000  Tot=              0.0000
 Quadrupole moment (field-independent basis, Debye-Ang):
   XX=           -171.1777   YY=           -210.8022   ZZ=           -241.7685
   XY=              0.0000   XZ=              0.0000   YZ=             -0.0000

 1\1\GINC-NODE39\FOpt\RB3LYP\6-31G(d)\C38H18N4\WYKGROUP\04-Nov-2022\0\\
 #p b3lyp/6-31g(d) opt SCF=XQC\\Gaussian input prepared by ASE\\0,1\C,-
 5.7749511459,-3.6920970928,1.4660161144\C,-7.0176842422,-3.0990544884,
 1.2966440501\C,-7.1267117365,-1.7674822498,0.8490343188\C,-8.403290073
 9,-1.1350118369,0.6671771572\C,-8.4975390398,0.1513324239,0.2344927863
 \C,-7.3240895289,0.9264018465,-0.0571006588\C,-7.4102849375,2.25930295
 46,-0.5057331154\C,-6.2646401028,2.9913563511,-0.7820801984\C,-5.00177
 06702,2.413773621,-0.6184421906\C,-4.8752540731,1.095796572,-0.1758694

 Normal termination of Gaussian 16 at Fri Nov  4 23:42:13 2022.
