 Gaussian 16, Revision B.01,
 Gaussian 16:  ES64L-G16RevB.01 20-Dec-2017

 -------------------------------------------------------------------
 #p b3lyp/6-31g(d) 6D 10F nosymm GFInput td=(50-50,nstate=2) SCF=XQC
 -------------------------------------------------------------------

 ------------------------------
 Gaussian input prepared by ASE
 ------------------------------
 Symbolic Z-matrix:
 Charge =  0 Multiplicity = 1

                          Input orientation:
 ---------------------------------------------------------------------
 Center     Atomic      Atomic             Coordinates (Angstroms)
 Number     Number       Type             X           Y           Z
 ---------------------------------------------------------------------
      1          6           0       -5.774951   -3.692097    1.466016
      2          6           0       -7.017684   -3.099054    1.296644
      3          6           0       -7.126712   -1.767482    0.849034
      4          6           0       -8.403290   -1.135012    0.667177
      5          6           0       -8.497539    0.151332    0.234493
      6          6           0       -7.324090    0.926402   -0.057101
      7          6           0       -7.410285    2.259303   -0.505733
      8          6           0       -6.264640    2.991356   -0.782080
      9          6           0       -5.001771    2.413774   -0.618442
     10          6           0       -4.875254    1.095797   -0.175869
     11          6           0       -3.554102    0.484111   -0.002161
     12          7           0       -2.479247    1.199610   -0.271132
     13          6           0       -1.260370    0.613917   -0.103646
     14          6           0       -0.098430    1.343412   -0.379537
     15          6           0        1.160086    0.754795   -0.212058
     16          7           0        2.283150    1.476796   -0.484438
     17          6           0        3.453279    0.891962   -0.316020
     18          6           0        4.673956    1.651590   -0.603576
     19          6           0        4.607085    2.973038   -1.048821
     20          6           0        5.774951    3.692097   -1.321331
     21          6           0        7.017684    3.099054   -1.151959
     22          6           0        7.126712    1.767482   -0.704349
     23          6           0        8.403290    1.135012   -0.522492
     24          6           0        8.497539   -0.151332   -0.089807
     25          6           0        7.324089   -0.926402    0.201786
     26          6           0        7.410285   -2.259303    0.650419
     27          6           0        6.264640   -2.991356    0.926766
     28          6           0        5.001771   -2.413774    0.763128
     29          6           0        4.875254   -1.095797    0.320555
     30          6           0        3.554102   -0.484111    0.146846
     31          7           0        2.479247   -1.199610    0.415817
     32          6           0        1.260370   -0.613917    0.248332
     33          6           0        0.098430   -1.343412    0.524223
     34          6           0       -1.160087   -0.754795    0.356744
     35          7           0       -2.283150   -1.476796    0.629124
     36          6           0       -3.453279   -0.891962    0.460705
     37          6           0       -4.673956   -1.651590    0.748262
     38          6           0       -4.607085   -2.973038    1.193506
     39          6           0       -5.939796   -1.029157    0.569530
     40          6           0       -6.039521    0.331925    0.111706
     41          6           0        6.039521   -0.331925    0.032979
     42          6           0        5.939796    1.029157   -0.424845
     43          1           0       -5.705737   -4.719675    1.811812
     44          1           0       -7.925928   -3.658129    1.508528
     45          1           0       -9.299389   -1.711006    0.884479
     46          1           0       -9.470074    0.618567    0.100887
     47          1           0       -8.392393    2.708353   -0.632949
     48          1           0       -6.345954    4.018230   -1.127335
     49          1           0       -4.099334    2.975823   -0.831187
     50          1           0       -0.173567    2.368904   -0.724479
     51          1           0        3.630301    3.425711   -1.177395
     52          1           0        5.705737    4.719675   -1.667127
     53          1           0        7.925928    3.658128   -1.363843
     54          1           0        9.299389    1.711006   -0.739794
     55          1           0        9.470074   -0.618567    0.043799
     56          1           0        8.392393   -2.708353    0.777635
     57          1           0        6.345954   -4.018230    1.272020
     58          1           0        4.099334   -2.975823    0.975873
     59          1           0        0.173567   -2.368904    0.869165
     60          1           0       -3.630301   -3.425711    1.322081
 ---------------------------------------------------------------------

 SCF Done:  E(RB3LYP) =  -1678.02946453     A.U. after   14 cycles

 Excitation energies and oscillator strengths:

 Excited state symmetry could not be determined.
 Excited State   1:      Triplet-?Sym    1.4111 eV  878.65 nm  f=0.0000  <S**2>=2.000
     133 ->138        -0.15536
     136 ->138         0.67001
     137 ->139        -0.10493
     136 <-138         0.12371
 This state for optimization and/or second-order correction.
 Total Energy, E(TD-HF/TD-DFT) =  -1677.97760856
 Copying the excited state density for this state as the 1-particle RhoCI density.

 Excited state symmetry could not be determined.
 Excited State   2:      Triplet-?Sym    1.8923 eV  655.19 nm  f=0.0000  <S**2>=2.000
     130 ->138        -0.10452
     135 ->140         0.10811
     137 ->138         0.68263

 Excited state symmetry could not be determined.
 Excited State   3:      Singlet-?Sym    2.3240 eV  533.49 nm  f=0.5779  <S**2>=0.000
     137 ->138         0.69801

 Excited state symmetry could not be determined.
 Excited State   4:      Singlet-?Sym    2.5717 eV  482.12 nm  f=0.0000  <S**2>=0.000
     135 ->138         0.70066

 Alpha  occ. eigenvalues --  -14.34314 -14.34314 -14.34314 -14.34314 -10.24391
 Alpha  occ. eigenvalues --  -10.24390 -10.24355 -10.24355 -10.23437 -10.23436
 Alpha  occ. eigenvalues --  -10.23400 -10.23399 -10.20839 -10.20839 -10.20799
 Alpha  occ. eigenvalues --  -10.20799 -10.20561 -10.20561 -10.20561 -10.20561
 Alpha  occ. eigenvalues --  -10.20471 -10.20471 -10.20470 -10.20470 -10.19947
 Alpha  occ. eigenvalues --  -10.19947 -10.19947 -10.19947 -10.19833 -10.19833
 Alpha  occ. eigenvalues --  -10.19761 -10.19761 -10.19676 -10.19676 -10.19676
 Alpha  occ. eigenvalues --  -10.19676 -10.19653 -10.19653 -10.19430 -10.19430
 Alpha  occ. eigenvalues --  -10.19430 -10.19430  -0.98480  -0.97905  -0.91637
 Alpha  occ. eigenvalues --   -0.91297  -0.89514  -0.89304  -0.85404  -0.85352
 Alpha  occ. eigenvalues --   -0.85316  -0.82638  -0.81183  -0.79848  -0.79155
 Alpha  occ. eigenvalues --   -0.77714  -0.76871  -0.75760  -0.74853  -0.73546
 Alpha  occ. eigenvalues --   -0.73025  -0.72895  -0.71672  -0.69679  -0.66457
 Alpha  occ. eigenvalues --   -0.66110  -0.63476  -0.63349  -0.63051  -0.63029
 Alpha  occ. eigenvalues --   -0.62178  -0.60804  -0.60323  -0.59115  -0.58179
 Alpha  occ. eigenvalues --   -0.55332  -0.54590  -0.54478  -0.53967  -0.53497
 Alpha  occ. eigenvalues --   -0.52746  -0.51684  -0.50854  -0.49927  -0.48758
 Alpha  occ. eigenvalues --   -0.47851  -0.47359  -0.47279  -0.46565  -0.46441
 Alpha  occ. eigenvalues --   -0.44952  -0.44426  -0.44397  -0.43760  -0.43757
 Alpha  occ. eigenvalues --   -0.43726  -0.43277  -0.43068  -0.42980  -0.42196
 Alpha  occ. eigenvalues --   -0.41397  -0.41206  -0.40965  -0.40026  -0.39920
 Alpha  occ. eigenvalues --   -0.39732  -0.39683  -0.39361  -0.37434  -0.37433
 Alpha  occ. eigenvalues --   -0.37277  -0.37241  -0.36847  -0.36768  -0.35389
 Alpha  occ. eigenvalues --   -0.34814  -0.33936  -0.33851  -0.33450  -0.33356
 Alpha  occ. eigenvalues --   -0.33087  -0.32626  -0.30678  -0.30535  -0.30402
 Alpha  occ. eigenvalues --   -0.29777  -0.28378  -0.27821  -0.26792  -0.25533
 Alpha  occ. eigenvalues --   -0.24611  -0.24561  -0.24233  -0.23345  -0.21606
 Alpha  occ. eigenvalues --   -0.21113  -0.20634
 Alpha virt. eigenvalues --   -0.10791  -0.06217  -0.05839  -0.05287  -0.02741
 Alpha virt. eigenvalues --   -0.02475  -0.02381   0.00506   0.01018   0.02725
 Alpha virt. eigenvalues --    0.03199   0.03912   0.05443   0.06899   0.09503

 Mulliken charges:
               1
     1  C   -0.126268
     2  C   -0.207186
     3  C    0.137307
     4  C   -0.194192
     5  C   -0.194195
     6  C    0.137304
     7  C   -0.207185
     8  C   -0.126268
     9  C   -0.191657
    10  C    0.082968
    11  C    0.255740
    12  N   -0.600368
    13  C    0.315987
    14  C   -0.244600
    15  C    0.315973
    16  N   -0.600368
    17  C    0.255742
    18  C    0.082969
    19  C   -0.191656
    20  C   -0.126268
    21  C   -0.207186
    22  C    0.137307
    23  C   -0.194192
    24  C   -0.194195
    25  C    0.137304
    26  C   -0.207185
    27  C   -0.126268
    28  C   -0.191657
    29  C    0.082968
    30  C    0.255740
    31  N   -0.600368
    32  C    0.315987
    33  C   -0.244600
    34  C    0.315973
    35  N   -0.600368
    36  C    0.255742
    37  C    0.082969
    38  C   -0.191656
    39  C    0.004800
    40  C    0.004804
    41  C    0.004804
    42  C    0.004800
    43  H    0.136389
    44  H    0.134075
    45  H    0.133733
    46  H    0.133734
    47  H    0.134075
    48  H    0.136389
    49  H    0.162777
    50  H    0.156399
    51  H    0.162777
    52  H    0.136389
    53  H    0.134075
    54  H    0.133733
    55  H    0.133734
    56  H    0.134075
    57  H    0.136389
    58  H    0.162777
    59  H    0.156399
    60  H    0.162777
 Sum of Mulliken charges =  -0.00000

 Dipole moment (field-independent basis, Debye):
    X=              0.0000    Y=              0.0000    Z=             -0.0000  Tot=              0.0000
 Quadrupole moment (field-independent basis, Debye-Ang):
   XX=           -171.4075   YY=           -213.8453   ZZ=           -238.4953
   XY=              2.0581   XZ=             -2.4625   YZ=             -9.4956

 Normal termination of Gaussian 16 at Sat Nov  5 10:14:55 2022.
