 Gaussian 16, Revision B.01,
 Gaussian 16:  ES64L-G16RevB.01 20-Dec-2017

 -------------------------------------------------------------------
 #p b3lyp/6-31g(d) 6D 10F nosymm GFInput td=(50-50,nstate=2) SCF=XQC
 -------------------------------------------------------------------

 ------------------------------
 Gaussian input prepared by ASE
 ------------------------------
 Symbolic Z-matrix:
 Charge =  0 Multiplicity = 1

                          Input orientation:
 ---------------------------------------------------------------------
 Center     Atomic      Atomic             Coordinates (Angstroms)
 Number     Number       Type             X           Y           Z
 ---------------------------------------------------------------------
      1          6           0        0.815702   -3.991940    0.225861
      2          8           0        1.021240   -2.627078   -0.105613
      3          6           0        2.019444   -1.933404    0.504234
      4          6           0        2.741756   -2.491404    1.592728
      5          6           0        3.823768   -1.834418    2.118940
      6          6           0        4.248170   -0.595298    1.584511
      7          6           0        5.416533    0.048290    2.076949
      8          6           0        5.857108    1.231258    1.533103
      9          6           0        5.117838    1.827658    0.484967
     10          6           0        3.967561    1.242567    0.006942
     11          6           0        3.491479   -0.000640    0.518393
     12          6           0        2.327398   -0.672736   -0.008519
     13          6           0        1.604341   -0.046571   -1.177568
     14          6           0        0.308169    0.496241   -1.154931
     15          6           0       -0.848203    0.157110   -0.235033
     16          6           0       -1.531543   -1.042926   -0.483300
     17          6           0       -2.679484   -1.413428    0.294949
     18          6           0       -3.360112   -0.497755    1.079762
     19          6           0       -4.551470   -0.873508    2.010749
     20          6           0       -5.908347   -0.802543    1.267220
     21          6           0       -4.580981    0.027513    3.275423
     22          6           0       -4.400797   -2.310787    2.576903
     23          6           0       -2.911834    0.865830    0.941894
     24          6           0       -3.840976    1.958737    1.007745
     25          6           0       -3.467917    3.233728    0.702264
     26          6           0       -2.085763    3.567121    0.612458
     27          6           0       -1.678074    4.935353    0.532137
     28          6           0       -0.376763    5.291403    0.723363
     29          6           0        0.574028    4.308327    1.134058
     30          6           0        1.822444    4.701415    1.672465
     31          6           0        2.647827    3.784466    2.287343
     32          6           0        2.258271    2.432279    2.353675
     33          6           0        1.086111    2.007155    1.761219
     34          6           0        0.208336    2.921891    1.128671
     35          6           0       -1.120334    2.536655    0.704926
     36          6           0       -1.571077    1.153756    0.516171
     37          6           0       -3.090828   -2.831055   -0.076880
     38          6           0       -2.289355   -3.102501   -1.319917
     39          6           0       -2.405601   -4.186318   -2.185023
     40          6           0       -1.591676   -4.239073   -3.318715
     41          6           0       -0.682839   -3.205321   -3.567596
     42          6           0       -0.559537   -2.124006   -2.694890
     43          6           0       -1.361743   -2.066970   -1.544898
     44          6           0       -0.109943    1.322124   -2.244628
     45          6           0        0.663950    1.539361   -3.353129
     46          6           0        1.910037    0.880938   -3.486257
     47          6           0        2.684634    0.992548   -4.672527
     48          6           0        3.869919    0.310056   -4.810759
     49          6           0        4.322854   -0.519664   -3.758673
     50          6           0        3.604116   -0.627355   -2.589075
     51          6           0        2.377798    0.074880   -2.397884
     52          1           0        0.064499   -4.352418   -0.476923
     53          1           0        1.737626   -4.576070    0.110078
     54          1           0        0.439186   -4.110424    1.250785
     55          1           0        2.448545   -3.451903    1.998553
     56          1           0        4.381103   -2.274846    2.942319
     57          1           0        5.964421   -0.428095    2.887089
     58          1           0        6.759979    1.707895    1.905114
     59          1           0        5.449524    2.772284    0.062447
     60          1           0        3.406341    1.745471   -0.769438
     61          1           0       -5.912633   -1.462212    0.392288
     62          1           0       -6.147622    0.205330    0.916446
     63          1           0       -6.719597   -1.123702    1.932599
     64          1           0       -5.395310   -0.300776    3.931871
     65          1           0       -3.642246   -0.067997    3.833062
     66          1           0       -4.731812    1.086920    3.071834
     67          1           0       -5.100593   -2.439480    3.410259
     68          1           0       -3.389922   -2.484622    2.961865
     69          1           0       -4.633591   -3.088754    1.849405
     70          1           0       -4.889063    1.746860    1.165305
     71          1           0       -4.209804    4.024172    0.620751
     72          1           0       -2.440573    5.688719    0.348437
     73          1           0       -0.069181    6.333214    0.674880
     74          1           0        2.089591    5.755629    1.646510
     75          1           0        3.585310    4.101267    2.735880
     76          1           0        2.892537    1.715610    2.865183
     77          1           0        0.799601    0.963770    1.827405
     78          1           0       -2.838168   -3.549902    0.713798
     79          1           0       -4.166984   -2.930236   -0.257442
     80          1           0       -3.130303   -4.973507   -1.987939
     81          1           0       -1.672958   -5.073217   -4.010742
     82          1           0       -0.058681   -3.239059   -4.456793
     83          1           0        0.155159   -1.347839   -2.922614
     84          1           0       -1.095689    1.771837   -2.184291
     85          1           0        0.309354    2.179515   -4.157467
     86          1           0        2.309975    1.622168   -5.476334
     87          1           0        4.451473    0.396186   -5.724714
     88          1           0        5.246986   -1.079809   -3.874020
     89          1           0        3.967887   -1.273937   -1.799659
 ---------------------------------------------------------------------

 SCF Done:  E(RB3LYP) =  -2003.43550004     A.U. after   16 cycles

 Excitation energies and oscillator strengths:

 Excited state symmetry could not be determined.
 Excited State   1:      Triplet-?Sym    2.1108 eV  587.39 nm  f=0.0000  <S**2>=2.000
     171 ->177         0.11067
     172 ->177         0.15071
     173 ->174         0.60781
     173 ->175        -0.16627
 This state for optimization and/or second-order correction.
 Total Energy, E(TD-HF/TD-DFT) =  -2003.35793083
 Copying the excited state density for this state as the 1-particle RhoCI density.

 Excited state symmetry could not be determined.
 Excited State   2:      Triplet-?Sym    2.5035 eV  495.25 nm  f=0.0000  <S**2>=2.000
     170 ->174         0.18252
     170 ->175         0.17390
     170 ->176         0.25393
     170 ->177        -0.17232
     171 ->174        -0.14577
     171 ->175        -0.31256
     171 ->176         0.13946
     172 ->174         0.16502
     172 ->175         0.28024
     172 ->176        -0.15003

 Excited state symmetry could not be determined.
 Excited State   3:      Singlet-?Sym    3.1579 eV  392.61 nm  f=0.1378  <S**2>=0.000
     172 ->174        -0.18550
     173 ->174         0.64051
     173 ->175         0.17462

 Excited state symmetry could not be determined.
 Excited State   4:      Singlet-?Sym    3.2145 eV  385.70 nm  f=0.0275  <S**2>=0.000
     171 ->174         0.24484
     172 ->174         0.51543
     173 ->174         0.23443
     173 ->175        -0.22361
     173 ->176        -0.12958
     173 ->177        -0.19978

 Alpha  occ. eigenvalues --  -19.17288 -10.24770 -10.23494 -10.20813 -10.20142
 Alpha  occ. eigenvalues --  -10.19981 -10.19941 -10.19860 -10.19497 -10.19488
 Alpha  occ. eigenvalues --  -10.19453 -10.19418 -10.19313 -10.19299 -10.19146
 Alpha  occ. eigenvalues --  -10.19131 -10.19112 -10.19071 -10.18975 -10.18972
 Alpha  occ. eigenvalues --  -10.18929 -10.18887 -10.18826 -10.18584 -10.18558
 Alpha  occ. eigenvalues --  -10.18495 -10.18463 -10.18445 -10.18408 -10.18297
 Alpha  occ. eigenvalues --  -10.18292 -10.18244 -10.18228 -10.18214 -10.18189
 Alpha  occ. eigenvalues --  -10.18168 -10.18143 -10.18127 -10.18066 -10.18055
 Alpha  occ. eigenvalues --  -10.18039 -10.17809 -10.17788 -10.17696 -10.17644
 Alpha  occ. eigenvalues --  -10.17594 -10.17498 -10.17330 -10.17303 -10.17262
 Alpha  occ. eigenvalues --  -10.16863  -1.06166  -0.88594  -0.87315  -0.86834
 Alpha  occ. eigenvalues --   -0.86039  -0.84674  -0.82521  -0.82436  -0.81363
 Alpha  occ. eigenvalues --   -0.80630  -0.79714  -0.78673  -0.77762  -0.76288
 Alpha  occ. eigenvalues --   -0.75450  -0.74958  -0.74110  -0.73778  -0.72677
 Alpha  occ. eigenvalues --   -0.72565  -0.72051  -0.71060  -0.70577  -0.69690
 Alpha  occ. eigenvalues --   -0.68622  -0.68309  -0.68013  -0.67250  -0.64136
 Alpha  occ. eigenvalues --   -0.62762  -0.61939  -0.60972  -0.60722  -0.60031
 Alpha  occ. eigenvalues --   -0.59699  -0.59444  -0.59284  -0.57989  -0.57360
 Alpha  occ. eigenvalues --   -0.56466  -0.56342  -0.53853  -0.53112  -0.52652
 Alpha  occ. eigenvalues --   -0.51390  -0.51097  -0.50814  -0.50115  -0.49761
 Alpha  occ. eigenvalues --   -0.49314  -0.48555  -0.48127  -0.47493  -0.46908
 Alpha  occ. eigenvalues --   -0.46542  -0.45962  -0.45915  -0.45216  -0.44587
 Alpha  occ. eigenvalues --   -0.44125  -0.44023  -0.43758  -0.43560  -0.43178
 Alpha  occ. eigenvalues --   -0.42955  -0.42619  -0.42373  -0.42194  -0.41763
 Alpha  occ. eigenvalues --   -0.41684  -0.41296  -0.41047  -0.40936  -0.40373
 Alpha  occ. eigenvalues --   -0.40271  -0.39857  -0.39731  -0.39510  -0.39149
 Alpha  occ. eigenvalues --   -0.38788  -0.38526  -0.38358  -0.37894  -0.37732
 Alpha  occ. eigenvalues --   -0.37452  -0.37176  -0.36522  -0.36371  -0.35629
 Alpha  occ. eigenvalues --   -0.35579  -0.35137  -0.34720  -0.34354  -0.34122
 Alpha  occ. eigenvalues --   -0.34026  -0.33643  -0.33476  -0.33412  -0.33017
 Alpha  occ. eigenvalues --   -0.32733  -0.32653  -0.31901  -0.31858  -0.31433
 Alpha  occ. eigenvalues --   -0.31020  -0.30347  -0.29951  -0.29895  -0.28823
 Alpha  occ. eigenvalues --   -0.27257  -0.27162  -0.26807  -0.25366  -0.23999
 Alpha  occ. eigenvalues --   -0.23602  -0.22797  -0.22744  -0.22270  -0.20622
 Alpha  occ. eigenvalues --   -0.19718  -0.19257  -0.18501
 Alpha virt. eigenvalues --   -0.05176  -0.03858  -0.03188  -0.02707  -0.00916
 Alpha virt. eigenvalues --   -0.00251   0.00307   0.00455   0.01528   0.02849
 Alpha virt. eigenvalues --    0.03279   0.04370   0.04457   0.06929   0.07904

 Mulliken charges:
               1
     1  C   -0.227796
     2  O   -0.501866
     3  C    0.344561
     4  C   -0.196365
     5  C   -0.202256
     6  C    0.132217
     7  C   -0.196402
     8  C   -0.141881
     9  C   -0.130787
    10  C   -0.179745
    11  C    0.084058
    12  C   -0.086001
    13  C    0.010256
    14  C   -0.001285
    15  C   -0.035788
    16  C    0.068217
    17  C    0.027460
    18  C    0.030198
    19  C    0.039744
    20  C   -0.451309
    21  C   -0.454200
    22  C   -0.454979
    23  C    0.046074
    24  C   -0.178743
    25  C   -0.196224
    26  C    0.138725
    27  C   -0.196842
    28  C   -0.187743
    29  C    0.127811
    30  C   -0.201984
    31  C   -0.128968
    32  C   -0.133217
    33  C   -0.185261
    34  C    0.073724
    35  C   -0.045199
    36  C   -0.035882
    37  C   -0.430262
    38  C    0.090649
    39  C   -0.207385
    40  C   -0.133637
    41  C   -0.152025
    42  C   -0.167609
    43  C    0.107175
    44  C   -0.149892
    45  C   -0.192395
    46  C    0.141015
    47  C   -0.192125
    48  C   -0.135136
    49  C   -0.135843
    50  C   -0.173788
    51  C    0.048455
    52  H    0.189953
    53  H    0.150158
    54  H    0.145467
    55  H    0.135088
    56  H    0.131336
    57  H    0.125128
    58  H    0.125372
    59  H    0.128587
    60  H    0.155344
    61  H    0.147255
    62  H    0.153572
    63  H    0.140929
    64  H    0.134699
    65  H    0.149724
    66  H    0.154521
    67  H    0.139300
    68  H    0.146887
    69  H    0.147789
    70  H    0.132649
    71  H    0.125706
    72  H    0.126817
    73  H    0.125760
    74  H    0.122637
    75  H    0.124422
    76  H    0.139233
    77  H    0.143660
    78  H    0.169881
    79  H    0.167472
    80  H    0.118818
    81  H    0.123663
    82  H    0.127387
    83  H    0.156711
    84  H    0.144963
    85  H    0.130445
    86  H    0.127848
    87  H    0.127687
    88  H    0.127645
    89  H    0.145965
 Sum of Mulliken charges =  -0.00000

 Dipole moment (field-independent basis, Debye):
    X=             -0.3633    Y=             -2.0328    Z=              0.5426  Tot=              2.1351
 Quadrupole moment (field-independent basis, Debye-Ang):
   XX=           -272.1979   YY=           -269.1814   ZZ=           -285.5411
   XY=              1.5602   XZ=             -0.1901   YZ=             -8.0284

 Normal termination of Gaussian 16 at Sat Nov  5 10:36:37 2022.
