 Gaussian 16, Revision B.01,
 Gaussian 16:  ES64L-G16RevB.01 20-Dec-2017

 -----------------------------
 #p b3lyp/6-31g(d) opt SCF=XQC
 -----------------------------

 ------------------------------
 Gaussian input prepared by ASE
 ------------------------------
 Symbolic Z-matrix:
 Charge =  0 Multiplicity = 1

 SCF Done:  E(RB3LYP) =  -2003.41732804     A.U. after   16 cycles
 SCF Done:  E(RB3LYP) =  -2003.40780369     A.U. after   14 cycles
 SCF Done:  E(RB3LYP) =  -2003.43162164     A.U. after   13 cycles
 SCF Done:  E(RB3LYP) =  -2003.32360753     A.U. after   16 cycles
 SCF Done:  E(RB3LYP) =  -2003.42985121     A.U. after   13 cycles
 SCF Done:  E(RB3LYP) =  -2003.43279753     A.U. after   10 cycles
 SCF Done:  E(RB3LYP) =  -2003.43431940     A.U. after   13 cycles
 SCF Done:  E(RB3LYP) =  -2003.43424591     A.U. after   13 cycles
 SCF Done:  E(RB3LYP) =  -2003.43441710     A.U. after   12 cycles
 SCF Done:  E(RB3LYP) =  -2003.43447386     A.U. after   12 cycles
 SCF Done:  E(RB3LYP) =  -2003.43546822     A.U. after   11 cycles
 SCF Done:  E(RB3LYP) =  -2003.43548242     A.U. after   11 cycles
 SCF Done:  E(RB3LYP) =  -2003.43549418     A.U. after   10 cycles
 SCF Done:  E(RB3LYP) =  -2003.43549703     A.U. after    8 cycles
 SCF Done:  E(RB3LYP) =  -2003.43549753     A.U. after    7 cycles
 SCF Done:  E(RB3LYP) =  -2003.43549774     A.U. after    8 cycles
 SCF Done:  E(RB3LYP) =  -2003.43549780     A.U. after    7 cycles
 SCF Done:  E(RB3LYP) =  -2003.43549786     A.U. after    6 cycles
 SCF Done:  E(RB3LYP) =  -2003.43549790     A.U. after    7 cycles
 SCF Done:  E(RB3LYP) =  -2003.43549793     A.U. after    6 cycles
 Optimization completed.
    -- Stationary point found.

                         Standard orientation:
 ---------------------------------------------------------------------
 Center     Atomic      Atomic             Coordinates (Angstroms)
 Number     Number       Type             X           Y           Z
 ---------------------------------------------------------------------
      1          6           0       -0.352090   -3.423974    2.367329
      2          8           0        0.191983   -2.443916    1.496444
      3          6           0        1.207800   -1.651576    1.932125
      4          6           0        1.613019   -1.660462    3.293608
      5          6           0        2.714836   -0.950864    3.695787
      6          6           0        3.474624   -0.204748    2.764560
      7          6           0        4.662083    0.466905    3.165303
      8          6           0        5.426843    1.158390    2.256304
      9          6           0        5.007217    1.222369    0.907000
     10          6           0        3.847526    0.606122    0.495497
     11          6           0        3.040653   -0.149414    1.396563
     12          6           0        1.856590   -0.863330    0.980928
     13          6           0        1.477974   -0.836530   -0.481092
     14          6           0        0.342022   -0.218113   -1.030995
     15          6           0       -0.989922    0.081264   -0.371665
     16          6           0       -1.868053   -0.997294   -0.186538
     17          6           0       -3.176401   -0.797076    0.369206
     18          6           0       -3.758355    0.457404    0.441672
     19          6           0       -5.133648    0.734816    1.119074
     20          6           0       -6.309512    0.569605    0.124570
     21          6           0       -5.166480    2.147194    1.764224
     22          6           0       -5.386810   -0.228068    2.309774
     23          6           0       -3.010974    1.507324   -0.205177
     24          6           0       -3.681472    2.578703   -0.886842
     25          6           0       -2.999370    3.476508   -1.652856
     26          6           0       -1.581295    3.565652   -1.549497
     27          6           0       -0.881065    4.652987   -2.159499
     28          6           0        0.419873    4.911965   -1.847661
     29          6           0        1.060115    4.172386   -0.807360
     30          6           0        2.263569    4.643782   -0.230796
     31          6           0        2.765141    4.077451    0.921516
     32          6           0        2.088038    2.994833    1.516525
     33          6           0        0.959664    2.460413    0.927578
     34          6           0        0.409891    3.021681   -0.251436
     35          6           0       -0.887217    2.623558   -0.753772
     36          6           0       -1.589882    1.392824   -0.375937
     37          6           0       -3.819844   -2.154104    0.617360
     38          6           0       -2.910764   -3.100610   -0.116726
     39          6           0       -3.120485   -4.452389   -0.372249
     40          6           0       -2.169461   -5.157782   -1.112848
     41          6           0       -1.031790   -4.496829   -1.587630
     42          6           0       -0.816999   -3.144138   -1.322765
     43          6           0       -1.758365   -2.428149   -0.567477
     44          6           0        0.287888   -0.013585   -2.445059
     45          6           0        1.254524   -0.470553   -3.300437
     46          6           0        2.334639   -1.238212   -2.802415
     47          6           0        3.291408   -1.824943   -3.674215
     48          6           0        4.308537   -2.609143   -3.184028
     49          6           0        4.401310   -2.839717   -1.791656
     50          6           0        3.501842   -2.264141   -0.922283
     51          6           0        2.441105   -1.431854   -1.386699
     52          1           0       -1.043492   -4.004658    1.756654
     53          1           0        0.428863   -4.083751    2.766535
     54          1           0       -0.901333   -2.967986    3.202002
     55          1           0        1.059866   -2.246975    4.016968
     56          1           0        3.027965   -0.974496    4.736914
     57          1           0        4.960439    0.406826    4.209728
     58          1           0        6.341350    1.655382    2.568437
     59          1           0        5.596656    1.782658    0.186239
     60          1           0        3.536735    0.707390   -0.535909
     61          1           0       -6.318428   -0.435931   -0.310751
     62          1           0       -6.268026    1.282732   -0.703581
     63          1           0       -7.265004    0.718392    0.643121
     64          1           0       -6.125075    2.285710    2.277779
     65          1           0       -4.369758    2.243504    2.510726
     66          1           0       -5.051744    2.968942    1.058456
     67          1           0       -6.219785    0.158058    2.907953
     68          1           0       -4.510330   -0.293757    2.963800
     69          1           0       -5.664586   -1.235691    1.999585
     70          1           0       -4.762018    2.591246   -0.908396
     71          1           0       -3.531402    4.193978   -2.272549
     72          1           0       -1.424915    5.289465   -2.853640
     73          1           0        0.948318    5.746588   -2.302056
     74          1           0        2.752179    5.504808   -0.681687
     75          1           0        3.666576    4.472241    1.381926
     76          1           0        2.464758    2.568968    2.440792
     77          1           0        0.448412    1.631050    1.402869
     78          1           0       -3.855207   -2.399434    1.687086
     79          1           0       -4.850118   -2.212248    0.248977
     80          1           0       -4.019448   -4.948314   -0.012212
     81          1           0       -2.318867   -6.212258   -1.329785
     82          1           0       -0.297940   -5.041990   -2.175546
     83          1           0        0.074753   -2.671997   -1.706099
     84          1           0       -0.574829    0.510067   -2.843916
     85          1           0        1.176831   -0.288378   -4.369676
     86          1           0        3.192025   -1.649331   -4.742943
     87          1           0        5.031024   -3.059398   -3.859467
     88          1           0        5.189489   -3.478963   -1.402778
     89          1           0        3.589334   -2.460345    0.139519
 ---------------------------------------------------------------------

 The electronic state is 1-A.
 Alpha  occ. eigenvalues --  -19.17288 -10.24770 -10.23495 -10.20813 -10.20143
 Alpha  occ. eigenvalues --  -10.19981 -10.19941 -10.19860 -10.19497 -10.19488
 Alpha  occ. eigenvalues --  -10.19453 -10.19419 -10.19313 -10.19298 -10.19146
 Alpha  occ. eigenvalues --  -10.19131 -10.19113 -10.19070 -10.18975 -10.18972
 Alpha  occ. eigenvalues --  -10.18930 -10.18887 -10.18826 -10.18584 -10.18558
 Alpha  occ. eigenvalues --  -10.18495 -10.18463 -10.18445 -10.18408 -10.18297
 Alpha  occ. eigenvalues --  -10.18292 -10.18244 -10.18228 -10.18214 -10.18189
 Alpha  occ. eigenvalues --  -10.18168 -10.18143 -10.18127 -10.18066 -10.18055
 Alpha  occ. eigenvalues --  -10.18039 -10.17809 -10.17788 -10.17696 -10.17644
 Alpha  occ. eigenvalues --  -10.17594 -10.17498 -10.17330 -10.17303 -10.17262
 Alpha  occ. eigenvalues --  -10.16863  -1.06166  -0.88594  -0.87315  -0.86834
 Alpha  occ. eigenvalues --   -0.86039  -0.84674  -0.82521  -0.82436  -0.81364
 Alpha  occ. eigenvalues --   -0.80630  -0.79714  -0.78673  -0.77762  -0.76288
 Alpha  occ. eigenvalues --   -0.75450  -0.74958  -0.74110  -0.73778  -0.72677
 Alpha  occ. eigenvalues --   -0.72565  -0.72051  -0.71060  -0.70577  -0.69690
 Alpha  occ. eigenvalues --   -0.68622  -0.68309  -0.68013  -0.67250  -0.64136
 Alpha  occ. eigenvalues --   -0.62762  -0.61939  -0.60972  -0.60722  -0.60031
 Alpha  occ. eigenvalues --   -0.59699  -0.59444  -0.59284  -0.57989  -0.57360
 Alpha  occ. eigenvalues --   -0.56466  -0.56342  -0.53853  -0.53112  -0.52652
 Alpha  occ. eigenvalues --   -0.51390  -0.51097  -0.50814  -0.50115  -0.49760
 Alpha  occ. eigenvalues --   -0.49314  -0.48555  -0.48127  -0.47493  -0.46908
 Alpha  occ. eigenvalues --   -0.46542  -0.45962  -0.45915  -0.45216  -0.44587
 Alpha  occ. eigenvalues --   -0.44125  -0.44023  -0.43758  -0.43560  -0.43178
 Alpha  occ. eigenvalues --   -0.42955  -0.42619  -0.42373  -0.42194  -0.41763
 Alpha  occ. eigenvalues --   -0.41684  -0.41296  -0.41047  -0.40936  -0.40373
 Alpha  occ. eigenvalues --   -0.40271  -0.39857  -0.39731  -0.39510  -0.39149
 Alpha  occ. eigenvalues --   -0.38788  -0.38526  -0.38358  -0.37894  -0.37732
 Alpha  occ. eigenvalues --   -0.37452  -0.37175  -0.36522  -0.36371  -0.35629
 Alpha  occ. eigenvalues --   -0.35579  -0.35137  -0.34720  -0.34354  -0.34122
 Alpha  occ. eigenvalues --   -0.34026  -0.33643  -0.33476  -0.33412  -0.33017
 Alpha  occ. eigenvalues --   -0.32733  -0.32653  -0.31901  -0.31858  -0.31433
 Alpha  occ. eigenvalues --   -0.31020  -0.30347  -0.29951  -0.29895  -0.28823
 Alpha  occ. eigenvalues --   -0.27257  -0.27162  -0.26807  -0.25366  -0.23999
 Alpha  occ. eigenvalues --   -0.23602  -0.22797  -0.22744  -0.22270  -0.20623
 Alpha  occ. eigenvalues --   -0.19718  -0.19257  -0.18501
 Alpha virt. eigenvalues --   -0.05176  -0.03858  -0.03188  -0.02707  -0.00916
 Alpha virt. eigenvalues --   -0.00251   0.00307   0.00455   0.01528   0.02849
 Alpha virt. eigenvalues --    0.03279   0.04370   0.04457   0.06929   0.07904

 Mulliken charges:
               1
     1  C   -0.227800
     2  O   -0.501862
     3  C    0.344584
     4  C   -0.196385
     5  C   -0.202246
     6  C    0.132201
     7  C   -0.196400
     8  C   -0.141883
     9  C   -0.130796
    10  C   -0.179751
    11  C    0.084074
    12  C   -0.085981
    13  C    0.010271
    14  C   -0.001332
    15  C   -0.035726
    16  C    0.068167
    17  C    0.027510
    18  C    0.030111
    19  C    0.039759
    20  C   -0.451298
    21  C   -0.454190
    22  C   -0.454973
    23  C    0.046098
    24  C   -0.178732
    25  C   -0.196233
    26  C    0.138740
    27  C   -0.196852
    28  C   -0.187745
    29  C    0.127855
    30  C   -0.201994
    31  C   -0.128965
    32  C   -0.133213
    33  C   -0.185262
    34  C    0.073696
    35  C   -0.045203
    36  C   -0.035928
    37  C   -0.430267
    38  C    0.090663
    39  C   -0.207399
    40  C   -0.133636
    41  C   -0.152021
    42  C   -0.167648
    43  C    0.107217
    44  C   -0.149876
    45  C   -0.192399
    46  C    0.141003
    47  C   -0.192114
    48  C   -0.135137
    49  C   -0.135840
    50  C   -0.173779
    51  C    0.048439
    52  H    0.189956
    53  H    0.150159
    54  H    0.145467
    55  H    0.135090
    56  H    0.131335
    57  H    0.125129
    58  H    0.125374
    59  H    0.128590
    60  H    0.155341
    61  H    0.147253
    62  H    0.153568
    63  H    0.140928
    64  H    0.134697
    65  H    0.149723
    66  H    0.154519
    67  H    0.139300
    68  H    0.146883
    69  H    0.147787
    70  H    0.132651
    71  H    0.125706
    72  H    0.126818
    73  H    0.125761
    74  H    0.122636
    75  H    0.124420
    76  H    0.139234
    77  H    0.143662
    78  H    0.169881
    79  H    0.167472
    80  H    0.118820
    81  H    0.123662
    82  H    0.127391
    83  H    0.156715
    84  H    0.144959
    85  H    0.130445
    86  H    0.127849
    87  H    0.127685
    88  H    0.127643
    89  H    0.145966
 Sum of Mulliken charges =  -0.00000

 Dipole moment (field-independent basis, Debye):
    X=             -0.8730    Y=             -1.4287    Z=              1.3248  Tot=              2.1350
 Quadrupole moment (field-independent basis, Debye-Ang):
   XX=           -270.7147   YY=           -280.4928   ZZ=           -274.9248
   XY=              3.3478   XZ=             -1.7716   YZ=            -10.6618

 1\1\GINC-NODE48\FOpt\RB3LYP\6-31G(d)\C50H38O1\WYKGROUP\05-Nov-2022\0\\
 #p b3lyp/6-31g(d) opt SCF=XQC\\Gaussian input prepared by ASE\\0,1\C,0
 .8157019488,-3.9919395839,0.2258614785\O,1.0212398824,-2.6270776769,-0
 .1056127033\C,2.0194439643,-1.933404404,0.5042341246\C,2.7417561243,-2
 .491403552,1.592728149\C,3.8237678947,-1.834418402,2.1189398107\C,4.24
 81702404,-0.5952980002,1.5845110709\C,5.4165329999,0.0482901731,2.0769
 490672\C,5.8571076017,1.2312575637,1.5331032686\C,5.1178381229,1.82765
 80383,0.4849674285\C,3.9675605963,1.2425672522,0.0069420394\C,3.491479

 Normal termination of Gaussian 16 at Sat Nov  5 02:23:01 2022.
