 Gaussian 16, Revision B.01,
 Gaussian 16:  ES64L-G16RevB.01 20-Dec-2017

 -----------------------------
 #p b3lyp/6-31g(d) opt SCF=XQC
 -----------------------------

 ------------------------------
 Gaussian input prepared by ASE
 ------------------------------
 Symbolic Z-matrix:
 Charge =  0 Multiplicity = 1

 SCF Done:  E(RB3LYP) =  -3578.14814191     A.U. after   17 cycles
 SCF Done:  E(RB3LYP) =  -3578.16810720     A.U. after   13 cycles
 SCF Done:  E(RB3LYP) =  -3578.17758693     A.U. after   14 cycles
 SCF Done:  E(RB3LYP) =  -3578.18018180     A.U. after   13 cycles
 SCF Done:  E(RB3LYP) =  -3578.18083304     A.U. after   12 cycles
 SCF Done:  E(RB3LYP) =  -3578.18103990     A.U. after   11 cycles
 SCF Done:  E(RB3LYP) =  -3578.18113918     A.U. after   11 cycles
 SCF Done:  E(RB3LYP) =  -3578.18117529     A.U. after   11 cycles
 SCF Done:  E(RB3LYP) =  -3578.18118813     A.U. after   11 cycles
 SCF Done:  E(RB3LYP) =  -3578.18119519     A.U. after   10 cycles
 SCF Done:  E(RB3LYP) =  -3578.18119776     A.U. after   10 cycles
 SCF Done:  E(RB3LYP) =  -3578.18119888     A.U. after    9 cycles
 SCF Done:  E(RB3LYP) =  -3578.18119920     A.U. after    7 cycles
 SCF Done:  E(RB3LYP) =  -3578.18119928     A.U. after    6 cycles
 SCF Done:  E(RB3LYP) =  -3578.18119929     A.U. after    6 cycles
 Optimization completed.
    -- Stationary point found.

                         Standard orientation:
 ---------------------------------------------------------------------
 Center     Atomic      Atomic             Coordinates (Angstroms)
 Number     Number       Type             X           Y           Z
 ---------------------------------------------------------------------
      1          6           0       -5.341724    3.009301    3.585355
      2          6           0       -5.431827    1.479367    3.663352
      3          6           0       -6.854311    0.854756    3.499211
      4          6           0       -7.778226    1.375940    4.617272
      5          6           0       -7.484878    1.246256    2.140002
      6          6           0       -6.707184   -0.676811    3.567065
      7          6           0       -7.285303   -1.466118    4.572830
      8          6           0       -7.144362   -2.862817    4.633715
      9          6           0       -6.406935   -3.554484    3.680942
     10          6           0       -5.808882   -2.811641    2.657995
     11          6           0       -5.970932   -1.413813    2.627416
     12          8           0       -5.298306   -0.871104    1.543379
     13          6           0       -4.709803   -1.922245    0.882349
     14          6           0       -3.922104   -1.806065   -0.270546
     15          7           0       -3.651279   -0.548099   -0.869034
     16          6           0       -4.715219    0.308977   -1.255859
     17          6           0       -4.484605    1.688755   -1.355891
     18          6           0       -5.508337    2.561205   -1.743630
     19          6           0       -5.252772    4.022677   -1.841541
     20          6           0       -6.220644    4.955592   -1.432762
     21          6           0       -5.980520    6.325705   -1.527555
     22          6           0       -4.765995    6.793814   -2.032290
     23          6           0       -3.794166    5.878697   -2.441161
     24          6           0       -4.035263    4.508800   -2.347164
     25          6           0       -6.780957    2.036065   -2.016647
     26          6           0       -7.034339    0.661560   -1.914201
     27          6           0       -8.382894    0.113210   -2.216799
     28          6           0       -8.922002   -0.934872   -1.451708
     29          6           0      -10.187417   -1.448704   -1.731929
     30          6           0      -10.942188   -0.925719   -2.783548
     31          6           0      -10.419345    0.115637   -3.552501
     32          6           0       -9.153583    0.628699   -3.272398
     33          6           0       -5.989359   -0.196764   -1.542424
     34          6           0       -2.349740   -0.328761   -1.422294
     35          6           0       -2.197383   -0.213914   -2.809525
     36          6           0       -0.943782   -0.031185   -3.378700
     37          6           0        0.209388    0.019961   -2.579379
     38          6           0        1.518438    0.192472   -3.136141
     39          6           0        2.630335    0.227279   -2.350967
     40          6           0        2.540836    0.097507   -0.922181
     41          6           0        3.674218    0.119274   -0.071756
     42          7           0        5.000425    0.207672   -0.593192
     43          6           0        5.875124    1.209861   -0.086741
     44          6           0        7.220316    0.917607    0.176437
     45          6           0        8.083179    1.900260    0.679144
     46          6           0        9.512867    1.583798    0.935759
     47          6           0       10.184053    2.121019    2.047056
     48          6           0       11.525290    1.825689    2.286322
     49          6           0       12.225469    0.984350    1.419779
     50          6           0       11.571664    0.441800    0.312006
     51          6           0       10.230793    0.738785    0.072583
     52          6           0        7.573687    3.181404    0.938286
     53          6           0        6.226785    3.490329    0.697507
     54          6           0        5.702923    4.856143    0.963791
     55          6           0        6.135119    5.587023    2.083338
     56          6           0        5.645781    6.867543    2.336791
     57          6           0        4.711526    7.446398    1.476039
     58          6           0        4.272273    6.732560    0.359670
     59          6           0        4.763106    5.452568    0.106320
     60          6           0        5.387058    2.496878    0.175780
     61          6           0        5.491709   -0.739236   -1.526229
     62          6           0        6.281872   -0.337253   -2.618001
     63          6           0        6.791951   -1.252530   -3.546454
     64          6           0        6.520608   -2.615117   -3.442244
     65          6           0        5.730456   -3.044259   -2.371567
     66          6           0        5.239930   -2.114822   -1.436420
     67          8           0        4.515583   -2.735676   -0.446163
     68          6           0        4.536234   -4.092400   -0.731161
     69          6           0        3.926433   -5.090694    0.044439
     70          6           0        3.143810   -4.790053    1.332805
     71          6           0        4.068823   -4.051517    2.332367
     72          6           0        2.659064   -6.079781    2.023996
     73          6           0        1.920520   -3.875867    1.021454
     74          6           0        0.878616   -4.446604    0.052628
     75          6           0        4.103560   -6.386573   -0.463131
     76          6           0        4.824719   -6.665422   -1.636230
     77          6           0        5.416595   -5.648119   -2.373324
     78          6           0        5.267815   -4.337945   -1.907270
     79          6           0        3.505256    0.080781    1.319624
     80          6           0        2.244313    0.000267    1.889366
     81          6           0        1.093745   -0.072333    1.086988
     82          6           0       -0.221109   -0.176788    1.647166
     83          6           0       -1.328569   -0.261216    0.859010
     84          6           0       -1.220845   -0.234743   -0.572368
     85          6           0        0.075717   -0.087469   -1.161934
     86          6           0        1.240050   -0.028793   -0.332029
     87          6           0       -3.386104   -3.005330   -0.761849
     88          6           0       -3.627875   -4.236039   -0.133219
     89          6           0       -4.428594   -4.327316    1.002270
     90          6           0       -4.979224   -3.146031    1.514224
     91          1           0       -5.680561    3.390735    2.616276
     92          1           0       -5.926837    3.504886    4.367712
     93          1           0       -4.299625    3.325208    3.710859
     94          1           0       -4.776640    1.056685    2.895101
     95          1           0       -5.030410    1.146283    4.630475
     96          1           0       -8.773485    0.920873    4.560209
     97          1           0       -7.912143    2.457125    4.518859
     98          1           0       -7.368690    1.182480    5.615769
     99          1           0       -7.668244    2.325297    2.097479
    100          1           0       -6.843253    0.978378    1.297819
    101          1           0       -8.449521    0.742674    2.007235
    102          1           0       -7.872692   -0.984907    5.345822
    103          1           0       -7.623570   -3.404607    5.444477
    104          1           0       -6.296998   -4.634113    3.728143
    105          1           0       -3.507533    2.081818   -1.096557
    106          1           0       -7.158749    4.601840   -1.014203
    107          1           0       -6.741064    7.028788   -1.197734
    108          1           0       -4.578379    7.861689   -2.105625
    109          1           0       -2.847489    6.231412   -2.842249
    110          1           0       -3.281896    3.804993   -2.690154
    111          1           0       -7.582783    2.705681   -2.310677
    112          1           0       -8.353165   -1.331479   -0.615400
    113          1           0      -10.587334   -2.254160   -1.121402
    114          1           0      -11.928508   -1.326181   -3.002116
    115          1           0      -10.994336    0.524763   -4.379275
    116          1           0       -8.745044    1.421327   -3.893104
    117          1           0       -6.160317   -1.267128   -1.507729
    118          1           0       -3.079955   -0.276360   -3.438881
    119          1           0       -0.846002    0.051619   -4.458266
    120          1           0        1.609666    0.299932   -4.214382
    121          1           0        3.603523    0.362657   -2.805857
    122          1           0        7.587175   -0.089487    0.011989
    123          1           0        9.641170    2.755545    2.742045
    124          1           0       12.021617    2.246723    3.156854
    125          1           0       13.270728    0.753176    1.606433
    126          1           0       12.108714   -0.208683   -0.373434
    127          1           0        9.738346    0.330921   -0.805874
    128          1           0        8.245694    3.962489    1.278945
    129          1           0        6.842253    5.135661    2.773687
    130          1           0        5.988838    7.410330    3.213791
    131          1           0        4.329156    8.444194    1.673537
    132          1           0        3.550912    7.175928   -0.321796
    133          1           0        4.433106    4.917080   -0.779454
    134          1           0        4.340216    2.714273   -0.006559
    135          1           0        6.499433    0.720214   -2.729879
    136          1           0        7.399218   -0.883223   -4.368030
    137          1           0        6.915417   -3.322065   -4.165667
    138          1           0        4.946766   -4.661838    2.574677
    139          1           0        3.527562   -3.853719    3.265652
    140          1           0        4.414946   -3.095325    1.933366
    141          1           0        1.992307   -6.675907    1.393321
    142          1           0        2.104223   -5.815600    2.931417
    143          1           0        3.499746   -6.715917    2.324024
    144          1           0        1.432959   -3.643915    1.978618
    145          1           0        2.287130   -2.922802    0.629167
    146          1           0        1.322279   -4.685649   -0.920463
    147          1           0        0.080582   -3.714800   -0.114461
    148          1           0        0.408157   -5.357929    0.439056
    149          1           0        3.667227   -7.222117    0.071479
    150          1           0        4.917676   -7.696939   -1.964492
    151          1           0        5.977321   -5.860696   -3.279042
    152          1           0        4.387539    0.107519    1.951097
    153          1           0        2.140636   -0.031380    2.970990
    154          1           0       -0.320035   -0.183951    2.730002
    155          1           0       -2.314065   -0.327234    1.304977
    156          1           0       -2.764649   -2.967866   -1.650555
    157          1           0       -3.184690   -5.133971   -0.554021
    158          1           0       -4.612197   -5.284463    1.481133
 ---------------------------------------------------------------------

 The electronic state is 1-A.
 Alpha  occ. eigenvalues --  -19.20819 -19.20739 -14.36869 -14.36518 -10.24735
 Alpha  occ. eigenvalues --  -10.24528 -10.24350 -10.24350 -10.23744 -10.23410
 Alpha  occ. eigenvalues --  -10.23160 -10.23073 -10.22882 -10.22810 -10.20102
 Alpha  occ. eigenvalues --  -10.20065 -10.20028 -10.20003 -10.19997 -10.19997
 Alpha  occ. eigenvalues --  -10.19963 -10.19872 -10.19849 -10.19812 -10.19782
 Alpha  occ. eigenvalues --  -10.19779 -10.19775 -10.19744 -10.19721 -10.19660
 Alpha  occ. eigenvalues --  -10.19643 -10.19638 -10.19576 -10.19532 -10.19505
 Alpha  occ. eigenvalues --  -10.19477 -10.19346 -10.19272 -10.19267 -10.19264
 Alpha  occ. eigenvalues --  -10.19214 -10.19209 -10.19181 -10.19170 -10.19119
 Alpha  occ. eigenvalues --  -10.19111 -10.19066 -10.19017 -10.19003 -10.19002
 Alpha  occ. eigenvalues --  -10.18946 -10.18918 -10.18916 -10.18889 -10.18878
 Alpha  occ. eigenvalues --  -10.18855 -10.18823 -10.18818 -10.18795 -10.18780
 Alpha  occ. eigenvalues --  -10.18768 -10.18750 -10.18727 -10.18726 -10.18708
 Alpha  occ. eigenvalues --  -10.18703 -10.18677 -10.18643 -10.18642 -10.18640
 Alpha  occ. eigenvalues --  -10.18636 -10.18630 -10.18617 -10.18582 -10.18565
 Alpha  occ. eigenvalues --  -10.18537 -10.18520 -10.18463 -10.18440 -10.18233
 Alpha  occ. eigenvalues --  -10.18231 -10.18046 -10.17167 -10.16936 -10.16925
 Alpha  occ. eigenvalues --  -10.16719 -10.16547 -10.16385 -10.16063 -10.16026
 Alpha  occ. eigenvalues --   -1.10253  -1.10145  -0.96660  -0.96465  -0.88806
 Alpha  occ. eigenvalues --   -0.86952  -0.86668  -0.86089  -0.86006  -0.85696
 Alpha  occ. eigenvalues --   -0.85474  -0.85378  -0.85215  -0.84540  -0.83669
 Alpha  occ. eigenvalues --   -0.83416  -0.82434  -0.81512  -0.81396  -0.79617
 Alpha  occ. eigenvalues --   -0.78280  -0.78001  -0.77741  -0.77659  -0.77134
 Alpha  occ. eigenvalues --   -0.76281  -0.75937  -0.75190  -0.74691  -0.74308
 Alpha  occ. eigenvalues --   -0.74270  -0.74182  -0.74061  -0.73999  -0.73711
 Alpha  occ. eigenvalues --   -0.73256  -0.73021  -0.72771  -0.72579  -0.72288
 Alpha  occ. eigenvalues --   -0.71636  -0.71421  -0.71367  -0.71162  -0.70846
 Alpha  occ. eigenvalues --   -0.69294  -0.67857  -0.67727  -0.65038  -0.64694
 Alpha  occ. eigenvalues --   -0.63868  -0.63487  -0.63269  -0.62951  -0.62756
 Alpha  occ. eigenvalues --   -0.62293  -0.62232  -0.61904  -0.61665  -0.61523
 Alpha  occ. eigenvalues --   -0.61269  -0.60636  -0.60173  -0.60019  -0.59994
 Alpha  occ. eigenvalues --   -0.59789  -0.59440  -0.59370  -0.59070  -0.58487
 Alpha  occ. eigenvalues --   -0.57142  -0.56827  -0.56674  -0.56330  -0.54817
 Alpha  occ. eigenvalues --   -0.54445  -0.54071  -0.53724  -0.52981  -0.52726
 Alpha  occ. eigenvalues --   -0.52329  -0.51783  -0.51545  -0.51503  -0.50730
 Alpha  occ. eigenvalues --   -0.50474  -0.50094  -0.50040  -0.49804  -0.49616
 Alpha  occ. eigenvalues --   -0.49290  -0.49058  -0.48897  -0.48449  -0.48033
 Alpha  occ. eigenvalues --   -0.47868  -0.46837  -0.46453  -0.46175  -0.46044
 Alpha  occ. eigenvalues --   -0.45936  -0.45878  -0.45563  -0.45489  -0.45249
 Alpha  occ. eigenvalues --   -0.45052  -0.45003  -0.44870  -0.44792  -0.44348
 Alpha  occ. eigenvalues --   -0.44342  -0.44230  -0.44111  -0.44036  -0.43910
 Alpha  occ. eigenvalues --   -0.43540  -0.43401  -0.43305  -0.43195  -0.42947
 Alpha  occ. eigenvalues --   -0.42645  -0.42618  -0.42300  -0.42136  -0.42024
 Alpha  occ. eigenvalues --   -0.41990  -0.41725  -0.41695  -0.41586  -0.41518
 Alpha  occ. eigenvalues --   -0.41436  -0.41330  -0.40859  -0.40623  -0.40429
 Alpha  occ. eigenvalues --   -0.40289  -0.40121  -0.39948  -0.39562  -0.39091
 Alpha  occ. eigenvalues --   -0.38467  -0.38169  -0.37935  -0.37907  -0.37793
 Alpha  occ. eigenvalues --   -0.37694  -0.37525  -0.37406  -0.37213  -0.37021
 Alpha  occ. eigenvalues --   -0.36992  -0.36869  -0.36813  -0.36787  -0.36704
 Alpha  occ. eigenvalues --   -0.36567  -0.36458  -0.36389  -0.36261  -0.36180
 Alpha  occ. eigenvalues --   -0.36049  -0.36015  -0.35719  -0.35511  -0.35459
 Alpha  occ. eigenvalues --   -0.35345  -0.35224  -0.35090  -0.34841  -0.34795
 Alpha  occ. eigenvalues --   -0.34727  -0.34651  -0.34562  -0.34138  -0.33963
 Alpha  occ. eigenvalues --   -0.33834  -0.33625  -0.33485  -0.33449  -0.33389
 Alpha  occ. eigenvalues --   -0.33242  -0.33135  -0.32750  -0.32283  -0.31596
 Alpha  occ. eigenvalues --   -0.31379  -0.31074  -0.31012  -0.30824  -0.30673
 Alpha  occ. eigenvalues --   -0.30413  -0.30289  -0.29424  -0.28154  -0.27949
 Alpha  occ. eigenvalues --   -0.27769  -0.27635  -0.27178  -0.25943  -0.25731
 Alpha  occ. eigenvalues --   -0.25236  -0.24880  -0.24851  -0.24654  -0.24595
 Alpha  occ. eigenvalues --   -0.24141  -0.23675  -0.23315  -0.22679  -0.22321
 Alpha  occ. eigenvalues --   -0.22083  -0.21925  -0.21743  -0.21648  -0.21100
 Alpha  occ. eigenvalues --   -0.19172  -0.17644
 Alpha virt. eigenvalues --   -0.05957  -0.03712  -0.03207  -0.03078  -0.02960
 Alpha virt. eigenvalues --   -0.02344  -0.01965  -0.01466  -0.00375   0.00019
 Alpha virt. eigenvalues --    0.00057   0.00122   0.00233   0.00291   0.00353

 Mulliken charges:
               1
     1  C   -0.455774
     2  C   -0.263811
     3  C    0.037070
     4  C   -0.468497
     5  C   -0.472084
     6  C    0.112956
     7  C   -0.212710
     8  C   -0.140951
     9  C   -0.197009
    10  C    0.088918
    11  C    0.241465
    12  O   -0.567756
    13  C    0.313778
    14  C    0.212290
    15  N   -0.668392
    16  C    0.328683
    17  C   -0.227665
    18  C    0.092054
    19  C    0.083920
    20  C   -0.173734
    21  C   -0.134992
    22  C   -0.126307
    23  C   -0.134623
    24  C   -0.173572
    25  C   -0.236334
    26  C    0.093517
    27  C    0.082368
    28  C   -0.176394
    29  C   -0.135268
    30  C   -0.126365
    31  C   -0.135258
    32  C   -0.172447
    33  C   -0.247113
    34  C    0.144384
    35  C   -0.152483
    36  C   -0.246634
    37  C    0.188502
    38  C   -0.209912
    39  C   -0.185346
    40  C    0.134062
    41  C    0.181366
    42  N   -0.664913
    43  C    0.299285
    44  C   -0.231271
    45  C    0.091853
    46  C    0.086798
    47  C   -0.171221
    48  C   -0.134612
    49  C   -0.125954
    50  C   -0.134535
    51  C   -0.174629
    52  C   -0.237510
    53  C    0.091552
    54  C    0.087072
    55  C   -0.171852
    56  C   -0.134345
    57  C   -0.125981
    58  C   -0.134302
    59  C   -0.171246
    60  C   -0.231473
    61  C    0.219130
    62  C   -0.180198
    63  C   -0.151200
    64  C   -0.193028
    65  C    0.090436
    66  C    0.282511
    67  O   -0.565664
    68  C    0.249157
    69  C    0.116810
    70  C    0.028163
    71  C   -0.459255
    72  C   -0.466389
    73  C   -0.262672
    74  C   -0.459034
    75  C   -0.210155
    76  C   -0.140345
    77  C   -0.194971
    78  C    0.086353
    79  C   -0.142562
    80  C   -0.241194
    81  C    0.184943
    82  C   -0.207389
    83  C   -0.189361
    84  C    0.141285
    85  C   -0.032888
    86  C   -0.031071
    87  C   -0.183571
    88  C   -0.151060
    89  C   -0.193087
    90  C    0.089147
    91  H    0.154321
    92  H    0.141425
    93  H    0.144043
    94  H    0.159558
    95  H    0.127758
    96  H    0.145017
    97  H    0.148938
    98  H    0.142288
    99  H    0.139873
   100  H    0.182970
   101  H    0.141780
   102  H    0.129785
   103  H    0.127379
   104  H    0.132133
   105  H    0.147130
   106  H    0.134649
   107  H    0.129446
   108  H    0.128240
   109  H    0.129693
   110  H    0.136535
   111  H    0.130980
   112  H    0.141713
   113  H    0.130763
   114  H    0.128149
   115  H    0.129216
   116  H    0.133559
   117  H    0.146079
   118  H    0.145435
   119  H    0.133732
   120  H    0.130908
   121  H    0.149254
   122  H    0.148524
   123  H    0.130398
   124  H    0.130142
   125  H    0.129524
   126  H    0.130793
   127  H    0.136570
   128  H    0.135951
   129  H    0.130364
   130  H    0.130087
   131  H    0.129652
   132  H    0.130939
   133  H    0.133926
   134  H    0.148146
   135  H    0.144188
   136  H    0.131919
   137  H    0.132871
   138  H    0.139668
   139  H    0.134676
   140  H    0.170552
   141  H    0.148752
   142  H    0.142480
   143  H    0.143657
   144  H    0.125659
   145  H    0.168182
   146  H    0.148560
   147  H    0.152802
   148  H    0.136286
   149  H    0.129498
   150  H    0.127390
   151  H    0.131749
   152  H    0.146746
   153  H    0.134543
   154  H    0.132815
   155  H    0.156875
   156  H    0.146391
   157  H    0.133943
   158  H    0.132575
 Sum of Mulliken charges =  -0.00000

 Dipole moment (field-independent basis, Debye):
    X=              0.5674    Y=             -0.5407    Z=             -0.0087  Tot=              0.7838
 Quadrupole moment (field-independent basis, Debye-Ang):
   XX=           -489.6240   YY=           -486.9665   ZZ=           -493.3694
   XY=              0.1836   XZ=             -7.1290   YZ=              2.5811

 Normal termination of Gaussian 16 at Sat Nov  5 02:39:36 2022.
