 Gaussian 16, Revision B.01,
 Gaussian 16:  ES64L-G16RevB.01 20-Dec-2017

 -------------------------------------------------------------------
 #p b3lyp/6-31g(d) 6D 10F nosymm GFInput td=(50-50,nstate=2) SCF=XQC
 -------------------------------------------------------------------

 ------------------------------
 Gaussian input prepared by ASE
 ------------------------------
 Symbolic Z-matrix:
 Charge =  0 Multiplicity = 1

                          Input orientation:
 ---------------------------------------------------------------------
 Center     Atomic      Atomic             Coordinates (Angstroms)
 Number     Number       Type             X           Y           Z
 ---------------------------------------------------------------------
      1          6           0       -4.430241    0.398470    3.374936
      2          6           0       -4.709436   -0.207397    1.979119
      3          6           0       -5.349800   -1.612436    2.079468
      4          6           0       -5.641271    0.720209    1.198368
      5          6           0       -6.935738    1.117216    1.511131
      6          6           0       -7.612780    1.981337    0.641158
      7          6           0       -6.994908    2.438675   -0.526829
      8          6           0       -5.693649    2.044176   -0.848381
      9          6           0       -5.022630    1.182466    0.023176
     10          6           0       -3.681717    0.602436   -0.032888
     11          6           0       -3.454790   -0.211601    1.089573
     12          6           0       -2.212626   -0.864582    1.244490
     13          6           0       -1.643543   -1.752811    2.253436
     14          6           0       -2.096066   -2.322694    3.455404
     15          6           0       -1.246380   -3.130456    4.205687
     16          6           0        0.067450   -3.382888    3.782965
     17          6           0        0.548160   -2.839107    2.595988
     18          6           0       -0.319170   -2.044765    1.842757
     19          7           0       -0.057912   -1.399759    0.629958
     20          6           0        1.265576   -1.254112    0.119268
     21          6           0        1.926782   -2.358425   -0.439183
     22          6           0        3.225643   -2.213284   -0.890980
     23          6           0        3.915604   -0.981841   -0.816982
     24          6           0        5.294152   -0.842509   -1.296582
     25          6           0        5.993874   -1.931932   -1.862542
     26          6           0        7.296343   -1.809595   -2.311828
     27          6           0        7.950937   -0.575582   -2.207226
     28          6           0        7.287661    0.506965   -1.657804
     29          6           0        5.956993    0.410698   -1.192399
     30          6           0        5.258609    1.565878   -0.617117
     31          6           0        5.884470    2.827645   -0.504053
     32          6           0        5.229147    3.923691    0.027745
     33          6           0        3.905641    3.794422    0.467903
     34          6           0        3.269884    2.569898    0.370572
     35          6           0        3.918537    1.433893   -0.162613
     36          6           0        3.240309    0.136583   -0.255676
     37          6           0        1.921473   -0.036990    0.215041
     38          6           0       -1.193871   -0.683411    0.252443
     39          6           0       -1.427043    0.077425   -0.915620
     40          6           0       -2.677225    0.717734   -0.990841
     41          8           0       -2.813782    1.444290   -2.148119
     42          6           0       -1.654791    1.252589   -2.858684
     43          6           0       -1.411642    1.801151   -4.108918
     44          6           0       -0.198038    1.475716   -4.714154
     45          6           0        0.713589    0.622876   -4.074713
     46          6           0        0.449839    0.086123   -2.815134
     47          6           0       -0.753960    0.412337   -2.170343
     48          1           0       -5.354371    0.436365    3.963262
     49          1           0       -4.049210    1.420233    3.278502
     50          1           0       -3.694562   -0.181456    3.937272
     51          1           0       -5.609254   -1.985909    1.083706
     52          1           0       -6.269255   -1.568115    2.674623
     53          1           0       -4.679753   -2.339275    2.544957
     54          1           0       -7.424621    0.766122    2.417122
     55          1           0       -8.625593    2.297628    0.876392
     56          1           0       -7.532206    3.108639   -1.193112
     57          1           0       -5.212992    2.397565   -1.754688
     58          1           0       -3.100510   -2.141882    3.815162
     59          1           0       -1.607040   -3.566880    5.132816
     60          1           0        0.719315   -4.008283    4.386597
     61          1           0        1.564854   -3.024045    2.265618
     62          1           0        1.411472   -3.310191   -0.521243
     63          1           0        3.711401   -3.082025   -1.317991
     64          1           0        5.511061   -2.897533   -1.954268
     65          1           0        7.804523   -2.668126   -2.741835
     66          1           0        8.974220   -0.464343   -2.554871
     67          1           0        7.817378    1.449448   -1.590084
     68          1           0        6.906115    2.957201   -0.840177
     69          1           0        5.741588    4.879053    0.098761
     70          1           0        3.376755    4.648029    0.882197
     71          1           0        2.244324    2.498645    0.712096
     72          1           0        1.382713    0.785661    0.667299
     73          1           0       -2.144255    2.444064   -4.585550
     74          1           0        0.036472    1.880097   -5.694700
     75          1           0        1.646721    0.370499   -4.570351
     76          1           0        1.167049   -0.581729   -2.358489
 ---------------------------------------------------------------------

 SCF Done:  E(RB3LYP) =  -1862.32549306     A.U. after   16 cycles

 Excitation energies and oscillator strengths:

 Excited state symmetry could not be determined.
 Excited State   1:      Triplet-?Sym    2.7373 eV  452.95 nm  f=0.0000  <S**2>=2.000
     156 ->161        -0.19552
     156 ->162        -0.12271
     157 ->158         0.25166
     157 ->161         0.47487
     157 ->162        -0.24035
 This state for optimization and/or second-order correction.
 Total Energy, E(TD-HF/TD-DFT) =  -1862.22490013
 Copying the excited state density for this state as the 1-particle RhoCI density.

 Excited state symmetry could not be determined.
 Excited State   2:      Triplet-?Sym    2.8242 eV  439.01 nm  f=0.0000  <S**2>=2.000
     149 ->160        -0.21565
     153 ->158        -0.13907
     154 ->158        -0.16799
     154 ->159         0.32719
     155 ->158        -0.33788
     155 ->159        -0.16828
     155 ->160        -0.11483
     157 ->158         0.16320
     157 ->161        -0.17734

 Excited state symmetry could not be determined.
 Excited State   3:      Singlet-?Sym    3.2668 eV  379.53 nm  f=0.1013  <S**2>=0.000
     157 ->158         0.68608
     157 ->159         0.12594

 Excited state symmetry could not be determined.
 Excited State   4:      Singlet-?Sym    3.3163 eV  373.86 nm  f=0.0057  <S**2>=0.000
     157 ->158        -0.13594
     157 ->159         0.67637
     157 ->160        -0.12063

 Alpha  occ. eigenvalues --  -19.20583 -14.38359 -10.24399 -10.24201 -10.23984
 Alpha  occ. eigenvalues --  -10.23445 -10.22237 -10.21449 -10.21378 -10.20977
 Alpha  occ. eigenvalues --  -10.20919 -10.20878 -10.20833 -10.20580 -10.20456
 Alpha  occ. eigenvalues --  -10.20364 -10.20264 -10.20070 -10.19906 -10.19773
 Alpha  occ. eigenvalues --  -10.19739 -10.19686 -10.19637 -10.19620 -10.19573
 Alpha  occ. eigenvalues --  -10.19537 -10.19511 -10.19505 -10.19355 -10.19142
 Alpha  occ. eigenvalues --  -10.19035 -10.18960 -10.18801 -10.18736 -10.18736
 Alpha  occ. eigenvalues --  -10.18689 -10.18617 -10.18549 -10.18352 -10.18184
 Alpha  occ. eigenvalues --  -10.18099 -10.18081 -10.18043 -10.18007 -10.17869
 Alpha  occ. eigenvalues --  -10.17510 -10.17501  -1.10299  -0.99200  -0.89514
 Alpha  occ. eigenvalues --   -0.88274  -0.86447  -0.85437  -0.85310  -0.84221
 Alpha  occ. eigenvalues --   -0.83740  -0.80916  -0.80202  -0.78670  -0.78102
 Alpha  occ. eigenvalues --   -0.77740  -0.77173  -0.74589  -0.74353  -0.73934
 Alpha  occ. eigenvalues --   -0.73449  -0.72792  -0.72585  -0.72412  -0.71335
 Alpha  occ. eigenvalues --   -0.69857  -0.68452  -0.65558  -0.64708  -0.63897
 Alpha  occ. eigenvalues --   -0.63381  -0.63301  -0.61693  -0.60727  -0.60401
 Alpha  occ. eigenvalues --   -0.59756  -0.59149  -0.58372  -0.57094  -0.56803
 Alpha  occ. eigenvalues --   -0.55618  -0.55141  -0.54496  -0.53011  -0.51898
 Alpha  occ. eigenvalues --   -0.50910  -0.50390  -0.50001  -0.49725  -0.49199
 Alpha  occ. eigenvalues --   -0.48461  -0.47531  -0.47443  -0.46129  -0.45899
 Alpha  occ. eigenvalues --   -0.45535  -0.44880  -0.44702  -0.44563  -0.44457
 Alpha  occ. eigenvalues --   -0.43595  -0.43566  -0.43231  -0.43034  -0.42743
 Alpha  occ. eigenvalues --   -0.42588  -0.42564  -0.42452  -0.42394  -0.41887
 Alpha  occ. eigenvalues --   -0.41351  -0.41169  -0.40678  -0.40004  -0.39568
 Alpha  occ. eigenvalues --   -0.39063  -0.38833  -0.38119  -0.37438  -0.37008
 Alpha  occ. eigenvalues --   -0.36926  -0.36629  -0.36615  -0.36556  -0.36368
 Alpha  occ. eigenvalues --   -0.35880  -0.35742  -0.34820  -0.34509  -0.34214
 Alpha  occ. eigenvalues --   -0.33930  -0.33884  -0.33243  -0.33142  -0.32902
 Alpha  occ. eigenvalues --   -0.32029  -0.31527  -0.30922  -0.29865  -0.29041
 Alpha  occ. eigenvalues --   -0.28670  -0.28520  -0.27552  -0.24454  -0.24038
 Alpha  occ. eigenvalues --   -0.23734  -0.23510  -0.23119  -0.22481  -0.22391
 Alpha  occ. eigenvalues --   -0.20121  -0.18475
 Alpha virt. eigenvalues --   -0.04713  -0.04532  -0.03506  -0.03232  -0.01966
 Alpha virt. eigenvalues --   -0.00318   0.00965   0.01487   0.01731   0.02270
 Alpha virt. eigenvalues --    0.02407   0.04269   0.05595   0.06543   0.08534

 Mulliken charges:
               1
     1  C   -0.450070
     2  C   -0.067634
     3  C   -0.450021
     4  C    0.099426
     5  C   -0.205694
     6  C   -0.133301
     7  C   -0.138662
     8  C   -0.194030
     9  C    0.106840
    10  C   -0.000198
    11  C    0.003513
    12  C   -0.010663
    13  C    0.078602
    14  C   -0.212666
    15  C   -0.146658
    16  C   -0.142075
    17  C   -0.182682
    18  C    0.302453
    19  N   -0.745793
    20  C    0.237268
    21  C   -0.166088
    22  C   -0.217565
    23  C    0.082291
    24  C    0.067106
    25  C   -0.201678
    26  C   -0.132093
    27  C   -0.129668
    28  C   -0.203438
    29  C    0.074083
    30  C    0.069754
    31  C   -0.202852
    32  C   -0.129085
    33  C   -0.131608
    34  C   -0.197090
    35  C    0.070517
    36  C    0.067471
    37  C   -0.215067
    38  C    0.192475
    39  C    0.136720
    40  C    0.207172
    41  O   -0.559559
    42  C    0.333611
    43  C   -0.212928
    44  C   -0.135292
    45  C   -0.153006
    46  C   -0.183500
    47  C    0.065527
    48  H    0.143259
    49  H    0.157218
    50  H    0.157405
    51  H    0.158928
    52  H    0.143469
    53  H    0.157623
    54  H    0.120835
    55  H    0.123189
    56  H    0.124746
    57  H    0.143564
    58  H    0.137393
    59  H    0.123806
    60  H    0.127176
    61  H    0.140654
    62  H    0.151503
    63  H    0.143801
    64  H    0.135492
    65  H    0.133196
    66  H    0.133258
    67  H    0.137299
    68  H    0.136513
    69  H    0.133338
    70  H    0.135388
    71  H    0.143145
    72  H    0.158192
    73  H    0.143941
    74  H    0.130778
    75  H    0.129216
    76  H    0.151511
 Sum of Mulliken charges =  -0.00000

 Dipole moment (field-independent basis, Debye):
    X=              3.2735    Y=             -0.1558    Z=             -0.1821  Tot=              3.2823
 Quadrupole moment (field-independent basis, Debye-Ang):
   XX=           -241.1014   YY=           -252.4336   ZZ=           -258.3942
   XY=             -1.5616   XZ=            -13.7953   YZ=             -1.9408

 Normal termination of Gaussian 16 at Sat Nov  5 10:18:20 2022.
