 Gaussian 16, Revision B.01,
 Gaussian 16:  ES64L-G16RevB.01 20-Dec-2017

 -----------------------------
 #p b3lyp/6-31g(d) opt SCF=XQC
 -----------------------------

 ------------------------------
 Gaussian input prepared by ASE
 ------------------------------
 Symbolic Z-matrix:
 Charge =  0 Multiplicity = 1

 SCF Done:  E(RB3LYP) =  -1862.31167873     A.U. after   16 cycles
 SCF Done:  E(RB3LYP) =  -1862.31918155     A.U. after   14 cycles
 SCF Done:  E(RB3LYP) =  -1862.32244210     A.U. after   14 cycles
 SCF Done:  E(RB3LYP) =  -1862.32477950     A.U. after   15 cycles
 SCF Done:  E(RB3LYP) =  -1862.32451938     A.U. after   12 cycles
 SCF Done:  E(RB3LYP) =  -1862.32530907     A.U. after   11 cycles
 SCF Done:  E(RB3LYP) =  -1862.32542054     A.U. after   11 cycles
 SCF Done:  E(RB3LYP) =  -1862.32547219     A.U. after   11 cycles
 SCF Done:  E(RB3LYP) =  -1862.32549141     A.U. after   11 cycles
 SCF Done:  E(RB3LYP) =  -1862.32549694     A.U. after   10 cycles
 SCF Done:  E(RB3LYP) =  -1862.32549819     A.U. after    8 cycles
 SCF Done:  E(RB3LYP) =  -1862.32549834     A.U. after    8 cycles
 SCF Done:  E(RB3LYP) =  -1862.32549840     A.U. after    6 cycles
 SCF Done:  E(RB3LYP) =  -1862.32549851     A.U. after    7 cycles
 SCF Done:  E(RB3LYP) =  -1862.32549860     A.U. after    7 cycles
 SCF Done:  E(RB3LYP) =  -1862.32549869     A.U. after    6 cycles
 Optimization completed.
    -- Stationary point found.

                         Standard orientation:
 ---------------------------------------------------------------------
 Center     Atomic      Atomic             Coordinates (Angstroms)
 Number     Number       Type             X           Y           Z
 ---------------------------------------------------------------------
      1          6           0        5.132672    1.679609    1.845440
      2          6           0        5.106224    1.014050    0.449137
      3          6           0        5.736277    1.922698   -0.633298
      4          6           0        5.865267   -0.312346    0.502690
      5          6           0        7.201253   -0.538307    0.811177
      6          6           0        7.691721   -1.850248    0.797137
      7          6           0        6.848735   -2.918855    0.476872
      8          6           0        5.504299   -2.699998    0.165591
      9          6           0        5.020081   -1.389387    0.181573
     10          6           0        3.690169   -0.846794   -0.091473
     11          6           0        3.693259    0.550382    0.056721
     12          6           0        2.503165    1.281524   -0.149337
     13          6           0        2.147044    2.695415   -0.079560
     14          6           0        2.834096    3.888125    0.202701
     15          6           0        2.150459    5.100556    0.207159
     16          6           0        0.774290    5.152916   -0.061135
     17          6           0        0.062495    3.992697   -0.349118
     18          6           0        0.762605    2.784358   -0.368138
     19          7           0        0.261216    1.505465   -0.629309
     20          6           0       -1.137963    1.231075   -0.654697
     21          6           0       -1.914766    1.650608   -1.745173
     22          6           0       -3.277548    1.416137   -1.736549
     23          6           0       -3.921725    0.757869   -0.664313
     24          6           0       -5.368313    0.518693   -0.666239
     25          6           0       -6.184166    0.928589   -1.744727
     26          6           0       -7.550228    0.711599   -1.751036
     27          6           0       -8.153388    0.068838   -0.662332
     28          6           0       -7.376716   -0.343222    0.405701
     29          6           0       -5.979391   -0.135857    0.437793
     30          6           0       -5.162096   -0.582246    1.571767
     31          6           0       -5.735054   -1.241449    2.682492
     32          6           0       -4.969683   -1.674206    3.750435
     33          6           0       -3.585045   -1.462465    3.742555
     34          6           0       -2.998666   -0.817841    2.668433
     35          6           0       -3.758292   -0.360637    1.568670
     36          6           0       -3.130378    0.328990    0.436503
     37          6           0       -1.744451    0.593207    0.415843
     38          6           0        1.301657    0.584699   -0.503819
     39          6           0        1.294484   -0.811672   -0.722239
     40          6           0        2.508942   -1.477086   -0.475404
     41          8           0        2.409140   -2.828449   -0.698298
     42          6           0        1.124878   -3.050765   -1.129758
     43          6           0        0.632189   -4.295991   -1.490034
     44          6           0       -0.685060   -4.344266   -1.945644
     45          6           0       -1.453003   -3.174169   -2.037387
     46          6           0       -0.938072   -1.932967   -1.665268
     47          6           0        0.377875   -1.854696   -1.182091
     48          1           0        6.159842    1.948969    2.117373
     49          1           0        4.752350    0.988992    2.604971
     50          1           0        4.523952    2.586168    1.882458
     51          1           0        5.777064    1.400018   -1.594278
     52          1           0        6.760382    2.193513   -0.351451
     53          1           0        5.169679    2.845629   -0.778565
     54          1           0        7.864585    0.286744    1.060926
     55          1           0        8.735105   -2.037756    1.036629
     56          1           0        7.242824   -3.931827    0.469466
     57          1           0        4.848972   -3.528025   -0.083854
     58          1           0        3.893706    3.883024    0.422310
     59          1           0        2.691802    6.016730    0.425528
     60          1           0        0.255610    6.107428   -0.043885
     61          1           0       -1.002993    4.023938   -0.551038
     62          1           0       -1.439646    2.143785   -2.587298
     63          1           0       -3.852432    1.750094   -2.591530
     64          1           0       -5.743012    1.428668   -2.598666
     65          1           0       -8.147537    1.039935   -2.596995
     66          1           0       -9.225332   -0.107735   -0.652510
     67          1           0       -7.869036   -0.838640    1.233737
     68          1           0       -6.802763   -1.421933    2.713235
     69          1           0       -5.444264   -2.178303    4.587701
     70          1           0       -2.970837   -1.802164    4.571625
     71          1           0       -1.925290   -0.672578    2.684285
     72          1           0       -1.113021    0.300417    1.244773
     73          1           0        1.256611   -5.180855   -1.424073
     74          1           0       -1.114621   -5.297242   -2.241113
     75          1           0       -2.472188   -3.232098   -2.408861
     76          1           0       -1.551918   -1.048564   -1.765090
 ---------------------------------------------------------------------

 The electronic state is 1-A.
 Alpha  occ. eigenvalues --  -19.20583 -14.38359 -10.24399 -10.24200 -10.23984
 Alpha  occ. eigenvalues --  -10.23445 -10.22237 -10.21449 -10.21378 -10.20977
 Alpha  occ. eigenvalues --  -10.20919 -10.20878 -10.20833 -10.20580 -10.20456
 Alpha  occ. eigenvalues --  -10.20364 -10.20264 -10.20070 -10.19906 -10.19773
 Alpha  occ. eigenvalues --  -10.19739 -10.19686 -10.19637 -10.19620 -10.19573
 Alpha  occ. eigenvalues --  -10.19537 -10.19511 -10.19505 -10.19355 -10.19142
 Alpha  occ. eigenvalues --  -10.19035 -10.18959 -10.18800 -10.18736 -10.18736
 Alpha  occ. eigenvalues --  -10.18689 -10.18617 -10.18549 -10.18352 -10.18184
 Alpha  occ. eigenvalues --  -10.18099 -10.18081 -10.18043 -10.18007 -10.17869
 Alpha  occ. eigenvalues --  -10.17510 -10.17501  -1.10299  -0.99200  -0.89515
 Alpha  occ. eigenvalues --   -0.88274  -0.86447  -0.85437  -0.85310  -0.84221
 Alpha  occ. eigenvalues --   -0.83740  -0.80916  -0.80202  -0.78670  -0.78102
 Alpha  occ. eigenvalues --   -0.77740  -0.77173  -0.74589  -0.74353  -0.73934
 Alpha  occ. eigenvalues --   -0.73449  -0.72792  -0.72585  -0.72412  -0.71335
 Alpha  occ. eigenvalues --   -0.69857  -0.68452  -0.65558  -0.64708  -0.63897
 Alpha  occ. eigenvalues --   -0.63381  -0.63301  -0.61693  -0.60727  -0.60401
 Alpha  occ. eigenvalues --   -0.59756  -0.59149  -0.58372  -0.57094  -0.56803
 Alpha  occ. eigenvalues --   -0.55618  -0.55141  -0.54496  -0.53011  -0.51898
 Alpha  occ. eigenvalues --   -0.50910  -0.50390  -0.50001  -0.49725  -0.49199
 Alpha  occ. eigenvalues --   -0.48461  -0.47531  -0.47443  -0.46129  -0.45899
 Alpha  occ. eigenvalues --   -0.45535  -0.44880  -0.44702  -0.44563  -0.44457
 Alpha  occ. eigenvalues --   -0.43595  -0.43566  -0.43231  -0.43034  -0.42743
 Alpha  occ. eigenvalues --   -0.42588  -0.42564  -0.42452  -0.42394  -0.41887
 Alpha  occ. eigenvalues --   -0.41351  -0.41169  -0.40678  -0.40004  -0.39568
 Alpha  occ. eigenvalues --   -0.39063  -0.38833  -0.38119  -0.37438  -0.37008
 Alpha  occ. eigenvalues --   -0.36926  -0.36629  -0.36615  -0.36557  -0.36368
 Alpha  occ. eigenvalues --   -0.35880  -0.35742  -0.34820  -0.34509  -0.34214
 Alpha  occ. eigenvalues --   -0.33930  -0.33885  -0.33243  -0.33142  -0.32902
 Alpha  occ. eigenvalues --   -0.32029  -0.31527  -0.30922  -0.29865  -0.29041
 Alpha  occ. eigenvalues --   -0.28670  -0.28520  -0.27552  -0.24454  -0.24038
 Alpha  occ. eigenvalues --   -0.23734  -0.23510  -0.23119  -0.22481  -0.22391
 Alpha  occ. eigenvalues --   -0.20121  -0.18475
 Alpha virt. eigenvalues --   -0.04713  -0.04532  -0.03507  -0.03232  -0.01966
 Alpha virt. eigenvalues --   -0.00318   0.00965   0.01487   0.01731   0.02270
 Alpha virt. eigenvalues --    0.02407   0.04269   0.05595   0.06543   0.08534

 Mulliken charges:
               1
     1  C   -0.450051
     2  C   -0.067647
     3  C   -0.450010
     4  C    0.099417
     5  C   -0.205687
     6  C   -0.133295
     7  C   -0.138663
     8  C   -0.194029
     9  C    0.106826
    10  C   -0.000154
    11  C    0.003484
    12  C   -0.010655
    13  C    0.078595
    14  C   -0.212675
    15  C   -0.146658
    16  C   -0.142071
    17  C   -0.182674
    18  C    0.302442
    19  N   -0.745727
    20  C    0.237200
    21  C   -0.166078
    22  C   -0.217572
    23  C    0.082303
    24  C    0.067126
    25  C   -0.201683
    26  C   -0.132100
    27  C   -0.129666
    28  C   -0.203432
    29  C    0.074063
    30  C    0.069735
    31  C   -0.202844
    32  C   -0.129083
    33  C   -0.131615
    34  C   -0.197099
    35  C    0.070531
    36  C    0.067475
    37  C   -0.215043
    38  C    0.192460
    39  C    0.136716
    40  C    0.207152
    41  O   -0.559562
    42  C    0.333615
    43  C   -0.212923
    44  C   -0.135289
    45  C   -0.153013
    46  C   -0.183521
    47  C    0.065549
    48  H    0.143257
    49  H    0.157215
    50  H    0.157402
    51  H    0.158929
    52  H    0.143469
    53  H    0.157622
    54  H    0.120834
    55  H    0.123189
    56  H    0.124746
    57  H    0.143568
    58  H    0.137395
    59  H    0.123806
    60  H    0.127176
    61  H    0.140653
    62  H    0.151503
    63  H    0.143800
    64  H    0.135492
    65  H    0.133198
    66  H    0.133258
    67  H    0.137301
    68  H    0.136513
    69  H    0.133338
    70  H    0.135390
    71  H    0.143148
    72  H    0.158187
    73  H    0.143936
    74  H    0.130777
    75  H    0.129216
    76  H    0.151509
 Sum of Mulliken charges =  -0.00000

 Dipole moment (field-independent basis, Debye):
    X=             -3.2409    Y=              0.4570    Z=              0.2485  Tot=              3.2824
 Quadrupole moment (field-independent basis, Debye-Ang):
   XX=           -236.7692   YY=           -256.1062   ZZ=           -259.5107
   XY=              5.7853   XZ=              6.6182   YZ=             -5.6180

 Normal termination of Gaussian 16 at Sat Nov  5 00:41:42 2022.
