 Gaussian 16, Revision B.01,
 Gaussian 16:  ES64L-G16RevB.01 20-Dec-2017

 -------------------------------------------------------------------
 #p b3lyp/6-31g(d) 6D 10F nosymm GFInput td=(50-50,nstate=2) SCF=XQC
 -------------------------------------------------------------------

 ------------------------------
 Gaussian input prepared by ASE
 ------------------------------
 Symbolic Z-matrix:
 Charge =  0 Multiplicity = 1

                          Input orientation:
 ---------------------------------------------------------------------
 Center     Atomic      Atomic             Coordinates (Angstroms)
 Number     Number       Type             X           Y           Z
 ---------------------------------------------------------------------
      1          6           0       10.117304   -2.236446   -1.157474
      2          6           0       10.569783   -1.386003   -0.178645
      3          6           0        9.743380   -0.346196    0.322326
      4          6           0       10.245723    0.501526    1.341089
      5          6           0        9.462833    1.503209    1.853493
      6          6           0        8.165850    1.706530    1.348633
      7          6           0        7.614277    0.949295    0.315225
      8          6           0        6.216392    1.311607   -0.081770
      9          6           0        5.778666    2.610425    0.159395
     10          6           0        4.414310    2.954866    0.164050
     11          6           0        3.454145    1.987300   -0.011974
     12          6           0        3.825744    0.660708   -0.360030
     13          6           0        2.837197   -0.346481   -0.639660
     14          6           0        1.390614   -0.138487   -0.358573
     15          6           0        0.933525    0.249162    0.912500
     16          6           0       -0.426870    0.385227    1.177004
     17          6           0       -1.390490    0.138672    0.184870
     18          6           0       -2.837071    0.346676    0.465964
     19          6           0       -3.246104    1.543424    1.027311
     20          6           0       -4.592567    1.766954    1.363767
     21          6           0       -5.552822    0.832820    1.044218
     22          8           0       -6.775613    1.005526    1.657849
     23          6           0       -7.989203    1.073634    1.015374
     24          6           0       -8.812429    2.078978    1.483660
     25          6           0      -10.117738    2.235687    0.984957
     26          6           0      -10.570186    1.385286    0.006074
     27          6           0       -9.743578    0.345826   -0.495266
     28          6           0      -10.245869   -0.501828   -1.514117
     29          6           0       -9.462802   -1.503188   -2.026882
     30          6           0       -8.165704   -1.706315   -1.522236
     31          6           0       -7.614182   -0.949148   -0.488757
     32          6           0       -6.216275   -1.311409   -0.091844
     33          6           0       -5.778565   -2.610215   -0.333082
     34          6           0       -4.414211   -2.954665   -0.337741
     35          6           0       -3.454051   -1.987104   -0.161677
     36          6           0       -3.825637   -0.660505    0.186381
     37          6           0       -5.225953   -0.364628    0.352955
     38          6           0       -8.408141    0.145002    0.019597
     39          6           0       -0.933400   -0.248968   -1.086207
     40          6           0        0.426995   -0.385033   -1.350711
     41          6           0        3.246244   -1.543204   -1.201048
     42          6           0        4.592716   -1.766704   -1.537515
     43          6           0        5.552940   -0.832570   -1.217900
     44          8           0        6.775793   -1.005111   -1.831484
     45          6           0        7.989167   -1.073714   -1.188629
     46          6           0        8.812173   -2.079395   -1.656549
     47          6           0        8.408107   -0.145092   -0.192844
     48          6           0        5.226057    0.364839   -0.526587
     49          1           0       10.749563   -3.032387   -1.540388
     50          1           0       11.569698   -1.492750    0.233119
     51          1           0       11.250539    0.326305    1.716527
     52          1           0        9.826148    2.137139    2.657578
     53          1           0        7.561358    2.470097    1.821578
     54          1           0        6.504349    3.386158    0.376020
     55          1           0        4.125367    3.985376    0.351139
     56          1           0        2.402644    2.240166    0.056706
     57          1           0        1.652932    0.420865    1.708251
     58          1           0       -0.753746    0.663426    2.175264
     59          1           0       -2.510155    2.313842    1.238175
     60          1           0       -4.892499    2.654147    1.911771
     61          1           0       -8.418833    2.739369    2.249151
     62          1           0      -10.750149    3.031362    1.368169
     63          1           0      -11.570222    1.491810   -0.405452
     64          1           0      -11.250805   -0.326806   -1.889328
     65          1           0       -9.826085   -2.137034   -2.831047
     66          1           0       -7.561099   -2.469692   -1.995350
     67          1           0       -6.504270   -3.385916   -0.549757
     68          1           0       -4.125268   -3.985169   -0.524863
     69          1           0       -2.402551   -2.239973   -0.230351
     70          1           0       -1.652806   -0.420659   -1.881962
     71          1           0        0.753871   -0.663224   -2.348973
     72          1           0        2.510301   -2.313615   -1.411955
     73          1           0        4.892659   -2.653858   -2.085576
     74          1           0        8.418583   -2.739745   -2.422080
 ---------------------------------------------------------------------

 SCF Done:  E(RB3LYP) =  -1919.02398306     A.U. after   15 cycles

 Excitation energies and oscillator strengths:

 Excited state symmetry could not be determined.
 Excited State   1:      Triplet-?Sym    2.1475 eV  577.34 nm  f=0.0000  <S**2>=2.000
     156 ->161         0.12450
     156 ->163         0.15598
     157 ->162        -0.16876
     158 ->161        -0.40883
     159 ->160         0.47954
 This state for optimization and/or second-order correction.
 Total Energy, E(TD-HF/TD-DFT) =  -1918.94506371
 Copying the excited state density for this state as the 1-particle RhoCI density.

 Excited state symmetry could not be determined.
 Excited State   2:      Triplet-?Sym    2.1624 eV  573.37 nm  f=0.0000  <S**2>=2.000
     156 ->160         0.15575
     156 ->162         0.12765
     157 ->161         0.10659
     157 ->163        -0.14781
     158 ->160        -0.42721
     159 ->161         0.44106

 Excited state symmetry could not be determined.
 Excited State   3:      Singlet-?Sym    3.2398 eV  382.69 nm  f=0.8197  <S**2>=0.000
     158 ->161        -0.23600
     159 ->160         0.65798

 Excited state symmetry could not be determined.
 Excited State   4:      Singlet-?Sym    3.3214 eV  373.29 nm  f=0.0000  <S**2>=0.000
     156 ->160         0.14617
     157 ->161        -0.25313
     158 ->160         0.55816
     159 ->161        -0.28266

 Alpha  occ. eigenvalues --  -19.18291 -19.18290 -10.25191 -10.25190 -10.25080
 Alpha  occ. eigenvalues --  -10.25079 -10.21216 -10.21216 -10.21031 -10.21031
 Alpha  occ. eigenvalues --  -10.20818 -10.20817 -10.20691 -10.20690 -10.20633
 Alpha  occ. eigenvalues --  -10.20633 -10.20286 -10.20286 -10.20219 -10.20218
 Alpha  occ. eigenvalues --  -10.20078 -10.20078 -10.19305 -10.19304 -10.19292
 Alpha  occ. eigenvalues --  -10.19290 -10.19269 -10.19269 -10.19258 -10.19258
 Alpha  occ. eigenvalues --  -10.19257 -10.19257 -10.19232 -10.19232 -10.19209
 Alpha  occ. eigenvalues --  -10.19209 -10.19204 -10.19204 -10.19145 -10.19144
 Alpha  occ. eigenvalues --  -10.19108 -10.19108 -10.18947 -10.18947 -10.18778
 Alpha  occ. eigenvalues --  -10.18778 -10.18691 -10.18690  -1.07553  -1.07552
 Alpha  occ. eigenvalues --   -0.88388  -0.88078  -0.87641  -0.87593  -0.85973
 Alpha  occ. eigenvalues --   -0.83427  -0.82660  -0.82399  -0.82395  -0.79583
 Alpha  occ. eigenvalues --   -0.78422  -0.78351  -0.77585  -0.75182  -0.74946
 Alpha  occ. eigenvalues --   -0.74850  -0.74637  -0.74137  -0.74064  -0.72064
 Alpha  occ. eigenvalues --   -0.71411  -0.71394  -0.69901  -0.65009  -0.64035
 Alpha  occ. eigenvalues --   -0.63944  -0.63326  -0.63245  -0.63126  -0.61416
 Alpha  occ. eigenvalues --   -0.60925  -0.60460  -0.60309  -0.59101  -0.58807
 Alpha  occ. eigenvalues --   -0.58223  -0.57295  -0.53466  -0.53353  -0.52435
 Alpha  occ. eigenvalues --   -0.52121  -0.51582  -0.50814  -0.50598  -0.50592
 Alpha  occ. eigenvalues --   -0.50403  -0.50117  -0.49304  -0.49009  -0.47630
 Alpha  occ. eigenvalues --   -0.46837  -0.46315  -0.46138  -0.45454  -0.45276
 Alpha  occ. eigenvalues --   -0.45261  -0.44366  -0.43896  -0.43630  -0.43481
 Alpha  occ. eigenvalues --   -0.43396  -0.43126  -0.43095  -0.42113  -0.41873
 Alpha  occ. eigenvalues --   -0.41402  -0.41380  -0.40974  -0.40953  -0.39731
 Alpha  occ. eigenvalues --   -0.39718  -0.39019  -0.38871  -0.38591  -0.38513
 Alpha  occ. eigenvalues --   -0.38362  -0.37796  -0.37528  -0.37159  -0.37057
 Alpha  occ. eigenvalues --   -0.36122  -0.36078  -0.35211  -0.35132  -0.34507
 Alpha  occ. eigenvalues --   -0.34201  -0.33661  -0.33405  -0.33400  -0.32735
 Alpha  occ. eigenvalues --   -0.32692  -0.32371  -0.32299  -0.30890  -0.30869
 Alpha  occ. eigenvalues --   -0.28290  -0.28282  -0.27974  -0.26987  -0.25441
 Alpha  occ. eigenvalues --   -0.24749  -0.24702  -0.24655  -0.24514  -0.24485
 Alpha  occ. eigenvalues --   -0.20909  -0.20338  -0.19943  -0.19623
 Alpha virt. eigenvalues --   -0.06119  -0.05793  -0.03923  -0.03000  -0.01683
 Alpha virt. eigenvalues --   -0.01611  -0.01078  -0.01002  -0.00849  -0.00178
 Alpha virt. eigenvalues --    0.02417   0.03520   0.04861   0.05267   0.08682

 Mulliken charges:
               1
     1  C   -0.139180
     2  C   -0.193245
     3  C    0.116486
     4  C   -0.192253
     5  C   -0.129538
     6  C   -0.204547
     7  C    0.067744
     8  C    0.061695
     9  C   -0.211494
    10  C   -0.127336
    11  C   -0.197458
    12  C    0.077564
    13  C    0.034913
    14  C    0.064969
    15  C   -0.175658
    16  C   -0.174238
    17  C    0.064968
    18  C    0.034900
    19  C   -0.187287
    20  C   -0.178300
    21  C    0.266632
    22  O   -0.562490
    23  C    0.265016
    24  C   -0.180783
    25  C   -0.139170
    26  C   -0.193254
    27  C    0.116491
    28  C   -0.192253
    29  C   -0.129540
    30  C   -0.204555
    31  C    0.067742
    32  C    0.061690
    33  C   -0.211493
    34  C   -0.127337
    35  C   -0.197464
    36  C    0.077578
    37  C    0.041593
    38  C    0.071971
    39  C   -0.175656
    40  C   -0.174238
    41  C   -0.187300
    42  C   -0.178286
    43  C    0.266619
    44  O   -0.562493
    45  C    0.264993
    46  C   -0.180767
    47  C    0.071980
    48  C    0.041601
    49  H    0.134065
    50  H    0.129067
    51  H    0.132825
    52  H    0.132730
    53  H    0.137305
    54  H    0.140796
    55  H    0.132600
    56  H    0.149781
    57  H    0.142293
    58  H    0.137155
    59  H    0.137034
    60  H    0.140839
    61  H    0.138744
    62  H    0.134064
    63  H    0.129067
    64  H    0.132825
    65  H    0.132730
    66  H    0.137311
    67  H    0.140799
    68  H    0.132600
    69  H    0.149780
    70  H    0.142292
    71  H    0.137155
    72  H    0.137034
    73  H    0.140836
    74  H    0.138740
 Sum of Mulliken charges =  -0.00000

 Dipole moment (field-independent basis, Debye):
    X=             -0.0002    Y=             -0.0004    Z=              0.0004  Tot=              0.0006
 Quadrupole moment (field-independent basis, Debye-Ang):
   XX=           -237.4480   YY=           -249.9984   ZZ=           -268.2993
   XY=             -1.9502   XZ=             19.8001   YZ=             16.6166

 Normal termination of Gaussian 16 at Sat Nov  5 10:38:53 2022.
