 Gaussian 16, Revision B.01,
 Gaussian 16:  ES64L-G16RevB.01 20-Dec-2017

 -----------------------------
 #p b3lyp/6-31g(d) opt SCF=XQC
 -----------------------------

 ------------------------------
 Gaussian input prepared by ASE
 ------------------------------
 Symbolic Z-matrix:
 Charge =  0 Multiplicity = 1

 SCF Done:  E(RB3LYP) =  -1919.01159866     A.U. after   15 cycles
 SCF Done:  E(RB3LYP) =  -1919.02029569     A.U. after   12 cycles
 SCF Done:  E(RB3LYP) =  -1919.02069418     A.U. after   12 cycles
 SCF Done:  E(RB3LYP) =  -1919.02091202     A.U. after   10 cycles
 SCF Done:  E(RB3LYP) =  -1919.02095966     A.U. after   10 cycles
 SCF Done:  E(RB3LYP) =  -1919.02099921     A.U. after   10 cycles
 SCF Done:  E(RB3LYP) =  -1919.02105359     A.U. after   10 cycles
 SCF Done:  E(RB3LYP) =  -1919.02107386     A.U. after   10 cycles
 SCF Done:  E(RB3LYP) =  -1919.02132400     A.U. after   11 cycles
 SCF Done:  E(RB3LYP) =  -1919.02033908     A.U. after   13 cycles
 SCF Done:  E(RB3LYP) =  -1919.02364985     A.U. after   11 cycles
 SCF Done:  E(RB3LYP) =  -1919.02372428     A.U. after   12 cycles
 SCF Done:  E(RB3LYP) =  -1919.02396427     A.U. after   11 cycles
 SCF Done:  E(RB3LYP) =  -1919.02398667     A.U. after   11 cycles
 SCF Done:  E(RB3LYP) =  -1919.02398838     A.U. after    7 cycles
 SCF Done:  E(RB3LYP) =  -1919.02398934     A.U. after    9 cycles
 SCF Done:  E(RB3LYP) =  -1919.02398954     A.U. after    7 cycles
 SCF Done:  E(RB3LYP) =  -1919.02398957     A.U. after    6 cycles
 SCF Done:  E(RB3LYP) =  -1919.02398961     A.U. after    7 cycles
 SCF Done:  E(RB3LYP) =  -1919.02398963     A.U. after    7 cycles
 Optimization completed.
    -- Stationary point found.

                         Standard orientation:
 ---------------------------------------------------------------------
 Center     Atomic      Atomic             Coordinates (Angstroms)
 Number     Number       Type             X           Y           Z
 ---------------------------------------------------------------------
      1          6           0       10.147330    2.333597   -0.306560
      2          6           0       10.581146    1.092570   -0.703742
      3          6           0        9.740338   -0.045172   -0.586718
      4          6           0       10.223562   -1.305274   -1.019728
      5          6           0        9.426439   -2.416956   -0.932535
      6          6           0        8.133921   -2.311333   -0.387900
      7          6           0        7.600903   -1.120289    0.104922
      8          6           0        6.204905   -1.205207    0.640588
      9          6           0        5.753692   -2.434431    1.111874
     10          6           0        4.386595   -2.713148    1.294873
     11          6           0        3.436568   -1.782350    0.948251
     12          6           0        3.823158   -0.473002    0.554256
     13          6           0        2.846308    0.545840    0.275740
     14          6           0        1.394828    0.241204    0.152143
     15          6           0        0.919501   -0.744205   -0.729822
     16          6           0       -0.445013   -0.979906   -0.877126
     17          6           0       -1.394720   -0.241199   -0.151833
     18          6           0       -2.846198   -0.545848   -0.275431
     19          6           0       -3.271685   -1.854549   -0.130916
     20          6           0       -4.623842   -2.202540   -0.294340
     21          6           0       -5.572528   -1.225754   -0.500961
     22          8           0       -6.803901   -1.675923   -0.928345
     23          6           0       -8.010290   -1.384392   -0.336865
     24          6           0       -8.847250   -2.475753   -0.209837
     25          6           0      -10.147785   -2.333393    0.305369
     26          6           0      -10.581571   -1.092375    0.702619
     27          6           0       -9.740556    0.045260    0.586089
     28          6           0      -10.223727    1.305348    1.019210
     29          6           0       -9.426425    2.416939    0.932493
     30          6           0       -8.133791    2.311261    0.388141
     31          6           0       -7.600824    1.120238   -0.104778
     32          6           0       -6.204804    1.205155   -0.640347
     33          6           0       -5.753607    2.434407   -1.111564
     34          6           0       -4.386512    2.713135   -1.294564
     35          6           0       -3.436490    1.782320   -0.947979
     36          6           0       -3.823067    0.472965   -0.553982
     37          6           0       -5.227646    0.152110   -0.534351
     38          6           0       -8.409727   -0.068199    0.033979
     39          6           0       -0.919391    0.744204    0.730140
     40          6           0        0.445123    0.979906    0.877445
     41          6           0        3.271811    1.854542    0.131273
     42          6           0        4.623976    2.202513    0.294722
     43          6           0        5.572630    1.225694    0.501287
     44          8           0        6.804063    1.675695    0.928717
     45          6           0        8.010236    1.384393    0.336656
     46          6           0        8.846974    2.475856    0.209141
     47          6           0        8.409674    0.068205   -0.034201
     48          6           0        5.227734   -0.152163    0.534614
     49          1           0       10.790608    3.204216   -0.396618
     50          1           0       11.576941    0.956709   -1.116910
     51          1           0       11.225251   -1.363827   -1.437462
     52          1           0        9.774956   -3.381047   -1.292369
     53          1           0        7.517602   -3.201422   -0.391750
     54          1           0        6.470356   -3.219321    1.325524
     55          1           0        4.086996   -3.687000    1.672095
     56          1           0        2.382284   -2.020208    1.027128
     57          1           0        1.627968   -1.313731   -1.324770
     58          1           0       -0.786000   -1.731812   -1.583619
     59          1           0       -2.544646   -2.632041    0.084835
     60          1           0       -4.937539   -3.241261   -0.299889
     61          1           0       -8.468215   -3.442807   -0.523126
     62          1           0      -10.791217   -3.203938    0.395036
     63          1           0      -11.577488   -0.956445    1.115469
     64          1           0      -11.225538    1.363955    1.436647
     65          1           0       -9.774911    3.381001    1.292438
     66          1           0       -7.517359    3.201274    0.392233
     67          1           0       -6.470292    3.219296   -1.325154
     68          1           0       -4.086913    3.686998   -1.671755
     69          1           0       -2.382207    2.020176   -1.026863
     70          1           0       -1.627856    1.313722    1.325097
     71          1           0        0.786110    1.731806    1.583943
     72          1           0        2.544777    2.632050   -0.084437
     73          1           0        4.937685    3.241230    0.300340
     74          1           0        8.467944    3.442894    0.522486
 ---------------------------------------------------------------------

 The electronic state is 1-A.
 Alpha  occ. eigenvalues --  -19.18292 -19.18290 -10.25191 -10.25190 -10.25080
 Alpha  occ. eigenvalues --  -10.25079 -10.21216 -10.21216 -10.21031 -10.21030
 Alpha  occ. eigenvalues --  -10.20818 -10.20817 -10.20691 -10.20690 -10.20633
 Alpha  occ. eigenvalues --  -10.20633 -10.20286 -10.20286 -10.20219 -10.20218
 Alpha  occ. eigenvalues --  -10.20078 -10.20077 -10.19305 -10.19305 -10.19292
 Alpha  occ. eigenvalues --  -10.19290 -10.19269 -10.19269 -10.19258 -10.19258
 Alpha  occ. eigenvalues --  -10.19257 -10.19257 -10.19232 -10.19232 -10.19209
 Alpha  occ. eigenvalues --  -10.19209 -10.19204 -10.19204 -10.19144 -10.19144
 Alpha  occ. eigenvalues --  -10.19108 -10.19108 -10.18947 -10.18947 -10.18778
 Alpha  occ. eigenvalues --  -10.18778 -10.18691 -10.18690  -1.07553  -1.07552
 Alpha  occ. eigenvalues --   -0.88388  -0.88078  -0.87641  -0.87593  -0.85973
 Alpha  occ. eigenvalues --   -0.83427  -0.82660  -0.82399  -0.82395  -0.79583
 Alpha  occ. eigenvalues --   -0.78422  -0.78351  -0.77585  -0.75182  -0.74946
 Alpha  occ. eigenvalues --   -0.74850  -0.74637  -0.74137  -0.74064  -0.72064
 Alpha  occ. eigenvalues --   -0.71411  -0.71394  -0.69901  -0.65009  -0.64035
 Alpha  occ. eigenvalues --   -0.63944  -0.63326  -0.63245  -0.63126  -0.61416
 Alpha  occ. eigenvalues --   -0.60925  -0.60460  -0.60309  -0.59101  -0.58807
 Alpha  occ. eigenvalues --   -0.58223  -0.57295  -0.53466  -0.53353  -0.52435
 Alpha  occ. eigenvalues --   -0.52121  -0.51582  -0.50814  -0.50598  -0.50592
 Alpha  occ. eigenvalues --   -0.50403  -0.50117  -0.49304  -0.49009  -0.47630
 Alpha  occ. eigenvalues --   -0.46837  -0.46315  -0.46138  -0.45454  -0.45276
 Alpha  occ. eigenvalues --   -0.45261  -0.44366  -0.43896  -0.43630  -0.43481
 Alpha  occ. eigenvalues --   -0.43396  -0.43126  -0.43095  -0.42113  -0.41873
 Alpha  occ. eigenvalues --   -0.41402  -0.41380  -0.40974  -0.40953  -0.39731
 Alpha  occ. eigenvalues --   -0.39718  -0.39019  -0.38871  -0.38591  -0.38513
 Alpha  occ. eigenvalues --   -0.38363  -0.37796  -0.37528  -0.37159  -0.37057
 Alpha  occ. eigenvalues --   -0.36122  -0.36078  -0.35211  -0.35132  -0.34507
 Alpha  occ. eigenvalues --   -0.34201  -0.33661  -0.33405  -0.33400  -0.32735
 Alpha  occ. eigenvalues --   -0.32692  -0.32371  -0.32299  -0.30890  -0.30869
 Alpha  occ. eigenvalues --   -0.28290  -0.28282  -0.27974  -0.26987  -0.25441
 Alpha  occ. eigenvalues --   -0.24749  -0.24702  -0.24655  -0.24514  -0.24485
 Alpha  occ. eigenvalues --   -0.20909  -0.20338  -0.19943  -0.19623
 Alpha virt. eigenvalues --   -0.06119  -0.05793  -0.03923  -0.03000  -0.01683
 Alpha virt. eigenvalues --   -0.01611  -0.01078  -0.01002  -0.00848  -0.00178
 Alpha virt. eigenvalues --    0.02417   0.03520   0.04861   0.05267   0.08682

 Mulliken charges:
               1
     1  C   -0.139187
     2  C   -0.193237
     3  C    0.116478
     4  C   -0.192253
     5  C   -0.129534
     6  C   -0.204546
     7  C    0.067752
     8  C    0.061745
     9  C   -0.211509
    10  C   -0.127328
    11  C   -0.197452
    12  C    0.077558
    13  C    0.034926
    14  C    0.064964
    15  C   -0.175650
    16  C   -0.174240
    17  C    0.064963
    18  C    0.034912
    19  C   -0.187302
    20  C   -0.178300
    21  C    0.266643
    22  O   -0.562493
    23  C    0.264995
    24  C   -0.180781
    25  C   -0.139177
    26  C   -0.193247
    27  C    0.116483
    28  C   -0.192252
    29  C   -0.129536
    30  C   -0.204554
    31  C    0.067749
    32  C    0.061740
    33  C   -0.211509
    34  C   -0.127329
    35  C   -0.197458
    36  C    0.077572
    37  C    0.041552
    38  C    0.071972
    39  C   -0.175647
    40  C   -0.174240
    41  C   -0.187315
    42  C   -0.178286
    43  C    0.266631
    44  O   -0.562495
    45  C    0.264972
    46  C   -0.180766
    47  C    0.071981
    48  C    0.041560
    49  H    0.134066
    50  H    0.129067
    51  H    0.132826
    52  H    0.132729
    53  H    0.137304
    54  H    0.140798
    55  H    0.132599
    56  H    0.149779
    57  H    0.142292
    58  H    0.137155
    59  H    0.137036
    60  H    0.140842
    61  H    0.138744
    62  H    0.134065
    63  H    0.129067
    64  H    0.132825
    65  H    0.132728
    66  H    0.137310
    67  H    0.140800
    68  H    0.132600
    69  H    0.149778
    70  H    0.142291
    71  H    0.137155
    72  H    0.137036
    73  H    0.140839
    74  H    0.138740
 Sum of Mulliken charges =  -0.00000

 Dipole moment (field-independent basis, Debye):
    X=             -0.0002    Y=              0.0001    Z=             -0.0006  Tot=              0.0006
 Quadrupole moment (field-independent basis, Debye-Ang):
   XX=           -237.8877   YY=           -239.9574   ZZ=           -277.8997
   XY=             -8.6521   XZ=            -18.1734   YZ=             -0.1872

 1\1\GINC-NODE96\FOpt\RB3LYP\6-31G(d)\C46H26O2\WYKGROUP\05-Nov-2022\0\\
 #p b3lyp/6-31g(d) opt SCF=XQC\\Gaussian input prepared by ASE\\0,1\C,1
 0.1173044727,-2.2364464035,-1.1574744452\C,10.5697827322,-1.386002958,
 -0.1786448327\C,9.7433799718,-0.3461962452,0.3223255878\C,10.245722715
 6,0.5015260138,1.3410886441\C,9.4628326588,1.5032092349,1.8534929235\C
 ,8.1658500655,1.7065298862,1.3486326209\C,7.6142771648,0.9492945567,0.
 31522526\C,6.2163920692,1.311606782,-0.0817701799\C,5.7786658905,2.610
 425374,0.1593953926\C,4.4143098302,2.9548657203,0.1640498204\C,3.45414

 Normal termination of Gaussian 16 at Sat Nov  5 00:39:52 2022.
