 Gaussian 16, Revision B.01,
 Gaussian 16:  ES64L-G16RevB.01 20-Dec-2017

 -----------------------------
 #p b3lyp/6-31g(d) opt SCF=XQC
 -----------------------------

 ------------------------------
 Gaussian input prepared by ASE
 ------------------------------
 Symbolic Z-matrix:
 Charge =  0 Multiplicity = 1

 SCF Done:  E(RB3LYP) =  -1753.76378475     A.U. after   16 cycles
 SCF Done:  E(RB3LYP) =  -1753.77074532     A.U. after   12 cycles
 SCF Done:  E(RB3LYP) =  -1753.77123817     A.U. after   12 cycles
 SCF Done:  E(RB3LYP) =  -1753.77133171     A.U. after   11 cycles
 SCF Done:  E(RB3LYP) =  -1753.77136312     A.U. after   10 cycles
 SCF Done:  E(RB3LYP) =  -1753.77138746     A.U. after   10 cycles
 SCF Done:  E(RB3LYP) =  -1753.77139875     A.U. after   11 cycles
 SCF Done:  E(RB3LYP) =  -1753.77140540     A.U. after   10 cycles
 SCF Done:  E(RB3LYP) =  -1753.77141071     A.U. after   10 cycles
 SCF Done:  E(RB3LYP) =  -1753.77141844     A.U. after   11 cycles
 SCF Done:  E(RB3LYP) =  -1753.77180431     A.U. after   11 cycles
 SCF Done:  E(RB3LYP) =  -1753.77185130     A.U. after   11 cycles
 SCF Done:  E(RB3LYP) =  -1753.77188524     A.U. after   10 cycles
 SCF Done:  E(RB3LYP) =  -1753.77190938     A.U. after   10 cycles
 SCF Done:  E(RB3LYP) =  -1753.77191971     A.U. after   10 cycles
 SCF Done:  E(RB3LYP) =  -1753.77192408     A.U. after    9 cycles
 SCF Done:  E(RB3LYP) =  -1753.77192739     A.U. after   10 cycles
 SCF Done:  E(RB3LYP) =  -1753.77193073     A.U. after   10 cycles
 SCF Done:  E(RB3LYP) =  -1753.77193124     A.U. after    8 cycles
 SCF Done:  E(RB3LYP) =  -1753.77193131     A.U. after    7 cycles
 Optimization completed.
    -- Stationary point found.

                         Standard orientation:
 ---------------------------------------------------------------------
 Center     Atomic      Atomic             Coordinates (Angstroms)
 Number     Number       Type             X           Y           Z
 ---------------------------------------------------------------------
      1          8           0       -1.656299   -0.271268    2.516195
      2         15           0       -1.626193   -0.227054    1.015665
      3          6           0       -0.755999   -1.635007    0.283201
      4          6           0        0.637633   -1.787567    0.360495
      5          6           0        1.287462   -2.947160   -0.067474
      6          6           0        2.763069   -3.105865    0.016424
      7          6           0        3.547208   -2.358111    0.911742
      8          6           0        4.925503   -2.550760    0.931902
      9          6           0        5.490900   -3.489316    0.069925
     10          6           0        4.632754   -4.202761   -0.767871
     11          7           0        3.310346   -4.024507   -0.802974
     12          6           0        0.499086   -3.991478   -0.588442
     13          6           0       -0.879488   -3.881939   -0.649036
     14          6           0       -1.513752   -2.711754   -0.213621
     15          8           0       -2.885859   -2.746369   -0.301469
     16          6           0       -3.665032   -1.617759   -0.295417
     17          6           0       -4.967786   -1.758148   -0.773097
     18          6           0       -5.777371   -0.625030   -0.853784
     19          6           0       -5.295085    0.641157   -0.518331
     20          6           0       -3.988490    0.752209   -0.047773
     21          6           0       -3.180409   -0.377953    0.140152
     22          8           0       -3.520555    2.019128    0.201672
     23          6           0       -2.176418    2.319757    0.141450
     24          6           0       -1.885507    3.655901   -0.150829
     25          6           0       -0.568268    4.071232   -0.258139
     26          6           0        0.495019    3.165115   -0.084118
     27          6           0        1.897287    3.635151   -0.233749
     28          6           0        2.962642    2.751428   -0.477837
     29          6           0        4.253220    3.258369   -0.597280
     30          6           0        4.454272    4.633079   -0.483892
     31          6           0        3.335078    5.437491   -0.265401
     32          7           0        2.093233    4.964833   -0.141720
     33          6           0        0.184075    1.842617    0.246250
     34          6           0       -1.139190    1.394521    0.366245
     35          1           0        1.221939   -0.973675    0.775749
     36          1           0        3.086232   -1.659863    1.602465
     37          1           0        5.546095   -1.984355    1.621199
     38          1           0        6.560493   -3.674373    0.052906
     39          1           0        5.027874   -4.956390   -1.447682
     40          1           0        0.994723   -4.890096   -0.937839
     41          1           0       -1.493807   -4.690488   -1.031845
     42          1           0       -5.317744   -2.734633   -1.089247
     43          1           0       -6.792808   -0.724475   -1.226102
     44          1           0       -5.898431    1.534084   -0.638723
     45          1           0       -2.709717    4.344481   -0.306492
     46          1           0       -0.334600    5.104440   -0.488231
     47          1           0        2.784799    1.688006   -0.597730
     48          1           0        5.087625    2.588565   -0.787557
     49          1           0        5.442966    5.072774   -0.571539
     50          1           0        3.441488    6.518324   -0.183551
     51          1           0        0.987968    1.144762    0.450771
 ---------------------------------------------------------------------

 The electronic state is 1-A.
 Alpha  occ. eigenvalues --  -77.16647 -19.21621 -19.21320 -19.09043 -14.33634
 Alpha  occ. eigenvalues --  -14.33454 -10.27618 -10.27544 -10.27411 -10.27316
 Alpha  occ. eigenvalues --  -10.24188 -10.24025 -10.23123 -10.22958 -10.21744
 Alpha  occ. eigenvalues --  -10.21602 -10.21533 -10.21337 -10.21237 -10.21214
 Alpha  occ. eigenvalues --  -10.21054 -10.20969 -10.20800 -10.20769 -10.20645
 Alpha  occ. eigenvalues --  -10.20643 -10.20487 -10.20454 -10.20336 -10.20335
 Alpha  occ. eigenvalues --  -10.20231 -10.20157 -10.20079 -10.20052  -6.62323
 Alpha  occ. eigenvalues --   -4.78645  -4.78576  -4.78457  -1.10612  -1.10259
 Alpha  occ. eigenvalues --   -0.95109  -0.95034  -0.94919  -0.88159  -0.87241
 Alpha  occ. eigenvalues --   -0.86450  -0.81144  -0.80999  -0.80382  -0.79683
 Alpha  occ. eigenvalues --   -0.78741  -0.77115  -0.76240  -0.75964  -0.74743
 Alpha  occ. eigenvalues --   -0.72862  -0.67407  -0.66303  -0.66141  -0.65095
 Alpha  occ. eigenvalues --   -0.63691  -0.63165  -0.62657  -0.61129  -0.60891
 Alpha  occ. eigenvalues --   -0.58163  -0.57276  -0.55851  -0.55364  -0.53364
 Alpha  occ. eigenvalues --   -0.52947  -0.50420  -0.50198  -0.49548  -0.49227
 Alpha  occ. eigenvalues --   -0.48573  -0.48251  -0.47200  -0.47127  -0.46248
 Alpha  occ. eigenvalues --   -0.45855  -0.45797  -0.45192  -0.44909  -0.44528
 Alpha  occ. eigenvalues --   -0.42811  -0.42672  -0.41895  -0.41814  -0.41381
 Alpha  occ. eigenvalues --   -0.41041  -0.40802  -0.40053  -0.39627  -0.39192
 Alpha  occ. eigenvalues --   -0.38506  -0.38080  -0.37462  -0.37249  -0.36963
 Alpha  occ. eigenvalues --   -0.36675  -0.35780  -0.35333  -0.34267  -0.33733
 Alpha  occ. eigenvalues --   -0.29907  -0.29659  -0.28818  -0.28448  -0.27967
 Alpha  occ. eigenvalues --   -0.27626  -0.26908  -0.26294  -0.26114  -0.25470
 Alpha  occ. eigenvalues --   -0.25441  -0.25115  -0.23220  -0.21627
 Alpha virt. eigenvalues --   -0.05280  -0.04883  -0.04466  -0.02990  -0.02500
 Alpha virt. eigenvalues --   -0.02018  -0.01579  -0.00135   0.01874   0.02706
 Alpha virt. eigenvalues --    0.04373   0.07858   0.08423   0.09204   0.10216

 Mulliken charges:
               1
     1  O   -0.500349
     2  P    0.805446
     3  C   -0.117755
     4  C   -0.246772
     5  C    0.129650
     6  C    0.238947
     7  C   -0.168724
     8  C   -0.105692
     9  C   -0.144081
    10  C    0.045888
    11  N   -0.480615
    12  C   -0.165364
    13  C   -0.176193
    14  C    0.332155
    15  O   -0.552424
    16  C    0.344029
    17  C   -0.172879
    18  C   -0.141103
    19  C   -0.171063
    20  C    0.342669
    21  C   -0.230514
    22  O   -0.554197
    23  C    0.331178
    24  C   -0.172934
    25  C   -0.168640
    26  C    0.129324
    27  C    0.246104
    28  C   -0.165090
    29  C   -0.104107
    30  C   -0.144118
    31  C    0.046741
    32  N   -0.482212
    33  C   -0.242405
    34  C   -0.118960
    35  H    0.148164
    36  H    0.150797
    37  H    0.147279
    38  H    0.141616
    39  H    0.143813
    40  H    0.168456
    41  H    0.152945
    42  H    0.149176
    43  H    0.146823
    44  H    0.149370
    45  H    0.152170
    46  H    0.168899
    47  H    0.142172
    48  H    0.145273
    49  H    0.141109
    50  H    0.143721
    51  H    0.142279
 Sum of Mulliken charges =  -0.00000

 Dipole moment (field-independent basis, Debye):
    X=              3.4543    Y=              0.0379    Z=             -3.8223  Tot=              5.1520
 Quadrupole moment (field-independent basis, Debye-Ang):
   XX=           -152.4351   YY=           -189.0122   ZZ=           -213.5803
   XY=              2.1382   XZ=             13.8572   YZ=             -0.5318

 Normal termination of Gaussian 16 at Sat Nov  5 00:26:12 2022.
