 Gaussian 16, Revision B.01,
 Gaussian 16:  ES64L-G16RevB.01 20-Dec-2017

 -------------------------------------------------------------------
 #p b3lyp/6-31g(d) 6D 10F nosymm GFInput td=(50-50,nstate=2) SCF=XQC
 -------------------------------------------------------------------

 ------------------------------
 Gaussian input prepared by ASE
 ------------------------------
 Symbolic Z-matrix:
 Charge =  0 Multiplicity = 1

                          Input orientation:
 ---------------------------------------------------------------------
 Center     Atomic      Atomic             Coordinates (Angstroms)
 Number     Number       Type             X           Y           Z
 ---------------------------------------------------------------------
      1          8           0       -1.291731   -0.129579   -3.052899
      2         15           0       -0.460179   -0.889296   -2.060022
      3          6           0       -1.391193   -1.385459   -0.589271
      4          6           0       -1.813229   -0.467189    0.385471
      5          6           0       -2.661307   -0.827822    1.434661
      6          6           0       -3.106930    0.146968    2.464635
      7          6           0       -3.110473    1.533186    2.232274
      8          6           0       -3.532329    2.390509    3.244328
      9          6           0       -3.950891    1.849919    4.459289
     10          6           0       -3.936173    0.460906    4.592503
     11          7           0       -3.528450   -0.373352    3.633573
     12          6           0       -3.101610   -2.164117    1.497861
     13          6           0       -2.726762   -3.084537    0.534298
     14          6           0       -1.876756   -2.704020   -0.511602
     15          8           0       -1.607592   -3.706203   -1.414250
     16          6           0       -0.536354   -3.674964   -2.270042
     17          6           0       -0.159241   -4.890706   -2.839964
     18          6           0        0.967557   -4.924394   -3.661600
     19          6           0        1.746018   -3.786317   -3.878718
     20          6           0        1.347775   -2.586332   -3.293583
     21          6           0        0.166482   -2.494869   -2.544079
     22          8           0        2.175351   -1.503688   -3.464669
     23          6           0        2.209971   -0.467640   -2.555758
     24          6           0        3.416094    0.238740   -2.515370
     25          6           0        3.575474    1.288204   -1.625225
     26          6           0        2.539951    1.658002   -0.746106
     27          6           0        2.751538    2.770144    0.217247
     28          6           0        1.957194    2.928938    1.365867
     29          6           0        2.203574    3.999199    2.220669
     30          6           0        3.241548    4.880198    1.921409
     31          6           0        3.993897    4.631513    0.772698
     32          7           0        3.764657    3.613864   -0.059602
     33          6           0        1.328439    0.965070   -0.829255
     34          6           0        1.136335   -0.098009   -1.723223
     35          1           0       -1.469499    0.558605    0.308884
     36          1           0       -2.818083    1.934220    1.267480
     37          1           0       -3.545812    3.464681    3.079848
     38          1           0       -4.290199    2.480098    5.275569
     39          1           0       -4.268076   -0.006828    5.518400
     40          1           0       -3.747901   -2.458504    2.316941
     41          1           0       -3.077902   -4.110848    0.566990
     42          1           0       -0.732961   -5.784079   -2.619342
     43          1           0        1.269736   -5.867043   -4.108501
     44          1           0        2.657940   -3.819564   -4.464493
     45          1           0        4.218469   -0.065870   -3.179525
     46          1           0        4.508723    1.838207   -1.585163
     47          1           0        1.175507    2.214969    1.602685
     48          1           0        1.599402    4.135149    3.113736
     49          1           0        3.470630    5.727675    2.560028
     50          1           0        4.823319    5.284957    0.505692
     51          1           0        0.496054    1.277305   -0.208998
 ---------------------------------------------------------------------

 SCF Done:  E(RB3LYP) =  -1753.77193077     A.U. after   16 cycles

 Excitation energies and oscillator strengths:

 Excited state symmetry could not be determined.
 Excited State   1:      Triplet-?Sym    3.0594 eV  405.26 nm  f=0.0000  <S**2>=2.000
     115 ->120        -0.13011
     116 ->120        -0.11067
     117 ->122        -0.12226
     118 ->121        -0.37540
     118 ->123        -0.10291
     119 ->120         0.41935
     119 ->121         0.17292
 This state for optimization and/or second-order correction.
 Total Energy, E(TD-HF/TD-DFT) =  -1753.65950068
 Copying the excited state density for this state as the 1-particle RhoCI density.

 Excited state symmetry could not be determined.
 Excited State   2:      Triplet-?Sym    3.0727 eV  403.50 nm  f=0.0000  <S**2>=2.000
     115 ->121         0.11405
     118 ->120         0.40451
     119 ->120         0.17469
     119 ->121        -0.40289

 Excited state symmetry could not be determined.
 Excited State   3:      Singlet-?Sym    3.9284 eV  315.61 nm  f=0.1907  <S**2>=0.000
     119 ->120         0.67467
     119 ->122         0.16184

 Excited state symmetry could not be determined.
 Excited State   4:      Singlet-?Sym    4.1267 eV  300.44 nm  f=0.0074  <S**2>=0.000
     117 ->120         0.10432
     119 ->120        -0.16477
     119 ->122         0.65474

 Alpha  occ. eigenvalues --  -77.16647 -19.21621 -19.21320 -19.09042 -14.33634
 Alpha  occ. eigenvalues --  -14.33455 -10.27618 -10.27545 -10.27411 -10.27316
 Alpha  occ. eigenvalues --  -10.24187 -10.24025 -10.23123 -10.22958 -10.21744
 Alpha  occ. eigenvalues --  -10.21602 -10.21533 -10.21337 -10.21237 -10.21214
 Alpha  occ. eigenvalues --  -10.21054 -10.20969 -10.20800 -10.20769 -10.20645
 Alpha  occ. eigenvalues --  -10.20643 -10.20487 -10.20454 -10.20336 -10.20335
 Alpha  occ. eigenvalues --  -10.20231 -10.20157 -10.20079 -10.20052  -6.62324
 Alpha  occ. eigenvalues --   -4.78645  -4.78576  -4.78457  -1.10612  -1.10259
 Alpha  occ. eigenvalues --   -0.95109  -0.95034  -0.94919  -0.88159  -0.87241
 Alpha  occ. eigenvalues --   -0.86450  -0.81144  -0.80999  -0.80382  -0.79683
 Alpha  occ. eigenvalues --   -0.78742  -0.77115  -0.76240  -0.75964  -0.74743
 Alpha  occ. eigenvalues --   -0.72862  -0.67407  -0.66303  -0.66141  -0.65095
 Alpha  occ. eigenvalues --   -0.63691  -0.63165  -0.62657  -0.61129  -0.60891
 Alpha  occ. eigenvalues --   -0.58163  -0.57276  -0.55851  -0.55364  -0.53364
 Alpha  occ. eigenvalues --   -0.52947  -0.50420  -0.50198  -0.49548  -0.49226
 Alpha  occ. eigenvalues --   -0.48573  -0.48251  -0.47200  -0.47127  -0.46248
 Alpha  occ. eigenvalues --   -0.45855  -0.45797  -0.45192  -0.44909  -0.44528
 Alpha  occ. eigenvalues --   -0.42811  -0.42672  -0.41895  -0.41814  -0.41380
 Alpha  occ. eigenvalues --   -0.41041  -0.40802  -0.40053  -0.39627  -0.39192
 Alpha  occ. eigenvalues --   -0.38506  -0.38080  -0.37462  -0.37249  -0.36963
 Alpha  occ. eigenvalues --   -0.36675  -0.35780  -0.35333  -0.34267  -0.33733
 Alpha  occ. eigenvalues --   -0.29907  -0.29659  -0.28818  -0.28448  -0.27967
 Alpha  occ. eigenvalues --   -0.27626  -0.26908  -0.26294  -0.26114  -0.25470
 Alpha  occ. eigenvalues --   -0.25441  -0.25115  -0.23220  -0.21627
 Alpha virt. eigenvalues --   -0.05280  -0.04883  -0.04466  -0.02990  -0.02500
 Alpha virt. eigenvalues --   -0.02018  -0.01579  -0.00135   0.01874   0.02706
 Alpha virt. eigenvalues --    0.04373   0.07858   0.08423   0.09204   0.10216

 Mulliken charges:
               1
     1  O   -0.500357
     2  P    0.805565
     3  C   -0.117797
     4  C   -0.246775
     5  C    0.129641
     6  C    0.238953
     7  C   -0.168720
     8  C   -0.105689
     9  C   -0.144077
    10  C    0.045873
    11  N   -0.480606
    12  C   -0.165363
    13  C   -0.176193
    14  C    0.332180
    15  O   -0.552434
    16  C    0.344033
    17  C   -0.172886
    18  C   -0.141092
    19  C   -0.171078
    20  C    0.342715
    21  C   -0.230608
    22  O   -0.554203
    23  C    0.331170
    24  C   -0.172932
    25  C   -0.168639
    26  C    0.129321
    27  C    0.246083
    28  C   -0.165066
    29  C   -0.104122
    30  C   -0.144098
    31  C    0.046727
    32  N   -0.482206
    33  C   -0.242396
    34  C   -0.118986
    35  H    0.148166
    36  H    0.150796
    37  H    0.147277
    38  H    0.141616
    39  H    0.143814
    40  H    0.168457
    41  H    0.152944
    42  H    0.149175
    43  H    0.146823
    44  H    0.149370
    45  H    0.152171
    46  H    0.168899
    47  H    0.142174
    48  H    0.145271
    49  H    0.141108
    50  H    0.143722
    51  H    0.142278
 Sum of Mulliken charges =  -0.00000

 Dipole moment (field-independent basis, Debye):
    X=              1.4390    Y=              0.3366    Z=              4.9355  Tot=              5.1520
 Quadrupole moment (field-independent basis, Debye-Ang):
   XX=           -192.3370   YY=           -167.7809   ZZ=           -198.1517
   XY=             -3.3626   XZ=            -15.8937   YZ=             24.7828

 Normal termination of Gaussian 16 at Sat Nov  5 10:14:41 2022.
