 Gaussian 16, Revision B.01,
 Gaussian 16:  ES64L-G16RevB.01 20-Dec-2017

 -------------------------------------------------------------------
 #p b3lyp/6-31g(d) 6D 10F nosymm GFInput td=(50-50,nstate=2) SCF=XQC
 -------------------------------------------------------------------

 ------------------------------
 Gaussian input prepared by ASE
 ------------------------------
 Symbolic Z-matrix:
 Charge =  0 Multiplicity = 1

                          Input orientation:
 ---------------------------------------------------------------------
 Center     Atomic      Atomic             Coordinates (Angstroms)
 Number     Number       Type             X           Y           Z
 ---------------------------------------------------------------------
      1          7           0      -12.814497    0.617142    0.970503
      2          6           0      -11.678999    0.867198    0.935553
      3          6           0      -10.281669    1.178988    0.894868
      4          6           0       -9.846618    2.512474    0.974193
      5          7           0       -8.559232    2.857004    0.929721
      6          6           0       -7.653839    1.881565    0.806591
      7          6           0       -7.968207    0.511293    0.725272
      8          6           0       -6.884026   -0.498567    0.595160
      9          6           0       -7.077841   -1.846092    0.930649
     10          6           0       -6.016669   -2.731379    0.758517
     11          6           0       -4.800445   -2.253887    0.283477
     12          6           0       -4.669872   -0.880288    0.006597
     13          6           0       -3.358820   -0.318772   -0.421674
     14          6           0       -2.221608   -0.758291    0.237213
     15          6           0       -0.970107   -0.201470   -0.050600
     16          6           0       -0.811431    0.827442   -0.975916
     17          6           0       -1.918002    1.150608   -1.832521
     18          6           0       -1.774671    1.873390   -3.048408
     19          6           0       -2.853926    2.144613   -3.859856
     20          6           0       -4.141943    1.702610   -3.493802
     21          6           0       -4.313176    0.946000   -2.356495
     22          6           0       -3.218964    0.613140   -1.510856
     23          6           0        0.597794    1.290865   -0.900349
     24          6           0        1.300721    0.385909   -0.104986
     25          6           0        2.684759    0.466859    0.075758
     26          6           0        3.409557    1.497959   -0.499481
     27          6           0        4.878600    1.519049   -0.244113
     28          6           0        5.542945    2.659595    0.241952
     29          6           0        6.907513    2.582497    0.500676
     30          6           0        7.576817    1.379966    0.289143
     31          6           0        6.837663    0.273755   -0.153962
     32          6           0        7.463775   -1.056475   -0.378331
     33          6           0        6.829603   -2.007423   -1.200897
     34          7           0        7.319461   -3.222673   -1.464735
     35          6           0        8.483048   -3.561339   -0.908523
     36          6           0        9.203067   -2.700299   -0.063636
     37          6           0       10.442568   -3.121746    0.517207
     38          7           0       11.449758   -3.466553    0.986054
     39          6           0        8.677504   -1.428984    0.203256
     40          7           0        5.522943    0.353636   -0.417718
     41          6           0        2.719083    2.517802   -1.239966
     42          6           0        3.402273    3.611689   -1.844175
     43          6           0        2.722971    4.656682   -2.427848
     44          6           0        1.311847    4.670935   -2.417405
     45          6           0        0.616633    3.592705   -1.917709
     46          6           0        1.282923    2.454660   -1.383622
     47          6           0        0.363284   -0.616798    0.553004
     48          6           0        0.710215   -2.086121    0.284939
     49          6           0        0.825637   -2.740298   -0.935558
     50          6           0        1.161503   -4.098522   -0.943680
     51          6           0        1.376501   -4.785652    0.256242
     52          6           0        1.260283   -4.129335    1.483543
     53          6           0        0.925776   -2.773594    1.494463
     54          6           0        0.738195   -1.834877    2.609648
     55          6           0        0.832273   -2.020838    3.990479
     56          6           0        0.597122   -0.933831    4.835315
     57          6           0        0.272096    0.321547    4.309438
     58          6           0        0.177553    0.510697    2.926316
     59          6           0        0.411823   -0.569890    2.084665
     60          7           0       -5.702945   -0.034966    0.153240
     61          6           0       -9.321018    0.166954    0.765946
     62          1           0      -10.570780    3.317884    1.072746
     63          1           0       -6.611789    2.184051    0.768250
     64          1           0       -8.024948   -2.195833    1.327137
     65          1           0       -6.139419   -3.785356    0.992249
     66          1           0       -3.965107   -2.925448    0.117390
     67          1           0       -2.301874   -1.503077    1.023707
     68          1           0       -0.784675    2.171990   -3.367647
     69          1           0       -2.707386    2.684991   -4.791194
     70          1           0       -4.995461    1.928935   -4.126946
     71          1           0       -5.297918    0.578189   -2.100292
     72          1           0        3.199805   -0.275658    0.676660
     73          1           0        4.993031    3.575347    0.427874
     74          1           0        7.446247    3.451582    0.868228
     75          1           0        8.646328    1.311258    0.456626
     76          1           0        5.878635   -1.753448   -1.659015
     77          1           0        8.867332   -4.554001   -1.131677
     78          1           0        9.212172   -0.763792    0.873079
     79          1           0        4.486135    3.620492   -1.840415
     80          1           0        3.273536    5.479769   -2.875093
     81          1           0        0.772109    5.529220   -2.807975
     82          1           0       -0.464947    3.622702   -1.898602
     83          1           0        0.660372   -2.207734   -1.868414
     84          1           0        1.258677   -4.622980   -1.890239
     85          1           0        1.639133   -5.839826    0.232811
     86          1           0        1.430805   -4.667897    2.412221
     87          1           0        1.084270   -2.993606    4.404937
     88          1           0        0.667073   -1.064519    5.911862
     89          1           0        0.091322    1.156987    4.980238
     90          1           0       -0.075076    1.486290    2.519352
     91          1           0       -9.645160   -0.864783    0.679367
 ---------------------------------------------------------------------

 SCF Done:  E(RB3LYP) =  -2442.45684787     A.U. after   16 cycles

 Excitation energies and oscillator strengths:

 Excited state symmetry could not be determined.
 Excited State   1:      Triplet-?Sym    1.9315 eV  641.91 nm  f=0.0000  <S**2>=2.000
     199 ->207         0.12633
     201 ->202         0.65291
     201 ->206        -0.11893
 This state for optimization and/or second-order correction.
 Total Energy, E(TD-HF/TD-DFT) =  -2442.38586695
 Copying the excited state density for this state as the 1-particle RhoCI density.

 Excited state symmetry could not be determined.
 Excited State   2:      Triplet-?Sym    2.6291 eV  471.59 nm  f=0.0000  <S**2>=2.000
     199 ->202         0.41330
     201 ->205        -0.14282
     201 ->207         0.41974
     201 ->210        -0.22500

 Excited state symmetry could not be determined.
 Excited State   3:      Singlet-?Sym    2.8983 eV  427.78 nm  f=0.6793  <S**2>=0.000
     201 ->202         0.69833

 Excited state symmetry could not be determined.
 Excited State   4:      Singlet-?Sym    3.0762 eV  403.05 nm  f=0.0053  <S**2>=0.000
     201 ->203         0.37239
     201 ->204         0.58905

 Alpha  occ. eigenvalues --  -14.35221 -14.35191 -14.34485 -14.34453 -14.34435
 Alpha  occ. eigenvalues --  -14.34427 -10.25366 -10.25342 -10.25203 -10.25184
 Alpha  occ. eigenvalues --  -10.25086 -10.25061 -10.24909 -10.24906 -10.24277
 Alpha  occ. eigenvalues --  -10.24238 -10.23907 -10.23883 -10.23725 -10.23720
 Alpha  occ. eigenvalues --  -10.22996 -10.22959 -10.22542 -10.22488 -10.22192
 Alpha  occ. eigenvalues --  -10.21747 -10.21707 -10.21431 -10.21339 -10.21309
 Alpha  occ. eigenvalues --  -10.21271 -10.21220 -10.21181 -10.21114 -10.21074
 Alpha  occ. eigenvalues --  -10.20994 -10.20908 -10.20490 -10.20477 -10.20234
 Alpha  occ. eigenvalues --  -10.20196 -10.20103 -10.20064 -10.20051 -10.19863
 Alpha  occ. eigenvalues --  -10.19790 -10.19781 -10.19766 -10.19745 -10.19691
 Alpha  occ. eigenvalues --  -10.19676 -10.19655 -10.19599 -10.19586 -10.19581
 Alpha  occ. eigenvalues --  -10.19579 -10.19505 -10.19481 -10.19281 -10.19246
 Alpha  occ. eigenvalues --  -10.19045  -0.96962  -0.96934  -0.96002  -0.95978
 Alpha  occ. eigenvalues --   -0.91341  -0.91147  -0.91140  -0.88606  -0.87717
 Alpha  occ. eigenvalues --   -0.85243  -0.84903  -0.84574  -0.84524  -0.82931
 Alpha  occ. eigenvalues --   -0.82473  -0.82117  -0.82021  -0.81118  -0.80320
 Alpha  occ. eigenvalues --   -0.79907  -0.77850  -0.77637  -0.75971  -0.75454
 Alpha  occ. eigenvalues --   -0.75191  -0.74812  -0.74640  -0.74157  -0.71961
 Alpha  occ. eigenvalues --   -0.71170  -0.69324  -0.68335  -0.67965  -0.67617
 Alpha  occ. eigenvalues --   -0.67436  -0.66022  -0.64266  -0.64075  -0.63522
 Alpha  occ. eigenvalues --   -0.63231  -0.62737  -0.62220  -0.61943  -0.60476
 Alpha  occ. eigenvalues --   -0.60036  -0.58974  -0.58095  -0.57765  -0.57683
 Alpha  occ. eigenvalues --   -0.56408  -0.56279  -0.53933  -0.53055  -0.52692
 Alpha  occ. eigenvalues --   -0.52644  -0.52550  -0.52300  -0.52266  -0.51874
 Alpha  occ. eigenvalues --   -0.51278  -0.50838  -0.50084  -0.49931  -0.49252
 Alpha  occ. eigenvalues --   -0.48926  -0.48584  -0.48369  -0.47858  -0.47106
 Alpha  occ. eigenvalues --   -0.46213  -0.46149  -0.45525  -0.44837  -0.44689
 Alpha  occ. eigenvalues --   -0.44467  -0.44005  -0.43901  -0.43736  -0.43456
 Alpha  occ. eigenvalues --   -0.43226  -0.43024  -0.42722  -0.42440  -0.42290
 Alpha  occ. eigenvalues --   -0.42286  -0.42229  -0.42024  -0.41970  -0.41399
 Alpha  occ. eigenvalues --   -0.41056  -0.40739  -0.40599  -0.40356  -0.39950
 Alpha  occ. eigenvalues --   -0.39814  -0.39502  -0.39109  -0.38766  -0.38651
 Alpha  occ. eigenvalues --   -0.38376  -0.36754  -0.36693  -0.36642  -0.36615
 Alpha  occ. eigenvalues --   -0.36562  -0.36438  -0.36274  -0.36151  -0.35043
 Alpha  occ. eigenvalues --   -0.34786  -0.34708  -0.34282  -0.34257  -0.34052
 Alpha  occ. eigenvalues --   -0.33651  -0.33325  -0.32949  -0.32706  -0.32461
 Alpha  occ. eigenvalues --   -0.32066  -0.31215  -0.30204  -0.29598  -0.28948
 Alpha  occ. eigenvalues --   -0.28759  -0.28311  -0.28127  -0.28024  -0.27531
 Alpha  occ. eigenvalues --   -0.26559  -0.26485  -0.26299  -0.25609  -0.25424
 Alpha  occ. eigenvalues --   -0.25170  -0.24601  -0.24262  -0.23176  -0.22094
 Alpha  occ. eigenvalues --   -0.19750
 Alpha virt. eigenvalues --   -0.07648  -0.06968  -0.06965  -0.06226  -0.06077
 Alpha virt. eigenvalues --   -0.04660  -0.03719  -0.03071  -0.02902  -0.02451
 Alpha virt. eigenvalues --   -0.02008  -0.01330  -0.00703  -0.00609   0.00523

 Mulliken charges:
               1
     1  N   -0.471156
     2  C    0.234159
     3  C    0.109753
     4  C    0.042337
     5  N   -0.409064
     6  C    0.028508
     7  C    0.069771
     8  C    0.257709
     9  C   -0.173282
    10  C   -0.103719
    11  C   -0.163865
    12  C    0.218699
    13  C    0.063465
    14  C   -0.247135
    15  C    0.121216
    16  C   -0.019668
    17  C    0.071330
    18  C   -0.207830
    19  C   -0.140899
    20  C   -0.131267
    21  C   -0.188459
    22  C    0.091577
    23  C   -0.016972
    24  C    0.123392
    25  C   -0.224389
    26  C    0.045866
    27  C    0.213409
    28  C   -0.168786
    29  C   -0.104293
    30  C   -0.172271
    31  C    0.261474
    32  C    0.070737
    33  C    0.030058
    34  N   -0.409512
    35  C    0.042489
    36  C    0.109692
    37  C    0.233862
    38  N   -0.471579
    39  C   -0.151465
    40  N   -0.539664
    41  C    0.101488
    42  C   -0.221864
    43  C   -0.129432
    44  C   -0.143268
    45  C   -0.206945
    46  C    0.071800
    47  C   -0.271692
    48  C    0.123628
    49  C   -0.188478
    50  C   -0.135236
    51  C   -0.134253
    52  C   -0.190165
    53  C    0.065992
    54  C    0.066184
    55  C   -0.190240
    56  C   -0.134594
    57  C   -0.136033
    58  C   -0.188648
    59  C    0.121566
    60  N   -0.544719
    61  C   -0.151664
    62  H    0.172047
    63  H    0.187044
    64  H    0.147436
    65  H    0.151813
    66  H    0.156609
    67  H    0.146185
    68  H    0.158645
    69  H    0.132974
    70  H    0.132507
    71  H    0.149419
    72  H    0.155646
    73  H    0.159749
    74  H    0.151297
    75  H    0.147136
    76  H    0.187130
    77  H    0.171429
    78  H    0.168199
    79  H    0.142305
    80  H    0.132395
    81  H    0.134948
    82  H    0.162639
    83  H    0.141041
    84  H    0.134022
    85  H    0.132793
    86  H    0.131753
    87  H    0.132023
    88  H    0.131855
    89  H    0.132463
    90  H    0.140395
    91  H    0.168443
 Sum of Mulliken charges =  -0.00000

 Dipole moment (field-independent basis, Debye):
    X=              1.7025    Y=              1.3496    Z=              0.1302  Tot=              2.1765
 Quadrupole moment (field-independent basis, Debye-Ang):
   XX=           -465.4997   YY=           -323.7990   ZZ=           -331.0749
   XY=             60.1678   XZ=              1.8822   YZ=             -7.3344

 Normal termination of Gaussian 16 at Sat Nov  5 11:29:04 2022.
