 Gaussian 16, Revision B.01,
 Gaussian 16:  ES64L-G16RevB.01 20-Dec-2017

 -------------------------------------------------------------------
 #p b3lyp/6-31g(d) 6D 10F nosymm GFInput td=(50-50,nstate=2) SCF=XQC
 -------------------------------------------------------------------

 ------------------------------
 Gaussian input prepared by ASE
 ------------------------------
 Symbolic Z-matrix:
 Charge =  0 Multiplicity = 1

                          Input orientation:
 ---------------------------------------------------------------------
 Center     Atomic      Atomic             Coordinates (Angstroms)
 Number     Number       Type             X           Y           Z
 ---------------------------------------------------------------------
      1          8           0        6.705165   -4.945744    1.728779
      2          6           0        6.022898   -4.243104    1.012247
      3          6           0        4.642660   -4.596007    0.622463
      4          6           0        4.209933   -5.902307    0.897525
      5          6           0        2.933544   -6.304599    0.535152
      6          6           0        2.078528   -5.392449   -0.098887
      7          6           0        2.496983   -4.093332   -0.357962
      8          6           0        3.789083   -3.664449    0.002931
      9          6           0        4.279410   -2.297840   -0.212265
     10          6           0        3.433233   -1.273621   -0.654202
     11          6           0        3.890877    0.023650   -0.896554
     12          6           0        2.978481    1.083077   -1.399829
     13          6           0        3.415118    1.997999   -2.372323
     14          6           0        2.551986    2.989525   -2.835617
     15          6           0        1.248521    3.083219   -2.355188
     16          6           0        0.795935    2.182811   -1.376743
     17          7           0       -0.523984    2.284270   -0.865075
     18          6           0       -1.090013    3.569379   -0.631282
     19          6           0       -0.349285    4.570644    0.015075
     20          6           0       -0.901918    5.828365    0.233945
     21          6           0       -2.215292    6.133107   -0.162775
     22          6           0       -2.803919    7.473214    0.082639
     23          6           0       -2.517086    8.185145    1.260324
     24          6           0       -3.068816    9.444382    1.490627
     25          6           0       -3.923217   10.021381    0.549285
     26          6           0       -4.218994    9.326548   -0.624939
     27          6           0       -3.664975    8.068401   -0.855654
     28          6           0       -2.949414    5.118373   -0.800731
     29          6           0       -2.399597    3.863392   -1.040884
     30          6           0       -1.294666    1.118631   -0.604022
     31          6           0       -1.244466    0.016734   -1.478830
     32          6           0       -2.009498   -1.126084   -1.237379
     33          6           0       -2.847622   -1.174856   -0.128309
     34          6           0       -2.909928   -0.070095    0.740295
     35          6           0       -2.132658    1.065315    0.521360
     36          6           0       -3.874394   -0.364293    1.806593
     37          6           0       -4.271438    0.395009    2.909316
     38          6           0       -5.224414   -0.131752    3.782773
     39          6           0       -5.769355   -1.400522    3.557175
     40          6           0       -5.368610   -2.162409    2.454194
     41          6           0       -4.424624   -1.639074    1.577165
     42          6           0       -3.813834   -2.287109    0.319006
     43          6           0       -4.837948   -2.521883   -0.812542
     44          6           0       -4.526197   -3.374702   -1.883798
     45          6           0       -5.401256   -3.530292   -2.958563
     46          6           0       -6.610878   -2.834478   -2.987603
     47          6           0       -6.931330   -1.982000   -1.931639
     48          6           0       -6.053505   -1.826365   -0.856953
     49          6           0       -3.100579   -3.586157    0.754891
     50          6           0       -3.808674   -4.795644    0.837198
     51          6           0       -3.201219   -5.953292    1.324032
     52          6           0       -1.870839   -5.926790    1.744625
     53          6           0       -1.157045   -4.730092    1.673273
     54          6           0       -1.766151   -3.573549    1.182310
     55          6           0        1.672121    1.193804   -0.904034
     56          6           0        5.241888    0.289845   -0.661710
     57          6           0        6.129552   -0.685819   -0.194428
     58          6           0        7.540156   -0.379989    0.070487
     59          6           0        8.068830    0.925371    0.057400
     60          6           0        9.422491    1.147476    0.274123
     61          6           0       10.294268    0.074950    0.506498
     62          6           0        9.791913   -1.217232    0.530117
     63          6           0        8.422020   -1.445266    0.328639
     64          6           0        7.948112   -2.842621    0.397206
     65          8           0        8.701358   -3.793880    0.407476
     66          7           0        6.522620   -3.009647    0.471074
     67          6           0        5.645070   -1.999764    0.022797
     68          1           0        4.902816   -6.576355    1.389316
     69          1           0        2.600574   -7.318612    0.736422
     70          1           0        1.076088   -5.695928   -0.386813
     71          1           0        1.811406   -3.415216   -0.853628
     72          1           0        2.388349   -1.492870   -0.839944
     73          1           0        4.415270    1.910990   -2.786169
     74          1           0        2.889251    3.684136   -3.600347
     75          1           0        0.577135    3.846977   -2.732993
     76          1           0        0.666282    4.360597    0.335821
     77          1           0       -0.296938    6.592918    0.713148
     78          1           0       -1.876170    7.734964    2.013424
     79          1           0       -2.837845    9.971731    2.412589
     80          1           0       -4.354244   11.002519    0.728988
     81          1           0       -4.876092    9.768937   -1.369227
     82          1           0       -3.880790    7.550153   -1.785928
     83          1           0       -3.974496    5.310347   -1.104823
     84          1           0       -2.988166    3.099029   -1.538366
     85          1           0       -0.611506    0.067147   -2.358687
     86          1           0       -1.963545   -1.955851   -1.937101
     87          1           0       -2.174791    1.910095    1.201411
     88          1           0       -3.847099    1.379615    3.088239
     89          1           0       -5.543188    0.446758    4.645657
     90          1           0       -6.507896   -1.800701    4.246525
     91          1           0       -5.789050   -3.150874    2.292206
     92          1           0       -3.596170   -3.935116   -1.870895
     93          1           0       -5.136546   -4.200283   -3.772639
     94          1           0       -7.295677   -2.957935   -3.822293
     95          1           0       -7.869715   -1.433362   -1.938500
     96          1           0       -6.319807   -1.156552   -0.046202
     97          1           0       -4.842249   -4.836698    0.507532
     98          1           0       -3.771909   -6.877135    1.373851
     99          1           0       -1.397297   -6.827448    2.126286
    100          1           0       -0.121227   -4.691583    1.999260
    101          1           0       -1.197680   -2.650227    1.139445
    102          1           0        1.335078    0.522552   -0.120930
    103          1           0        5.605349    1.295762   -0.835022
    104          1           0        7.419622    1.777549   -0.110190
    105          1           0        9.804292    2.164834    0.264058
    106          1           0       11.352332    0.254947    0.672525
    107          1           0       10.431129   -2.074723    0.710124
 ---------------------------------------------------------------------

 SCF Done:  E(RB3LYP) =  -2684.84206274     A.U. after   16 cycles

 Excitation energies and oscillator strengths:

 Excited state symmetry could not be determined.
 Excited State   1:      Triplet-?Sym    2.7617 eV  448.94 nm  f=0.0000  <S**2>=2.000
     221 -> 225        0.49142
     221 -> 226       -0.27342
     222 -> 227        0.15244
     223 -> 227        0.21646
     224 -> 227        0.10496
 This state for optimization and/or second-order correction.
 Total Energy, E(TD-HF/TD-DFT) =  -2684.74057273
 Copying the excited state density for this state as the 1-particle RhoCI density.

 Excited state symmetry could not be determined.
 Excited State   2:      Triplet-?Sym    2.7769 eV  446.49 nm  f=0.0000  <S**2>=2.000
     222 -> 225        0.17304
     223 -> 225        0.20960
     224 -> 225        0.63821

 Excited state symmetry could not be determined.
 Excited State   3:      Singlet-?Sym    2.8029 eV  442.34 nm  f=0.0008  <S**2>=0.000
     224 -> 225        0.70340

 Excited state symmetry could not be determined.
 Excited State   4:      Singlet-?Sym    3.3877 eV  365.98 nm  f=0.0176  <S**2>=0.000
     224 -> 226        0.31269
     224 -> 227        0.57389
     224 -> 228        0.21621

 Alpha  occ. eigenvalues --  -19.12971 -19.12940 -14.39833 -14.37139 -10.30318
 Alpha  occ. eigenvalues --  -10.30291 -10.25669 -10.23799 -10.23646 -10.23425
 Alpha  occ. eigenvalues --  -10.22166 -10.22131 -10.22099 -10.21918 -10.21911
 Alpha  occ. eigenvalues --  -10.21049 -10.20927 -10.20911 -10.20893 -10.20814
 Alpha  occ. eigenvalues --  -10.20660 -10.20629 -10.20622 -10.20551 -10.20465
 Alpha  occ. eigenvalues --  -10.20260 -10.20212 -10.20199 -10.20184 -10.20143
 Alpha  occ. eigenvalues --  -10.20140 -10.20115 -10.20071 -10.19870 -10.19837
 Alpha  occ. eigenvalues --  -10.19629 -10.19623 -10.19578 -10.19522 -10.19512
 Alpha  occ. eigenvalues --  -10.19502 -10.19432 -10.19420 -10.19396 -10.19363
 Alpha  occ. eigenvalues --  -10.19362 -10.19353 -10.19332 -10.19295 -10.19272
 Alpha  occ. eigenvalues --  -10.19225 -10.19208 -10.19195 -10.19167 -10.19108
 Alpha  occ. eigenvalues --  -10.19097 -10.19080 -10.19074 -10.19054 -10.19018
 Alpha  occ. eigenvalues --  -10.18963 -10.18963 -10.18896 -10.18846 -10.18830
 Alpha  occ. eigenvalues --  -10.18766 -10.18663  -1.06409  -1.03329  -0.97046
 Alpha  occ. eigenvalues --   -0.96303  -0.89659  -0.88294  -0.87934  -0.86983
 Alpha  occ. eigenvalues --   -0.86644  -0.85738  -0.85257  -0.84921  -0.84880
 Alpha  occ. eigenvalues --   -0.83832  -0.80794  -0.80777  -0.79256  -0.78126
 Alpha  occ. eigenvalues --   -0.77608  -0.77440  -0.76811  -0.76032  -0.75738
 Alpha  occ. eigenvalues --   -0.75144  -0.74768  -0.74514  -0.74357  -0.74219
 Alpha  occ. eigenvalues --   -0.74061  -0.73797  -0.73387  -0.72990  -0.72285
 Alpha  occ. eigenvalues --   -0.70538  -0.68298  -0.67851  -0.65496  -0.65471
 Alpha  occ. eigenvalues --   -0.64388  -0.63450  -0.63082  -0.62539  -0.62224
 Alpha  occ. eigenvalues --   -0.61705  -0.61034  -0.60521  -0.59873  -0.59715
 Alpha  occ. eigenvalues --   -0.59461  -0.59238  -0.59050  -0.58605  -0.58068
 Alpha  occ. eigenvalues --   -0.57832  -0.56983  -0.56532  -0.56294  -0.54241
 Alpha  occ. eigenvalues --   -0.53502  -0.52910  -0.52885  -0.52105  -0.51893
 Alpha  occ. eigenvalues --   -0.51360  -0.50335  -0.50103  -0.49833  -0.49416
 Alpha  occ. eigenvalues --   -0.48264  -0.48059  -0.47469  -0.47074  -0.46993
 Alpha  occ. eigenvalues --   -0.46854  -0.46502  -0.46154  -0.46047  -0.45689
 Alpha  occ. eigenvalues --   -0.45594  -0.45471  -0.44698  -0.44474  -0.44434
 Alpha  occ. eigenvalues --   -0.44232  -0.44147  -0.44097  -0.43997  -0.43730
 Alpha  occ. eigenvalues --   -0.43524  -0.43387  -0.43186  -0.43165  -0.42747
 Alpha  occ. eigenvalues --   -0.42729  -0.42416  -0.42340  -0.42279  -0.41975
 Alpha  occ. eigenvalues --   -0.41877  -0.41840  -0.41412  -0.40965  -0.40568
 Alpha  occ. eigenvalues --   -0.39723  -0.39599  -0.38739  -0.38573  -0.38373
 Alpha  occ. eigenvalues --   -0.38032  -0.37915  -0.37742  -0.37660  -0.37098
 Alpha  occ. eigenvalues --   -0.36817  -0.36593  -0.36483  -0.36424  -0.36117
 Alpha  occ. eigenvalues --   -0.36036  -0.35748  -0.35667  -0.35552  -0.35267
 Alpha  occ. eigenvalues --   -0.35144  -0.34920  -0.34743  -0.34409  -0.34250
 Alpha  occ. eigenvalues --   -0.34063  -0.34026  -0.33648  -0.32808  -0.32553
 Alpha  occ. eigenvalues --   -0.32077  -0.31005  -0.30952  -0.28576  -0.28495
 Alpha  occ. eigenvalues --   -0.28205  -0.27599  -0.26614  -0.26521  -0.26396
 Alpha  occ. eigenvalues --   -0.25913  -0.25588  -0.25255  -0.25199  -0.25157
 Alpha  occ. eigenvalues --   -0.24752  -0.24286  -0.24093  -0.23755  -0.23542
 Alpha  occ. eigenvalues --   -0.23157  -0.22086  -0.21747  -0.18658
 Alpha virt. eigenvalues --   -0.07071  -0.04882  -0.04266  -0.03787  -0.03519
 Alpha virt. eigenvalues --   -0.03409  -0.02420  -0.01814  -0.01451  -0.00788
 Alpha virt. eigenvalues --   -0.00639  -0.00300  -0.00073   0.00340   0.01006

 Mulliken charges:
               1
     1  O   -0.452453
     2  C    0.568496
     3  C   -0.004884
     4  C   -0.170995
     5  C   -0.134008
     6  C   -0.130628
     7  C   -0.198475
     8  C    0.126616
     9  C    0.087275
    10  C   -0.282005
    11  C    0.117810
    12  C    0.078622
    13  C   -0.176124
    14  C   -0.143070
    15  C   -0.167389
    16  C    0.291286
    17  N   -0.665042
    18  C    0.275213
    19  C   -0.165595
    20  C   -0.188636
    21  C    0.095439
    22  C    0.089371
    23  C   -0.174698
    24  C   -0.133629
    25  C   -0.127147
    26  C   -0.133607
    27  C   -0.174569
    28  C   -0.188757
    29  C   -0.165925
    30  C    0.299101
    31  C   -0.182656
    32  C   -0.192933
    33  C    0.085055
    34  C    0.091889
    35  C   -0.253181
    36  C    0.086655
    37  C   -0.191875
    38  C   -0.135276
    39  C   -0.133379
    40  C   -0.180063
    41  C    0.081528
    42  C   -0.228293
    43  C    0.154007
    44  C   -0.177143
    45  C   -0.136463
    46  C   -0.126802
    47  C   -0.133266
    48  C   -0.185515
    49  C    0.158387
    50  C   -0.179122
    51  C   -0.135862
    52  C   -0.131270
    53  C   -0.140899
    54  C   -0.187781
    55  C   -0.223324
    56  C   -0.281636
    57  C    0.086702
    58  C    0.126167
    59  C   -0.193516
    60  C   -0.125580
    61  C   -0.130986
    62  C   -0.171141
    63  C   -0.004304
    64  C    0.568094
    65  O   -0.451933
    66  N   -0.731427
    67  C    0.270253
    68  H    0.173055
    69  H    0.141369
    70  H    0.150745
    71  H    0.146736
    72  H    0.147414
    73  H    0.131962
    74  H    0.135495
    75  H    0.147921
    76  H    0.144609
    77  H    0.135962
    78  H    0.131010
    79  H    0.130679
    80  H    0.130012
    81  H    0.130744
    82  H    0.131377
    83  H    0.136905
    84  H    0.148030
    85  H    0.143481
    86  H    0.134529
    87  H    0.146996
    88  H    0.133929
    89  H    0.131128
    90  H    0.130811
    91  H    0.134977
    92  H    0.136130
    93  H    0.129471
    94  H    0.128646
    95  H    0.129947
    96  H    0.143748
    97  H    0.140474
    98  H    0.130396
    99  H    0.128786
   100  H    0.139639
   101  H    0.139486
   102  H    0.147170
   103  H    0.143007
   104  H    0.142924
   105  H    0.140230
   106  H    0.142056
   107  H    0.173310
 Sum of Mulliken charges =  -0.00000

 Dipole moment (field-independent basis, Debye):
    X=             -4.2502    Y=              4.3759    Z=             -1.6515  Tot=              6.3198
 Quadrupole moment (field-independent basis, Debye-Ang):
   XX=           -387.6418   YY=           -364.1044   ZZ=           -373.4882
   XY=             46.6387   XZ=             -8.4164   YZ=              9.0436

 Normal termination of Gaussian 16 at Sat Nov  5 13:21:42 2022.
