 Gaussian 16, Revision B.01,
 Gaussian 16:  ES64L-G16RevB.01 20-Dec-2017

 -----------------------------
 #p b3lyp/6-31g(d) opt SCF=XQC
 -----------------------------

 ------------------------------
 Gaussian input prepared by ASE
 ------------------------------
 Symbolic Z-matrix:
 Charge =  0 Multiplicity = 1

 SCF Done:  E(RB3LYP) =  -2684.81609150     A.U. after   16 cycles
 SCF Done:  E(RB3LYP) =  -2684.82741082     A.U. after   15 cycles
 SCF Done:  E(RB3LYP) =  -2684.83423909     A.U. after   15 cycles
 SCF Done:  E(RB3LYP) =  -2684.84024335     A.U. after   13 cycles
 SCF Done:  E(RB3LYP) =  -2684.83924526     A.U. after   16 cycles
 SCF Done:  E(RB3LYP) =  -2684.84173548     A.U. after   12 cycles
 SCF Done:  E(RB3LYP) =  -2684.84188909     A.U. after   12 cycles
 SCF Done:  E(RB3LYP) =  -2684.84195540     A.U. after   11 cycles
 SCF Done:  E(RB3LYP) =  -2684.84201518     A.U. after   10 cycles
 SCF Done:  E(RB3LYP) =  -2684.84202174     A.U. after   11 cycles
 SCF Done:  E(RB3LYP) =  -2684.84204970     A.U. after   10 cycles
 SCF Done:  E(RB3LYP) =  -2684.84205291     A.U. after    9 cycles
 SCF Done:  E(RB3LYP) =  -2684.84205465     A.U. after    9 cycles
 SCF Done:  E(RB3LYP) =  -2684.84205558     A.U. after    8 cycles
 SCF Done:  E(RB3LYP) =  -2684.84205571     A.U. after    7 cycles
 SCF Done:  E(RB3LYP) =  -2684.84205581     A.U. after    6 cycles
 SCF Done:  E(RB3LYP) =  -2684.84205586     A.U. after    7 cycles
 SCF Done:  E(RB3LYP) =  -2684.84205590     A.U. after    6 cycles
 Optimization completed.
    -- Stationary point found.

                         Standard orientation:
 ---------------------------------------------------------------------
 Center     Atomic      Atomic             Coordinates (Angstroms)
 Number     Number       Type             X           Y           Z
 ---------------------------------------------------------------------
      1          8           0       -7.837006    1.473610    1.484414
      2          6           0       -6.900053    1.110049    0.804302
      3          6           0       -5.827009    2.024152    0.363256
      4          6           0       -6.040553    3.399975    0.538870
      5          6           0       -5.082813    4.312568    0.123865
      6          6           0       -3.897758    3.847520   -0.463036
      7          6           0       -3.674997    2.485697   -0.623488
      8          6           0       -4.634590    1.542246   -0.207810
      9          6           0       -4.445646    0.090894   -0.318392
     10          6           0       -3.219979   -0.464095   -0.705788
     11          6           0       -3.033166   -1.840942   -0.848894
     12          6           0       -1.731697   -2.401361   -1.296388
     13          6           0       -1.690586   -3.480787   -2.194511
     14          6           0       -0.464435   -4.000548   -2.605805
     15          6           0        0.732067   -3.456397   -2.146570
     16          6           0        0.711683   -2.382170   -1.241834
     17          7           0        1.925950   -1.835216   -0.751239
     18          6           0        3.012052   -2.701640   -0.441005
     19          6           0        2.800163   -3.881956    0.287652
     20          6           0        3.862066   -4.731222    0.581387
     21          6           0        5.175255   -4.431747    0.180071
     22          6           0        6.306369   -5.335876    0.505226
     23          6           0        6.359600   -6.015272    1.734718
     24          6           0        7.421235   -6.865488    2.039978
     25          6           0        8.457184   -7.055027    1.123497
     26          6           0        8.419658   -6.386491   -0.101546
     27          6           0        7.356486   -5.538313   -0.407096
     28          6           0        5.375016   -3.241891   -0.541001
     29          6           0        4.317153   -2.395276   -0.855832
     30          6           0        2.077490   -0.431366   -0.586757
     31          6           0        1.542570    0.462071   -1.534184
     32          6           0        1.699738    1.841711   -1.387567
     33          6           0        2.408723    2.344797   -0.301697
     34          6           0        2.955806    1.453892    0.639493
     35          6           0        2.784069    0.076844    0.515071
     36          6           0        3.666027    2.229310    1.663237
     37          6           0        4.350575    1.813929    2.807368
     38          6           0        4.947209    2.776927    3.622983
     39          6           0        4.857342    4.135213    3.299541
     40          6           0        4.168327    4.551186    2.155050
     41          6           0        3.578181    3.595070    1.335453
     42          6           0        2.756136    3.803421    0.048282
     43          6           0        3.575916    4.398225   -1.117265
     44          6           0        2.924270    4.937659   -2.238178
     45          6           0        3.646682    5.398329   -3.338614
     46          6           0        5.040743    5.329405   -3.344161
     47          6           0        5.700183    4.793157   -2.238700
     48          6           0        4.975329    4.331182   -1.138284
     49          6           0        1.523677    4.662425    0.408020
     50          6           0        1.601924    6.064091    0.392466
     51          6           0        0.527370    6.849356    0.810618
     52          6           0       -0.650387    6.249824    1.258903
     53          6           0       -0.739679    4.857687    1.284619
     54          6           0        0.335896    4.073864    0.862240
     55          6           0       -0.525066   -1.869924   -0.820711
     56          6           0       -4.117618   -2.675710   -0.568951
     57          6           0       -5.358434   -2.180915   -0.152090
     58          6           0       -6.478280   -3.075870    0.161784
     59          6           0       -6.354073   -4.476063    0.249348
     60          6           0       -7.460726   -5.274182    0.508234
     61          6           0       -8.728381   -4.702753    0.683800
     62          6           0       -8.870153   -3.325497    0.608182
     63          6           0       -7.751956   -2.513649    0.363765
     64          6           0       -7.967559   -1.052827    0.326311
     65          8           0       -9.071498   -0.550733    0.286297
     66          7           0       -6.775765   -0.250393    0.359605
     67          6           0       -5.528618   -0.778824   -0.035739
     68          1           0       -6.970925    3.717474    0.997004
     69          1           0       -5.251023    5.378349    0.248029
     70          1           0       -3.139851    4.552942   -0.791430
     71          1           0       -2.749222    2.160987   -1.085060
     72          1           0       -2.387290    0.193098   -0.927321
     73          1           0       -2.614946   -3.888089   -2.593019
     74          1           0       -0.438005   -4.824541   -3.313887
     75          1           0        1.682644   -3.855265   -2.484398
     76          1           0        1.796211   -4.135256    0.613679
     77          1           0        3.665417   -5.651432    1.124269
     78          1           0        5.573965   -5.854377    2.467853
     79          1           0        7.443530   -7.373662    3.000563
     80          1           0        9.285377   -7.716935    1.361580
     81          1           0        9.216029   -6.532481   -0.826756
     82          1           0        7.324959   -5.045702   -1.375037
     83          1           0        6.378982   -2.967043   -0.851854
     84          1           0        4.499524   -1.483995   -1.416600
     85          1           0        1.013888    0.067099   -2.395475
     86          1           0        1.290218    2.507900   -2.141702
     87          1           0        3.197291   -0.605797    1.250698
     88          1           0        4.418974    0.759468    3.062240
     89          1           0        5.482940    2.469458    4.517027
     90          1           0        5.323227    4.875251    3.944587
     91          1           0        4.094472    5.608491    1.916881
     92          1           0        1.840977    5.012559   -2.245065
     93          1           0        3.116751    5.815049   -4.191373
     94          1           0        5.605227    5.691871   -4.199074
     95          1           0        6.785471    4.732940   -2.226767
     96          1           0        5.506642    3.915110   -0.288886
     97          1           0        2.507644    6.547826    0.039883
     98          1           0        0.613860    7.932649    0.785117
     99          1           0       -1.487272    6.860543    1.587141
    100          1           0       -1.648505    4.374930    1.633403
    101          1           0        0.251051    2.992534    0.894596
    102          1           0       -0.541299   -1.065470   -0.092689
    103          1           0       -3.980610   -3.746215   -0.665170
    104          1           0       -5.385771   -4.948678    0.127731
    105          1           0       -7.337015   -6.351676    0.576000
    106          1           0       -9.590419   -5.332500    0.883233
    107          1           0       -9.832147   -2.842741    0.741615
 ---------------------------------------------------------------------

 The electronic state is 1-A.
 Alpha  occ. eigenvalues --  -19.12971 -19.12940 -14.39833 -14.37139 -10.30318
 Alpha  occ. eigenvalues --  -10.30291 -10.25669 -10.23799 -10.23646 -10.23425
 Alpha  occ. eigenvalues --  -10.22166 -10.22131 -10.22099 -10.21918 -10.21911
 Alpha  occ. eigenvalues --  -10.21049 -10.20927 -10.20911 -10.20893 -10.20814
 Alpha  occ. eigenvalues --  -10.20660 -10.20629 -10.20622 -10.20551 -10.20465
 Alpha  occ. eigenvalues --  -10.20260 -10.20212 -10.20199 -10.20183 -10.20143
 Alpha  occ. eigenvalues --  -10.20140 -10.20115 -10.20071 -10.19870 -10.19837
 Alpha  occ. eigenvalues --  -10.19629 -10.19623 -10.19578 -10.19522 -10.19512
 Alpha  occ. eigenvalues --  -10.19502 -10.19432 -10.19420 -10.19396 -10.19363
 Alpha  occ. eigenvalues --  -10.19362 -10.19353 -10.19332 -10.19295 -10.19272
 Alpha  occ. eigenvalues --  -10.19225 -10.19208 -10.19195 -10.19167 -10.19107
 Alpha  occ. eigenvalues --  -10.19097 -10.19080 -10.19074 -10.19054 -10.19018
 Alpha  occ. eigenvalues --  -10.18963 -10.18963 -10.18896 -10.18846 -10.18830
 Alpha  occ. eigenvalues --  -10.18766 -10.18663  -1.06409  -1.03329  -0.97046
 Alpha  occ. eigenvalues --   -0.96303  -0.89659  -0.88294  -0.87934  -0.86983
 Alpha  occ. eigenvalues --   -0.86644  -0.85738  -0.85257  -0.84921  -0.84880
 Alpha  occ. eigenvalues --   -0.83832  -0.80794  -0.80777  -0.79256  -0.78126
 Alpha  occ. eigenvalues --   -0.77608  -0.77440  -0.76811  -0.76032  -0.75738
 Alpha  occ. eigenvalues --   -0.75144  -0.74767  -0.74514  -0.74357  -0.74219
 Alpha  occ. eigenvalues --   -0.74061  -0.73797  -0.73387  -0.72990  -0.72285
 Alpha  occ. eigenvalues --   -0.70538  -0.68298  -0.67851  -0.65496  -0.65471
 Alpha  occ. eigenvalues --   -0.64388  -0.63450  -0.63082  -0.62539  -0.62224
 Alpha  occ. eigenvalues --   -0.61705  -0.61034  -0.60521  -0.59873  -0.59715
 Alpha  occ. eigenvalues --   -0.59461  -0.59238  -0.59050  -0.58605  -0.58068
 Alpha  occ. eigenvalues --   -0.57832  -0.56983  -0.56532  -0.56294  -0.54241
 Alpha  occ. eigenvalues --   -0.53502  -0.52910  -0.52885  -0.52105  -0.51893
 Alpha  occ. eigenvalues --   -0.51360  -0.50335  -0.50103  -0.49833  -0.49416
 Alpha  occ. eigenvalues --   -0.48264  -0.48059  -0.47469  -0.47074  -0.46993
 Alpha  occ. eigenvalues --   -0.46854  -0.46502  -0.46154  -0.46047  -0.45689
 Alpha  occ. eigenvalues --   -0.45594  -0.45471  -0.44698  -0.44474  -0.44434
 Alpha  occ. eigenvalues --   -0.44232  -0.44147  -0.44097  -0.43997  -0.43730
 Alpha  occ. eigenvalues --   -0.43524  -0.43387  -0.43186  -0.43165  -0.42747
 Alpha  occ. eigenvalues --   -0.42729  -0.42416  -0.42340  -0.42279  -0.41975
 Alpha  occ. eigenvalues --   -0.41877  -0.41840  -0.41412  -0.40965  -0.40568
 Alpha  occ. eigenvalues --   -0.39723  -0.39599  -0.38739  -0.38573  -0.38373
 Alpha  occ. eigenvalues --   -0.38032  -0.37915  -0.37742  -0.37660  -0.37098
 Alpha  occ. eigenvalues --   -0.36817  -0.36593  -0.36483  -0.36424  -0.36117
 Alpha  occ. eigenvalues --   -0.36036  -0.35748  -0.35667  -0.35552  -0.35267
 Alpha  occ. eigenvalues --   -0.35144  -0.34920  -0.34742  -0.34409  -0.34250
 Alpha  occ. eigenvalues --   -0.34063  -0.34025  -0.33648  -0.32808  -0.32553
 Alpha  occ. eigenvalues --   -0.32077  -0.31005  -0.30952  -0.28576  -0.28495
 Alpha  occ. eigenvalues --   -0.28205  -0.27599  -0.26614  -0.26521  -0.26396
 Alpha  occ. eigenvalues --   -0.25913  -0.25588  -0.25255  -0.25199  -0.25157
 Alpha  occ. eigenvalues --   -0.24752  -0.24286  -0.24093  -0.23755  -0.23542
 Alpha  occ. eigenvalues --   -0.23157  -0.22086  -0.21747  -0.18658
 Alpha virt. eigenvalues --   -0.07071  -0.04882  -0.04266  -0.03787  -0.03519
 Alpha virt. eigenvalues --   -0.03409  -0.02420  -0.01814  -0.01451  -0.00788
 Alpha virt. eigenvalues --   -0.00639  -0.00300  -0.00073   0.00340   0.01006

 Mulliken charges:
               1
     1  O   -0.452455
     2  C    0.568527
     3  C   -0.004895
     4  C   -0.170998
     5  C   -0.134013
     6  C   -0.130626
     7  C   -0.198451
     8  C    0.126613
     9  C    0.087268
    10  C   -0.281991
    11  C    0.117794
    12  C    0.078606
    13  C   -0.176119
    14  C   -0.143087
    15  C   -0.167363
    16  C    0.291241
    17  N   -0.665039
    18  C    0.275221
    19  C   -0.165598
    20  C   -0.188645
    21  C    0.095426
    22  C    0.089382
    23  C   -0.174714
    24  C   -0.133626
    25  C   -0.127146
    26  C   -0.133608
    27  C   -0.174562
    28  C   -0.188745
    29  C   -0.165929
    30  C    0.299106
    31  C   -0.182660
    32  C   -0.192934
    33  C    0.085048
    34  C    0.091911
    35  C   -0.253197
    36  C    0.086666
    37  C   -0.191889
    38  C   -0.135274
    39  C   -0.133377
    40  C   -0.180046
    41  C    0.081488
    42  C   -0.228244
    43  C    0.154020
    44  C   -0.177142
    45  C   -0.136471
    46  C   -0.126800
    47  C   -0.133271
    48  C   -0.185514
    49  C    0.158362
    50  C   -0.179119
    51  C   -0.135858
    52  C   -0.131263
    53  C   -0.140900
    54  C   -0.187801
    55  C   -0.223284
    56  C   -0.281625
    57  C    0.086672
    58  C    0.126211
    59  C   -0.193514
    60  C   -0.125581
    61  C   -0.130985
    62  C   -0.171140
    63  C   -0.004325
    64  C    0.568099
    65  O   -0.451930
    66  N   -0.731461
    67  C    0.270260
    68  H    0.173056
    69  H    0.141371
    70  H    0.150745
    71  H    0.146727
    72  H    0.147417
    73  H    0.131964
    74  H    0.135495
    75  H    0.147923
    76  H    0.144611
    77  H    0.135963
    78  H    0.131014
    79  H    0.130678
    80  H    0.130011
    81  H    0.130745
    82  H    0.131374
    83  H    0.136905
    84  H    0.148028
    85  H    0.143481
    86  H    0.134529
    87  H    0.146993
    88  H    0.133931
    89  H    0.131129
    90  H    0.130810
    91  H    0.134977
    92  H    0.136126
    93  H    0.129472
    94  H    0.128645
    95  H    0.129947
    96  H    0.143746
    97  H    0.140474
    98  H    0.130397
    99  H    0.128784
   100  H    0.139641
   101  H    0.139495
   102  H    0.147164
   103  H    0.143006
   104  H    0.142923
   105  H    0.140229
   106  H    0.142055
   107  H    0.173310
 Sum of Mulliken charges =  -0.00000

 Dipole moment (field-independent basis, Debye):
    X=              5.7986    Y=             -2.0654    Z=             -1.4319  Tot=              6.3198
 Quadrupole moment (field-independent basis, Debye-Ang):
   XX=           -416.1628   YY=           -331.9910   ZZ=           -372.3165
   XY=             17.7630   XZ=              8.9096   YZ=             -6.8445

 Normal termination of Gaussian 16 at Sat Nov  5 01:42:01 2022.
