 Gaussian 16, Revision B.01,
 Gaussian 16:  ES64L-G16RevB.01 20-Dec-2017

 -----------------------------
 #p b3lyp/6-31g(d) opt SCF=XQC
 -----------------------------

 ------------------------------
 Gaussian input prepared by ASE
 ------------------------------
 Symbolic Z-matrix:
 Charge =  0 Multiplicity = 1

 SCF Done:  E(RB3LYP) =  -2442.44253549     A.U. after   16 cycles
 SCF Done:  E(RB3LYP) =  -2442.45565667     A.U. after   13 cycles
 SCF Done:  E(RB3LYP) =  -2442.45528437     A.U. after   13 cycles
 SCF Done:  E(RB3LYP) =  -2442.45518626     A.U. after   12 cycles
 SCF Done:  E(RB3LYP) =  -2442.45490056     A.U. after   11 cycles
 SCF Done:  E(RB3LYP) =  -2442.45591150     A.U. after    9 cycles
 SCF Done:  E(RB3LYP) =  -2442.45658183     A.U. after   12 cycles
 SCF Done:  E(RB3LYP) =  -2442.45661407     A.U. after   11 cycles
 SCF Done:  E(RB3LYP) =  -2442.45663965     A.U. after   10 cycles
 SCF Done:  E(RB3LYP) =  -2442.45665914     A.U. after   11 cycles
 SCF Done:  E(RB3LYP) =  -2442.45682950     A.U. after   13 cycles
 SCF Done:  E(RB3LYP) =  -2442.45676340     A.U. after   13 cycles
 SCF Done:  E(RB3LYP) =  -2442.45241640     A.U. after   14 cycles
 SCF Done:  E(RB3LYP) =  -2442.45681842     A.U. after   12 cycles
 SCF Done:  E(RB3LYP) =  -2442.45684291     A.U. after    9 cycles
 SCF Done:  E(RB3LYP) =  -2442.45684588     A.U. after    8 cycles
 SCF Done:  E(RB3LYP) =  -2442.45684621     A.U. after    9 cycles
 SCF Done:  E(RB3LYP) =  -2442.45684627     A.U. after    7 cycles
 SCF Done:  E(RB3LYP) =  -2442.45684630     A.U. after    7 cycles
 SCF Done:  E(RB3LYP) =  -2442.45684631     A.U. after    6 cycles
 Optimization completed.
    -- Stationary point found.

                         Standard orientation:
 ---------------------------------------------------------------------
 Center     Atomic      Atomic             Coordinates (Angstroms)
 Number     Number       Type             X           Y           Z
 ---------------------------------------------------------------------
      1          7           0      -12.801864   -0.882920    0.259393
      2          6           0      -11.697362   -0.556650    0.422874
      3          6           0      -10.338648   -0.152638    0.627986
      4          6           0      -10.044309    1.019965    1.343608
      5          7           0       -8.798182    1.445920    1.552822
      6          6           0       -7.795028    0.715062    1.056932
      7          6           0       -7.965543   -0.479508    0.330975
      8          6           0       -6.780901   -1.223340   -0.174526
      9          6           0       -6.844251   -2.582534   -0.512935
     10          6           0       -5.694177   -3.198816   -0.999734
     11          6           0       -4.521672   -2.460699   -1.114968
     12          6           0       -4.525340   -1.110823   -0.717093
     13          6           0       -3.268289   -0.312960   -0.745598
     14          6           0       -2.108890   -0.917538   -0.286427
     15          6           0       -0.914082   -0.193949   -0.197007
     16          6           0       -0.838397    1.156463   -0.529730
     17          6           0       -1.950501    1.753030   -1.215326
     18          6           0       -1.851534    2.967807   -1.947351
     19          6           0       -2.932289    3.499713   -2.615067
     20          6           0       -4.177098    2.837982   -2.584856
     21          6           0       -4.298395    1.627799   -1.939882
     22          6           0       -3.197317    1.026823   -1.269317
     23          6           0        0.513746    1.640892   -0.151013
     24          6           0        1.285449    0.528260    0.183921
     25          6           0        2.649021    0.624620    0.477467
     26          6           0        3.278732    1.858542    0.494800
     27          6           0        4.731095    1.874087    0.832651
     28          6           0        5.263037    2.705248    1.834982
     29          6           0        6.621459    2.624451    2.123233
     30          6           0        7.415254    1.716007    1.427953
     31          6           0        6.804339    0.889187    0.474253
     32          6           0        7.568556   -0.129229   -0.294299
     33          6           0        7.055630   -0.634142   -1.504695
     34          7           0        7.673580   -1.543587   -2.264596
     35          6           0        8.851459   -2.009366   -1.847878
     36          6           0        9.458389   -1.587316   -0.653240
     37          6           0       10.719609   -2.131535   -0.247642
     38          7           0       11.744765   -2.574365    0.078084
     39          6           0        8.799125   -0.632699    0.132741
     40          7           0        5.495328    0.978716    0.186305
     41          6           0        2.506300    3.047840    0.262272
     42          6           0        3.088939    4.347310    0.280050
     43          6           0        2.321135    5.486600    0.198601
     44          6           0        0.916127    5.382935    0.116195
     45          6           0        0.322537    4.145007    0.012362
     46          6           0        1.088151    2.945783    0.006118
     47          6           0        0.439313   -0.735971    0.238080
     48          6           0        0.941208   -1.878646   -0.652718
     49          6           0        1.153299   -1.877464   -2.025999
     50          6           0        1.626351   -3.044203   -2.636397
     51          6           0        1.880478   -4.191843   -1.877104
     52          6           0        1.667207   -4.194373   -0.496874
     53          6           0        1.195691   -3.031018    0.114948
     54          6           0        0.885379   -2.738061    1.521325
     55          6           0        0.963512   -3.537837    2.663419
     56          6           0        0.597478   -2.991993    3.895775
     57          6           0        0.159034   -1.666255    3.987162
     58          6           0        0.080170   -0.862638    2.844481
     59          6           0        0.444593   -1.404379    1.617843
     60          7           0       -5.642750   -0.515669   -0.269321
     61          6           0       -9.276658   -0.908688    0.113936
     62          1           0      -10.849244    1.626726    1.751934
     63          1           0       -6.788730    1.081745    1.235096
     64          1           0       -7.760234   -3.150226   -0.389512
     65          1           0       -5.714329   -4.246286   -1.287776
     66          1           0       -3.618178   -2.909260   -1.513541
     67          1           0       -2.132185   -1.946682    0.060041
     68          1           0       -0.889598    3.457824   -2.023055
     69          1           0       -2.818580    4.421419   -3.179337
     70          1           0       -5.033227    3.265064   -3.099864
     71          1           0       -5.246458    1.106568   -1.951496
     72          1           0        3.222129   -0.269081    0.702263
     73          1           0        4.617924    3.382303    2.383619
     74          1           0        7.059192    3.261669    2.886765
     75          1           0        8.481675    1.661826    1.618836
     76          1           0        6.095401   -0.271924   -1.858922
     77          1           0        9.340651   -2.749927   -2.476455
     78          1           0        9.246121   -0.316319    1.069283
     79          1           0        4.165790    4.438850    0.362877
     80          1           0        2.795653    6.463815    0.221054
     81          1           0        0.301384    6.278725    0.129125
     82          1           0       -0.756581    4.077187   -0.032181
     83          1           0        0.957771   -0.986543   -2.616919
     84          1           0        1.800204   -3.057761   -3.708808
     85          1           0        2.250002   -5.089265   -2.365872
     86          1           0        1.868680   -5.088219    0.087949
     87          1           0        1.303219   -4.568360    2.598776
     88          1           0        0.653555   -3.603198    4.792551
     89          1           0       -0.122868   -1.256749    4.953314
     90          1           0       -0.260641    0.166833    2.917012
     91          1           0       -9.491368   -1.803222   -0.461176
 ---------------------------------------------------------------------

 The electronic state is 1-A.
 Alpha  occ. eigenvalues --  -14.35221 -14.35191 -14.34485 -14.34453 -14.34435
 Alpha  occ. eigenvalues --  -14.34427 -10.25366 -10.25342 -10.25203 -10.25184
 Alpha  occ. eigenvalues --  -10.25086 -10.25061 -10.24909 -10.24906 -10.24277
 Alpha  occ. eigenvalues --  -10.24238 -10.23907 -10.23883 -10.23725 -10.23721
 Alpha  occ. eigenvalues --  -10.22996 -10.22959 -10.22542 -10.22488 -10.22192
 Alpha  occ. eigenvalues --  -10.21747 -10.21707 -10.21431 -10.21339 -10.21309
 Alpha  occ. eigenvalues --  -10.21271 -10.21220 -10.21181 -10.21114 -10.21074
 Alpha  occ. eigenvalues --  -10.20994 -10.20908 -10.20490 -10.20477 -10.20234
 Alpha  occ. eigenvalues --  -10.20196 -10.20103 -10.20064 -10.20051 -10.19863
 Alpha  occ. eigenvalues --  -10.19790 -10.19780 -10.19766 -10.19745 -10.19691
 Alpha  occ. eigenvalues --  -10.19676 -10.19655 -10.19599 -10.19587 -10.19581
 Alpha  occ. eigenvalues --  -10.19579 -10.19505 -10.19481 -10.19281 -10.19246
 Alpha  occ. eigenvalues --  -10.19045  -0.96962  -0.96934  -0.96002  -0.95977
 Alpha  occ. eigenvalues --   -0.91341  -0.91147  -0.91140  -0.88606  -0.87717
 Alpha  occ. eigenvalues --   -0.85243  -0.84903  -0.84574  -0.84524  -0.82931
 Alpha  occ. eigenvalues --   -0.82473  -0.82117  -0.82021  -0.81118  -0.80320
 Alpha  occ. eigenvalues --   -0.79907  -0.77850  -0.77637  -0.75971  -0.75454
 Alpha  occ. eigenvalues --   -0.75191  -0.74812  -0.74640  -0.74157  -0.71961
 Alpha  occ. eigenvalues --   -0.71170  -0.69324  -0.68335  -0.67965  -0.67617
 Alpha  occ. eigenvalues --   -0.67436  -0.66022  -0.64266  -0.64075  -0.63522
 Alpha  occ. eigenvalues --   -0.63231  -0.62737  -0.62220  -0.61943  -0.60476
 Alpha  occ. eigenvalues --   -0.60036  -0.58974  -0.58095  -0.57765  -0.57683
 Alpha  occ. eigenvalues --   -0.56408  -0.56279  -0.53933  -0.53055  -0.52692
 Alpha  occ. eigenvalues --   -0.52644  -0.52550  -0.52300  -0.52266  -0.51874
 Alpha  occ. eigenvalues --   -0.51278  -0.50838  -0.50084  -0.49931  -0.49252
 Alpha  occ. eigenvalues --   -0.48926  -0.48584  -0.48369  -0.47858  -0.47106
 Alpha  occ. eigenvalues --   -0.46213  -0.46149  -0.45525  -0.44837  -0.44689
 Alpha  occ. eigenvalues --   -0.44467  -0.44005  -0.43901  -0.43736  -0.43456
 Alpha  occ. eigenvalues --   -0.43226  -0.43024  -0.42722  -0.42440  -0.42290
 Alpha  occ. eigenvalues --   -0.42286  -0.42229  -0.42024  -0.41970  -0.41399
 Alpha  occ. eigenvalues --   -0.41056  -0.40739  -0.40599  -0.40356  -0.39950
 Alpha  occ. eigenvalues --   -0.39814  -0.39502  -0.39109  -0.38766  -0.38651
 Alpha  occ. eigenvalues --   -0.38376  -0.36754  -0.36693  -0.36642  -0.36615
 Alpha  occ. eigenvalues --   -0.36562  -0.36438  -0.36274  -0.36151  -0.35043
 Alpha  occ. eigenvalues --   -0.34786  -0.34708  -0.34282  -0.34257  -0.34052
 Alpha  occ. eigenvalues --   -0.33651  -0.33325  -0.32949  -0.32706  -0.32461
 Alpha  occ. eigenvalues --   -0.32066  -0.31215  -0.30204  -0.29598  -0.28948
 Alpha  occ. eigenvalues --   -0.28759  -0.28311  -0.28127  -0.28024  -0.27531
 Alpha  occ. eigenvalues --   -0.26559  -0.26485  -0.26299  -0.25609  -0.25424
 Alpha  occ. eigenvalues --   -0.25170  -0.24601  -0.24261  -0.23176  -0.22094
 Alpha  occ. eigenvalues --   -0.19750
 Alpha virt. eigenvalues --   -0.07648  -0.06968  -0.06965  -0.06226  -0.06077
 Alpha virt. eigenvalues --   -0.04660  -0.03719  -0.03071  -0.02902  -0.02451
 Alpha virt. eigenvalues --   -0.02008  -0.01330  -0.00703  -0.00609   0.00523

 Mulliken charges:
               1
     1  N   -0.471154
     2  C    0.234157
     3  C    0.109745
     4  C    0.042341
     5  N   -0.409066
     6  C    0.028511
     7  C    0.069769
     8  C    0.257751
     9  C   -0.173298
    10  C   -0.103714
    11  C   -0.163856
    12  C    0.218669
    13  C    0.063482
    14  C   -0.247133
    15  C    0.121247
    16  C   -0.019672
    17  C    0.071329
    18  C   -0.207843
    19  C   -0.140895
    20  C   -0.131269
    21  C   -0.188465
    22  C    0.091580
    23  C   -0.016952
    24  C    0.123366
    25  C   -0.224378
    26  C    0.045873
    27  C    0.213424
    28  C   -0.168795
    29  C   -0.104298
    30  C   -0.172269
    31  C    0.261475
    32  C    0.070745
    33  C    0.030056
    34  N   -0.409505
    35  C    0.042487
    36  C    0.109689
    37  C    0.233860
    38  N   -0.471580
    39  C   -0.151466
    40  N   -0.539675
    41  C    0.101480
    42  C   -0.221861
    43  C   -0.129431
    44  C   -0.143266
    45  C   -0.206952
    46  C    0.071793
    47  C   -0.271710
    48  C    0.123621
    49  C   -0.188470
    50  C   -0.135239
    51  C   -0.134258
    52  C   -0.190155
    53  C    0.065993
    54  C    0.066190
    55  C   -0.190250
    56  C   -0.134592
    57  C   -0.136031
    58  C   -0.188655
    59  C    0.121570
    60  N   -0.544728
    61  C   -0.151664
    62  H    0.172047
    63  H    0.187042
    64  H    0.147435
    65  H    0.151812
    66  H    0.156608
    67  H    0.146185
    68  H    0.158646
    69  H    0.132975
    70  H    0.132508
    71  H    0.149417
    72  H    0.155648
    73  H    0.159749
    74  H    0.151297
    75  H    0.147136
    76  H    0.187133
    77  H    0.171429
    78  H    0.168199
    79  H    0.142306
    80  H    0.132395
    81  H    0.134947
    82  H    0.162639
    83  H    0.141041
    84  H    0.134023
    85  H    0.132793
    86  H    0.131752
    87  H    0.132024
    88  H    0.131856
    89  H    0.132463
    90  H    0.140394
    91  H    0.168442
 Sum of Mulliken charges =  -0.00000

 Dipole moment (field-independent basis, Debye):
    X=              1.5519    Y=              1.2632    Z=              0.8563  Tot=              2.1765
 Quadrupole moment (field-independent basis, Debye-Ang):
   XX=           -476.2099   YY=           -311.9144   ZZ=           -332.0533
   XY=             40.0715   XZ=             19.9648   YZ=              4.0721

 1\1\GINC-NODE13\FOpt\RB3LYP\6-31G(d)\C55H30N6\WYKGROUP\05-Nov-2022\0\\
 #p b3lyp/6-31g(d) opt SCF=XQC\\Gaussian input prepared by ASE\\0,1\N,-
 12.8144969707,0.6171424548,0.9705026086\C,-11.6789993564,0.867197863,0
 .9355534581\C,-10.2816687546,1.1789878275,0.8948683426\C,-9.8466178164
 ,2.5124736681,0.9741931451\N,-8.5592317888,2.8570038348,0.9297210759\C
 ,-7.6538385415,1.8815649027,0.8065908274\C,-7.9682065026,0.5112929172,
 0.7252721349\C,-6.8840264097,-0.4985674443,0.5951602459\C,-7.07784109,
 -1.8460922607,0.9306489789\C,-6.0166692908,-2.7313791077,0.7585172835\

 Normal termination of Gaussian 16 at Sat Nov  5 01:45:30 2022.
