 Gaussian 16, Revision B.01,
 Gaussian 16:  ES64L-G16RevB.01 20-Dec-2017

 -----------------------------
 #p b3lyp/6-31g(d) opt SCF=XQC
 -----------------------------

 ------------------------------
 Gaussian input prepared by ASE
 ------------------------------
 Symbolic Z-matrix:
 Charge =  0 Multiplicity = 1

 SCF Done:  E(RB3LYP) =  -2596.94856890     A.U. after   16 cycles
 SCF Done:  E(RB3LYP) =  -2596.96459168     A.U. after   13 cycles
 SCF Done:  E(RB3LYP) =  -2596.96633533     A.U. after   12 cycles
 SCF Done:  E(RB3LYP) =  -2596.96676246     A.U. after   12 cycles
 SCF Done:  E(RB3LYP) =  -2596.96681368     A.U. after   11 cycles
 SCF Done:  E(RB3LYP) =  -2596.96682375     A.U. after   10 cycles
 SCF Done:  E(RB3LYP) =  -2596.96682591     A.U. after    9 cycles
 SCF Done:  E(RB3LYP) =  -2596.96682651     A.U. after    7 cycles
 SCF Done:  E(RB3LYP) =  -2596.96682672     A.U. after    7 cycles
 SCF Done:  E(RB3LYP) =  -2596.96682672     A.U. after    5 cycles
 Optimization completed.
    -- Stationary point found.

                         Standard orientation:
 ---------------------------------------------------------------------
 Center     Atomic      Atomic             Coordinates (Angstroms)
 Number     Number       Type             X           Y           Z
 ---------------------------------------------------------------------
      1          6           0       -1.130953   -8.391348    3.659987
      2          6           0       -2.429248   -8.212161    3.179145
      3          6           0       -2.685956   -7.268611    2.185690
      4          6           0       -1.650579   -6.484390    1.649942
      5          6           0       -1.924881   -5.479038    0.590283
      6          6           0       -2.863956   -5.736312   -0.419628
      7          6           0       -3.138599   -4.801179   -1.428435
      8          6           0       -4.129627   -5.101043   -2.494904
      9          6           0       -5.317807   -5.790267   -2.199768
     10          6           0       -6.249311   -6.071619   -3.197984
     11          6           0       -6.012782   -5.669250   -4.513651
     12          6           0       -4.836525   -4.983502   -4.821872
     13          6           0       -3.905027   -4.702839   -3.823416
     14          6           0       -2.439748   -3.584879   -1.424063
     15          6           0       -1.504873   -3.309895   -0.422462
     16          7           0       -0.820429   -2.063547   -0.414710
     17          6           0       -1.417083   -0.797397   -0.407369
     18          6           0       -2.769475   -0.446530   -0.372814
     19          6           0       -3.092385    0.905509   -0.344993
     20          6           0       -2.104431    1.917630   -0.348473
     21          6           0       -2.480310    3.359886   -0.383195
     22          6           0       -1.904174    4.171788   -1.374643
     23          6           0       -2.228483    5.516483   -1.511744
     24          6           0       -3.163134    6.114446   -0.653496
     25          6           0       -3.528926    7.547476   -0.786572
     26          6           0       -3.646690    8.146333   -2.052656
     27          6           0       -3.989127    9.491513   -2.181429
     28          6           0       -4.223197   10.269677   -1.046215
     29          6           0       -4.110316    9.689225    0.218462
     30          6           0       -3.766337    8.344345    0.346577
     31          6           0       -3.734172    5.309883    0.341819
     32          6           0       -3.411026    3.954825    0.505004
     33          6           0       -4.050281    3.223867    1.638861
     34          6           0       -3.282437    2.517365    2.579299
     35          6           0       -3.887396    1.888092    3.665862
     36          6           0       -5.272649    1.948077    3.834643
     37          6           0       -6.047942    2.646416    2.908346
     38          6           0       -5.441381    3.280359    1.823179
     39          6           0       -0.755423    1.544292   -0.376494
     40          6           0       -0.403140    0.191668   -0.399674
     41          6           0        0.865889   -0.507994   -0.402070
     42          6           0        2.195710   -0.082363   -0.414119
     43          6           0        3.231671   -1.023982   -0.443677
     44          6           0        4.660488   -0.605538   -0.515809
     45          6           0        5.467930   -1.168553   -1.518693
     46          6           0        6.796235   -0.799231   -1.694943
     47          6           0        7.382346    0.168833   -0.865964
     48          6           0        8.797646    0.581780   -1.039951
     49          6           0        9.191931    1.916345   -0.843081
     50          6           0       10.520909    2.303788   -1.007051
     51          6           0       11.487238    1.365437   -1.374170
     52          6           0       11.111258    0.035924   -1.574408
     53          6           0        9.782377   -0.350994   -1.408248
     54          6           0        6.583383    0.725670    0.142385
     55          6           0        5.244653    0.358505    0.343766
     56          6           0        4.526085    0.976248    1.497370
     57          6           0        4.528767    2.370134    1.667296
     58          6           0        3.906773    2.960665    2.768230
     59          6           0        3.275065    2.165937    3.725189
     60          6           0        3.269612    0.777553    3.571345
     61          6           0        3.886422    0.189003    2.468942
     62          6           0        2.901623   -2.398756   -0.471270
     63          6           0        1.584964   -2.850304   -0.456047
     64          6           0        0.567970   -1.894434   -0.412782
     65          6           0       -1.252937   -4.247784    0.582833
     66          6           0       -0.349409   -6.675655    2.144231
     67          6           0       -0.092096   -7.618341    3.138397
     68          1           0       -0.930670   -9.126325    4.434791
     69          1           0       -3.247119   -8.801945    3.584616
     70          1           0       -3.704303   -7.118180    1.838332
     71          1           0       -3.354647   -6.704022   -0.450159
     72          1           0       -5.523648   -6.084757   -1.174409
     73          1           0       -7.165634   -6.598531   -2.945217
     74          1           0       -6.738808   -5.888018   -5.291893
     75          1           0       -4.638287   -4.672797   -5.844236
     76          1           0       -2.981124   -4.191981   -4.079939
     77          1           0       -2.629637   -2.841499   -2.191110
     78          1           0       -3.549118   -1.200895   -0.367571
     79          1           0       -4.138386    1.193671   -0.326771
     80          1           0       -1.198557    3.721595   -2.067478
     81          1           0       -1.742045    6.109844   -2.280868
     82          1           0       -3.493063    7.543821   -2.943681
     83          1           0       -4.081886    9.930122   -3.171662
     84          1           0       -4.490687   11.318171   -1.146110
     85          1           0       -4.281543   10.287175    1.109895
     86          1           0       -3.654753    7.910989    1.336564
     87          1           0       -4.454161    5.749770    1.025827
     88          1           0       -2.204678    2.468963    2.458693
     89          1           0       -3.273821    1.351714    4.385081
     90          1           0       -5.742817    1.454446    4.681052
     91          1           0       -7.127307    2.697002    3.026875
     92          1           0       -6.051355    3.814954    1.099566
     93          1           0        0.016488    2.309106   -0.358561
     94          1           0        2.428611    0.977923   -0.412862
     95          1           0        5.021536   -1.885497   -2.202335
     96          1           0        7.370515   -1.236296   -2.506995
     97          1           0        8.443911    2.660286   -0.583487
     98          1           0       10.800184    3.343388   -0.856314
     99          1           0       12.523169    1.667309   -1.502843
    100          1           0       11.856247   -0.705335   -1.851974
    101          1           0        9.506566   -1.393647   -1.539744
    102          1           0        7.029674    1.430964    0.837413
    103          1           0        5.011810    2.994572    0.920072
    104          1           0        3.914277    4.042354    2.875104
    105          1           0        2.790714    2.623442    4.583735
    106          1           0        2.785794    0.149362    4.314822
    107          1           0        3.881211   -0.891117    2.359535
    108          1           0        3.706424   -3.128419   -0.491356
    109          1           0        1.362114   -3.911936   -0.481423
    110          1           0       -0.559272   -3.997683    1.378625
    111          1           0        0.471093   -6.097428    1.728316
    112          1           0        0.923690   -7.754550    3.499960
 ---------------------------------------------------------------------

 The electronic state is 1-A.
 Alpha  occ. eigenvalues --  -14.38295 -10.24092 -10.22416 -10.22329 -10.21065
 Alpha  occ. eigenvalues --  -10.21064 -10.20524 -10.20489 -10.19934 -10.19932
 Alpha  occ. eigenvalues --  -10.19710 -10.19680 -10.19627 -10.19619 -10.19604
 Alpha  occ. eigenvalues --  -10.19576 -10.19559 -10.19544 -10.19532 -10.19518
 Alpha  occ. eigenvalues --  -10.19500 -10.19487 -10.19487 -10.19486 -10.19459
 Alpha  occ. eigenvalues --  -10.19454 -10.19429 -10.19417 -10.19403 -10.19362
 Alpha  occ. eigenvalues --  -10.19316 -10.19045 -10.18948 -10.18904 -10.18795
 Alpha  occ. eigenvalues --  -10.18776 -10.18748 -10.18746 -10.18724 -10.18724
 Alpha  occ. eigenvalues --  -10.18698 -10.18685 -10.18657 -10.18648 -10.18646
 Alpha  occ. eigenvalues --  -10.18638 -10.18622 -10.18598 -10.18594 -10.18582
 Alpha  occ. eigenvalues --  -10.18570 -10.18556 -10.18529 -10.18511 -10.18491
 Alpha  occ. eigenvalues --  -10.18487 -10.18467 -10.18455 -10.18454 -10.18440
 Alpha  occ. eigenvalues --  -10.18432 -10.18410 -10.18410 -10.18391 -10.18381
 Alpha  occ. eigenvalues --  -10.18303 -10.18226  -0.99004  -0.88239  -0.87084
 Alpha  occ. eigenvalues --   -0.87012  -0.86163  -0.85691  -0.85338  -0.85178
 Alpha  occ. eigenvalues --   -0.84606  -0.84233  -0.83435  -0.83371  -0.79721
 Alpha  occ. eigenvalues --   -0.79135  -0.78470  -0.77670  -0.76759  -0.76359
 Alpha  occ. eigenvalues --   -0.76203  -0.74967  -0.74907  -0.74839  -0.74139
 Alpha  occ. eigenvalues --   -0.74098  -0.74043  -0.73794  -0.73758  -0.72765
 Alpha  occ. eigenvalues --   -0.72395  -0.72074  -0.71642  -0.71622  -0.70205
 Alpha  occ. eigenvalues --   -0.69651  -0.65228  -0.64130  -0.63169  -0.63022
 Alpha  occ. eigenvalues --   -0.62292  -0.62144  -0.61645  -0.60832  -0.60814
 Alpha  occ. eigenvalues --   -0.60085  -0.59905  -0.59810  -0.59778  -0.59711
 Alpha  occ. eigenvalues --   -0.59069  -0.58330  -0.57665  -0.57465  -0.57063
 Alpha  occ. eigenvalues --   -0.56709  -0.56014  -0.55565  -0.54092  -0.52870
 Alpha  occ. eigenvalues --   -0.52496  -0.51618  -0.51288  -0.51256  -0.50411
 Alpha  occ. eigenvalues --   -0.50279  -0.50161  -0.49712  -0.48531  -0.48148
 Alpha  occ. eigenvalues --   -0.47385  -0.47126  -0.46788  -0.46519  -0.46443
 Alpha  occ. eigenvalues --   -0.45989  -0.45372  -0.45107  -0.44982  -0.44942
 Alpha  occ. eigenvalues --   -0.44388  -0.44289  -0.44197  -0.44075  -0.43779
 Alpha  occ. eigenvalues --   -0.43230  -0.43101  -0.42946  -0.42848  -0.42841
 Alpha  occ. eigenvalues --   -0.42651  -0.42572  -0.42377  -0.42254  -0.42213
 Alpha  occ. eigenvalues --   -0.41867  -0.41818  -0.41767  -0.41522  -0.41344
 Alpha  occ. eigenvalues --   -0.41293  -0.41184  -0.40983  -0.40917  -0.39496
 Alpha  occ. eigenvalues --   -0.38907  -0.38373  -0.37803  -0.37739  -0.37165
 Alpha  occ. eigenvalues --   -0.37138  -0.36962  -0.36360  -0.36236  -0.36043
 Alpha  occ. eigenvalues --   -0.35989  -0.35884  -0.35714  -0.35552  -0.35439
 Alpha  occ. eigenvalues --   -0.35240  -0.34955  -0.34771  -0.34548  -0.34344
 Alpha  occ. eigenvalues --   -0.34278  -0.34186  -0.34053  -0.33932  -0.33797
 Alpha  occ. eigenvalues --   -0.33584  -0.33270  -0.32880  -0.32748  -0.32570
 Alpha  occ. eigenvalues --   -0.32239  -0.31753  -0.28702  -0.28288  -0.27563
 Alpha  occ. eigenvalues --   -0.27291  -0.26936  -0.26192  -0.25796  -0.25517
 Alpha  occ. eigenvalues --   -0.25467  -0.24910  -0.24733  -0.24682  -0.24429
 Alpha  occ. eigenvalues --   -0.24276  -0.23931  -0.22886  -0.22812  -0.22710
 Alpha  occ. eigenvalues --   -0.22259  -0.21772  -0.20345  -0.18837
 Alpha virt. eigenvalues --   -0.04052  -0.03399  -0.03347  -0.02847  -0.02639
 Alpha virt. eigenvalues --   -0.01482  -0.01288  -0.00619  -0.00561   0.00189
 Alpha virt. eigenvalues --    0.00231   0.00300   0.00379   0.00517   0.00968

 Mulliken charges:
               1
     1  C   -0.125057
     2  C   -0.134168
     3  C   -0.170644
     4  C    0.088261
     5  C    0.086954
     6  C   -0.229706
     7  C    0.085511
     8  C    0.085814
     9  C   -0.171176
    10  C   -0.134032
    11  C   -0.125049
    12  C   -0.134206
    13  C   -0.171672
    14  C   -0.211532
    15  C    0.278252
    16  N   -0.746393
    17  C    0.316656
    18  C   -0.179156
    19  C   -0.170025
    20  C    0.052335
    21  C    0.046427
    22  C   -0.182878
    23  C   -0.179566
    24  C    0.099898
    25  C    0.087372
    26  C   -0.174145
    27  C   -0.133992
    28  C   -0.126945
    29  C   -0.134596
    30  C   -0.173269
    31  C   -0.239589
    32  C    0.042913
    33  C    0.053708
    34  C   -0.149762
    35  C   -0.135330
    36  C   -0.126732
    37  C   -0.135474
    38  C   -0.169503
    39  C   -0.255736
    40  C    0.065005
    41  C    0.062312
    42  C   -0.234189
    43  C    0.054651
    44  C    0.047392
    45  C   -0.186860
    46  C   -0.179232
    47  C    0.100355
    48  C    0.089882
    49  C   -0.172015
    50  C   -0.134025
    51  C   -0.126837
    52  C   -0.133812
    53  C   -0.174151
    54  C   -0.240787
    55  C    0.040094
    56  C    0.056957
    57  C   -0.169659
    58  C   -0.134583
    59  C   -0.126362
    60  C   -0.134689
    61  C   -0.147913
    62  C   -0.190459
    63  C   -0.182328
    64  C    0.318070
    65  C   -0.210975
    66  C   -0.173943
    67  C   -0.134171
    68  H    0.132682
    69  H    0.132980
    70  H    0.131989
    71  H    0.141803
    72  H    0.131741
    73  H    0.132851
    74  H    0.132647
    75  H    0.134304
    76  H    0.136928
    77  H    0.153998
    78  H    0.144112
    79  H    0.139756
    80  H    0.135388
    81  H    0.131655
    82  H    0.131910
    83  H    0.129433
    84  H    0.128509
    85  H    0.129854
    86  H    0.134943
    87  H    0.136514
    88  H    0.141827
    89  H    0.129671
    90  H    0.127020
    91  H    0.128088
    92  H    0.132939
    93  H    0.138485
    94  H    0.142311
    95  H    0.134745
    96  H    0.131666
    97  H    0.130971
    98  H    0.129865
    99  H    0.128838
   100  H    0.129517
   101  H    0.131239
   102  H    0.139808
   103  H    0.129656
   104  H    0.129326
   105  H    0.128308
   106  H    0.129173
   107  H    0.137369
   108  H    0.130166
   109  H    0.140485
   110  H    0.154351
   111  H    0.134668
   112  H    0.134013
 Sum of Mulliken charges =  -0.00000

 Dipole moment (field-independent basis, Debye):
    X=             -1.3789    Y=             -2.2154    Z=              0.0768  Tot=              2.6106
 Quadrupole moment (field-independent basis, Debye-Ang):
   XX=           -356.8391   YY=           -345.7653   ZZ=           -364.3584
   XY=             10.5258   XZ=             -2.1775   YZ=             -5.3134

 1\1\GINC-NODE92\FOpt\RB3LYP\6-31G(d)\C66H45N1\WYKGROUP\05-Nov-2022\0\\
 #p b3lyp/6-31g(d) opt SCF=XQC\\Gaussian input prepared by ASE\\0,1\C,1
 .736836407,7.8380791666,-4.5909889294\C,0.3788124537,8.0517537436,-4.3
 480866424\C,-0.271925496,7.3502428966,-3.3343989738\C,0.4205474348,6.4
 20807586,-2.5402563944\C,-0.2737334837,5.6736992863,-1.4592113134\C,-1
 .2571663518,6.2932196927,-0.6737026329\C,-1.9251382594,5.6063438643,0.
 3508021051\C,-2.9555541677,6.2874364637,1.1777045994\C,-3.8563734478,7
 .1972107258,0.5991354029\C,-4.8243742265,7.836319736,1.3723165303\C,-4

 Normal termination of Gaussian 16 at Sat Nov  5 01:04:15 2022.
