 Gaussian 16, Revision B.01,
 Gaussian 16:  ES64L-G16RevB.01 20-Dec-2017

 -------------------------------------------------------------------
 #p b3lyp/6-31g(d) 6D 10F nosymm GFInput td=(50-50,nstate=2) SCF=XQC
 -------------------------------------------------------------------

 ------------------------------
 Gaussian input prepared by ASE
 ------------------------------
 Symbolic Z-matrix:
 Charge =  0 Multiplicity = 1

                          Input orientation:
 ---------------------------------------------------------------------
 Center     Atomic      Atomic             Coordinates (Angstroms)
 Number     Number       Type             X           Y           Z
 ---------------------------------------------------------------------
      1          6           0        1.736836    7.838079   -4.590989
      2          6           0        0.378812    8.051754   -4.348087
      3          6           0       -0.271925    7.350243   -3.334399
      4          6           0        0.420547    6.420808   -2.540256
      5          6           0       -0.273733    5.673699   -1.459211
      6          6           0       -1.257166    6.293220   -0.673703
      7          6           0       -1.925138    5.606344    0.350802
      8          6           0       -2.955554    6.287436    1.177705
      9          6           0       -3.856373    7.197211    0.599135
     10          6           0       -4.824374    7.836320    1.372317
     11          6           0       -4.912760    7.579021    2.741554
     12          6           0       -4.024412    6.677350    3.330333
     13          6           0       -3.056196    6.038870    2.556850
     14          6           0       -1.582770    4.268152    0.595386
     15          6           0       -0.609340    3.633848   -0.181083
     16          7           0       -0.288127    2.269875    0.060384
     17          6           0       -1.190839    1.200160    0.063051
     18          6           0       -2.565030    1.189319   -0.191406
     19          6           0       -3.226951   -0.032609   -0.148950
     20          6           0       -2.556582   -1.244512    0.138024
     21          6           0       -3.302669   -2.531165    0.240342
     22          6           0       -3.125908   -3.310287    1.396115
     23          6           0       -3.813095   -4.501451    1.598792
     24          6           0       -4.726277   -4.968200    0.641730
     25          6           0       -5.475755   -6.234529    0.841186
     26          6           0       -5.945560   -6.600719    2.114235
     27          6           0       -6.648812   -7.789098    2.305407
     28          6           0       -6.899984   -8.639235    1.226881
     29          6           0       -6.439935   -8.289306   -0.043937
     30          6           0       -5.735399   -7.101499   -0.234146
     31          6           0       -4.899531   -4.197913   -0.516155
     32          6           0       -4.206603   -3.000220   -0.745544
     33          6           0       -4.442552   -2.303499   -2.044577
     34          6           0       -3.376900   -1.946818   -2.887381
     35          6           0       -3.614658   -1.349318   -4.123926
     36          6           0       -4.921776   -1.092124   -4.543817
     37          6           0       -5.990125   -1.441158   -3.717024
     38          6           0       -5.751864   -2.043728   -2.481091
     39          6           0       -1.178615   -1.212216    0.383290
     40          6           0       -0.487870    0.002436    0.341770
     41          6           0        0.904719    0.363675    0.515460
     42          6           0        2.054717   -0.368005    0.818576
     43          6           0        3.285615    0.286157    0.951609
     44          6           0        4.522259   -0.454315    1.331387
     45          6           0        5.282453    0.030512    2.409242
     46          6           0        6.420194   -0.623509    2.867128
     47          6           0        6.850684   -1.812910    2.260592
     48          6           0        8.059943   -2.530366    2.736847
     49          6           0        8.111403   -3.934831    2.747374
     50          6           0        9.246899   -4.608139    3.195132
     51          6           0       10.357712   -3.892239    3.645301
     52          6           0       10.321794   -2.496618    3.641999
     53          6           0        9.186595   -1.824147    3.192169
     54          6           0        6.101053   -2.294657    1.178396
     55          6           0        4.956767   -1.643719    0.694194
     56          6           0        4.290230   -2.224134   -0.508967
     57          6           0        3.949204   -3.585946   -0.540086
     58          6           0        3.373491   -4.156402   -1.676217
     59          6           0        3.133895   -3.375280   -2.807084
     60          6           0        3.473347   -2.020348   -2.791673
     61          6           0        4.043373   -1.450317   -1.654892
     62          6           0        3.332507    1.689493    0.783845
     63          6           0        2.202412    2.442366    0.477604
     64          6           0        0.987922    1.767954    0.336119
     65          6           0        0.037213    4.329416   -1.206695
     66          6           0        1.786625    6.216109   -2.796925
     67          6           0        2.437820    6.916543   -3.811110
     68          1           0        2.244182    8.384306   -5.381471
     69          1           0       -0.178860    8.759970   -4.955208
     70          1           0       -1.335070    7.504140   -3.172047
     71          1           0       -1.471666    7.345774   -0.829562
     72          1           0       -3.813017    7.384676   -0.470179
     73          1           0       -5.516363    8.529942    0.901981
     74          1           0       -5.667405    8.076681    3.344447
     75          1           0       -4.078838    6.475765    4.396853
     76          1           0       -2.353323    5.359328    3.030734
     77          1           0       -2.081244    3.710223    1.381053
     78          1           0       -3.105439    2.102795   -0.416033
     79          1           0       -4.295606   -0.055889   -0.335827
     80          1           0       -2.443876   -2.952739    2.162654
     81          1           0       -3.628714   -5.080526    2.499307
     82          1           0       -5.779235   -5.934022    2.955900
     83          1           0       -7.008969   -8.046788    3.298094
     84          1           0       -7.448607   -9.565437    1.375314
     85          1           0       -6.621725   -8.947383   -0.889752
     86          1           0       -5.358769   -6.853416   -1.222543
     87          1           0       -5.593881   -4.540809   -1.277766
     88          1           0       -2.357792   -2.146777   -2.571330
     89          1           0       -2.775659   -1.086755   -4.763138
     90          1           0       -5.105041   -0.623648   -5.507187
     91          1           0       -7.011667   -1.242607   -4.031136
     92          1           0       -6.587654   -2.304838   -1.837079
     93          1           0       -0.644699   -2.137109    0.584818
     94          1           0        1.994819   -1.442190    0.963459
     95          1           0        4.940973    0.924270    2.924248
     96          1           0        6.955098   -0.229548    3.726735
     97          1           0        7.243012   -4.502375    2.424633
     98          1           0        9.260067   -5.695006    3.200650
     99          1           0       11.242725   -4.416825    3.995153
    100          1           0       11.183768   -1.928358    3.981994
    101          1           0        9.180552   -0.737926    3.168203
    102          1           0        6.447316   -3.178829    0.651118
    103          1           0        4.125539   -4.197104    0.341384
    104          1           0        3.110082   -5.210984   -1.674918
    105          1           0        2.686400   -3.817424   -3.693235
    106          1           0        3.296684   -1.404868   -3.669989
    107          1           0        4.308148   -0.397441   -1.653132
    108          1           0        4.288708    2.195509    0.884560
    109          1           0        2.268443    3.518803    0.358056
    110          1           0        0.755507    3.807124   -1.829808
    111          1           0        2.348229    5.519816   -2.180216
    112          1           0        3.496979    6.747615   -3.986456
 ---------------------------------------------------------------------

 SCF Done:  E(RB3LYP) =  -2596.96681559     A.U. after   16 cycles

 Excitation energies and oscillator strengths:

 Excited state symmetry could not be determined.
 Excited State   1:      Triplet-?Sym    2.9417 eV  421.46 nm  f=0.0000  <S**2>=2.000
     218 -> 230       -0.11167
     221 -> 227       -0.13879
     222 -> 226        0.11859
     222 -> 228        0.21079
     223 -> 226        0.17963
     223 -> 229        0.25893
     224 -> 226       -0.26245
     224 -> 227        0.32949
     224 -> 239        0.10482
 This state for optimization and/or second-order correction.
 Total Energy, E(TD-HF/TD-DFT) =  -2596.85870840
 Copying the excited state density for this state as the 1-particle RhoCI density.

 Excited state symmetry could not be determined.
 Excited State   2:      Triplet-?Sym    3.0134 eV  411.44 nm  f=0.0000  <S**2>=2.000
     218 -> 230        0.11058
     219 -> 225        0.10214
     220 -> 231        0.14971
     221 -> 228       -0.14410
     221 -> 229       -0.13261
     222 -> 227        0.17201
     223 -> 226       -0.13772
     223 -> 227        0.27500
     224 -> 226        0.25709
     224 -> 227        0.25017
     224 -> 228        0.24020

 Excited state symmetry could not be determined.
 Excited State   3:      Singlet-?Sym    3.5163 eV  352.59 nm  f=0.0062  <S**2>=0.000
     224 -> 225        0.69783

 Excited state symmetry could not be determined.
 Excited State   4:      Singlet-?Sym    3.7075 eV  334.42 nm  f=0.2936  <S**2>=0.000
     224 -> 226        0.66516
     224 -> 227        0.17837

 Alpha  occ. eigenvalues --  -14.38295 -10.24092 -10.22416 -10.22329 -10.21065
 Alpha  occ. eigenvalues --  -10.21064 -10.20524 -10.20489 -10.19934 -10.19932
 Alpha  occ. eigenvalues --  -10.19710 -10.19680 -10.19627 -10.19619 -10.19604
 Alpha  occ. eigenvalues --  -10.19576 -10.19559 -10.19544 -10.19532 -10.19518
 Alpha  occ. eigenvalues --  -10.19500 -10.19487 -10.19487 -10.19486 -10.19459
 Alpha  occ. eigenvalues --  -10.19454 -10.19429 -10.19417 -10.19403 -10.19362
 Alpha  occ. eigenvalues --  -10.19316 -10.19045 -10.18948 -10.18904 -10.18795
 Alpha  occ. eigenvalues --  -10.18776 -10.18748 -10.18746 -10.18724 -10.18724
 Alpha  occ. eigenvalues --  -10.18697 -10.18685 -10.18657 -10.18648 -10.18646
 Alpha  occ. eigenvalues --  -10.18638 -10.18622 -10.18597 -10.18593 -10.18582
 Alpha  occ. eigenvalues --  -10.18570 -10.18556 -10.18529 -10.18511 -10.18491
 Alpha  occ. eigenvalues --  -10.18487 -10.18467 -10.18455 -10.18454 -10.18440
 Alpha  occ. eigenvalues --  -10.18432 -10.18410 -10.18410 -10.18391 -10.18381
 Alpha  occ. eigenvalues --  -10.18303 -10.18226  -0.99004  -0.88239  -0.87084
 Alpha  occ. eigenvalues --   -0.87012  -0.86163  -0.85691  -0.85338  -0.85178
 Alpha  occ. eigenvalues --   -0.84606  -0.84233  -0.83435  -0.83371  -0.79721
 Alpha  occ. eigenvalues --   -0.79135  -0.78470  -0.77670  -0.76759  -0.76359
 Alpha  occ. eigenvalues --   -0.76203  -0.74967  -0.74907  -0.74839  -0.74140
 Alpha  occ. eigenvalues --   -0.74098  -0.74043  -0.73794  -0.73758  -0.72765
 Alpha  occ. eigenvalues --   -0.72395  -0.72074  -0.71642  -0.71622  -0.70205
 Alpha  occ. eigenvalues --   -0.69651  -0.65228  -0.64130  -0.63169  -0.63022
 Alpha  occ. eigenvalues --   -0.62292  -0.62144  -0.61645  -0.60831  -0.60814
 Alpha  occ. eigenvalues --   -0.60085  -0.59905  -0.59810  -0.59778  -0.59711
 Alpha  occ. eigenvalues --   -0.59069  -0.58330  -0.57665  -0.57465  -0.57063
 Alpha  occ. eigenvalues --   -0.56709  -0.56014  -0.55565  -0.54092  -0.52870
 Alpha  occ. eigenvalues --   -0.52496  -0.51618  -0.51288  -0.51256  -0.50411
 Alpha  occ. eigenvalues --   -0.50279  -0.50161  -0.49712  -0.48531  -0.48148
 Alpha  occ. eigenvalues --   -0.47385  -0.47126  -0.46788  -0.46519  -0.46443
 Alpha  occ. eigenvalues --   -0.45989  -0.45372  -0.45107  -0.44982  -0.44942
 Alpha  occ. eigenvalues --   -0.44388  -0.44289  -0.44197  -0.44075  -0.43779
 Alpha  occ. eigenvalues --   -0.43230  -0.43101  -0.42946  -0.42848  -0.42841
 Alpha  occ. eigenvalues --   -0.42651  -0.42572  -0.42377  -0.42254  -0.42213
 Alpha  occ. eigenvalues --   -0.41867  -0.41818  -0.41767  -0.41522  -0.41344
 Alpha  occ. eigenvalues --   -0.41293  -0.41184  -0.40983  -0.40917  -0.39496
 Alpha  occ. eigenvalues --   -0.38907  -0.38373  -0.37803  -0.37739  -0.37165
 Alpha  occ. eigenvalues --   -0.37138  -0.36962  -0.36360  -0.36236  -0.36043
 Alpha  occ. eigenvalues --   -0.35989  -0.35884  -0.35714  -0.35552  -0.35439
 Alpha  occ. eigenvalues --   -0.35240  -0.34955  -0.34771  -0.34548  -0.34344
 Alpha  occ. eigenvalues --   -0.34278  -0.34186  -0.34053  -0.33932  -0.33797
 Alpha  occ. eigenvalues --   -0.33584  -0.33270  -0.32880  -0.32748  -0.32570
 Alpha  occ. eigenvalues --   -0.32239  -0.31753  -0.28702  -0.28288  -0.27563
 Alpha  occ. eigenvalues --   -0.27291  -0.26936  -0.26192  -0.25796  -0.25517
 Alpha  occ. eigenvalues --   -0.25467  -0.24910  -0.24733  -0.24682  -0.24429
 Alpha  occ. eigenvalues --   -0.24276  -0.23931  -0.22886  -0.22812  -0.22710
 Alpha  occ. eigenvalues --   -0.22259  -0.21772  -0.20345  -0.18837
 Alpha virt. eigenvalues --   -0.04052  -0.03399  -0.03347  -0.02847  -0.02639
 Alpha virt. eigenvalues --   -0.01482  -0.01288  -0.00619  -0.00561   0.00189
 Alpha virt. eigenvalues --    0.00231   0.00300   0.00379   0.00517   0.00968

 Mulliken charges:
               1
     1  C   -0.125052
     2  C   -0.134168
     3  C   -0.170645
     4  C    0.088277
     5  C    0.086937
     6  C   -0.229715
     7  C    0.085508
     8  C    0.085821
     9  C   -0.171180
    10  C   -0.134032
    11  C   -0.125051
    12  C   -0.134204
    13  C   -0.171676
    14  C   -0.211503
    15  C    0.278241
    16  N   -0.746406
    17  C    0.316671
    18  C   -0.179153
    19  C   -0.170042
    20  C    0.052362
    21  C    0.046453
    22  C   -0.182888
    23  C   -0.179569
    24  C    0.099893
    25  C    0.087386
    26  C   -0.174158
    27  C   -0.133978
    28  C   -0.126947
    29  C   -0.134606
    30  C   -0.173260
    31  C   -0.239587
    32  C    0.042876
    33  C    0.053721
    34  C   -0.149758
    35  C   -0.135337
    36  C   -0.126732
    37  C   -0.135469
    38  C   -0.169503
    39  C   -0.255746
    40  C    0.064996
    41  C    0.062327
    42  C   -0.234209
    43  C    0.054690
    44  C    0.047393
    45  C   -0.186866
    46  C   -0.179236
    47  C    0.100365
    48  C    0.089889
    49  C   -0.172003
    50  C   -0.134029
    51  C   -0.126844
    52  C   -0.133790
    53  C   -0.174172
    54  C   -0.240806
    55  C    0.040101
    56  C    0.056927
    57  C   -0.169658
    58  C   -0.134582
    59  C   -0.126361
    60  C   -0.134682
    61  C   -0.147911
    62  C   -0.190455
    63  C   -0.182341
    64  C    0.318066
    65  C   -0.210962
    66  C   -0.173946
    67  C   -0.134177
    68  H    0.132681
    69  H    0.132980
    70  H    0.131985
    71  H    0.141805
    72  H    0.131744
    73  H    0.132851
    74  H    0.132647
    75  H    0.134303
    76  H    0.136929
    77  H    0.153996
    78  H    0.144110
    79  H    0.139755
    80  H    0.135388
    81  H    0.131655
    82  H    0.131911
    83  H    0.129431
    84  H    0.128509
    85  H    0.129854
    86  H    0.134942
    87  H    0.136515
    88  H    0.141828
    89  H    0.129670
    90  H    0.127020
    91  H    0.128087
    92  H    0.132938
    93  H    0.138486
    94  H    0.142309
    95  H    0.134745
    96  H    0.131665
    97  H    0.130970
    98  H    0.129865
    99  H    0.128838
   100  H    0.129515
   101  H    0.131240
   102  H    0.139809
   103  H    0.129657
   104  H    0.129325
   105  H    0.128309
   106  H    0.129174
   107  H    0.137368
   108  H    0.130165
   109  H    0.140488
   110  H    0.154354
   111  H    0.134668
   112  H    0.134014
 Sum of Mulliken charges =  -0.00000

 Dipole moment (field-independent basis, Debye):
    X=             -0.7110    Y=              2.4513    Z=             -0.5483  Tot=              2.6105
 Quadrupole moment (field-independent basis, Debye-Ang):
   XX=           -361.7831   YY=           -343.3080   ZZ=           -361.7433
   XY=             -4.9545   XZ=              1.7981   YZ=             -9.5822

 Normal termination of Gaussian 16 at Sat Nov  5 11:00:19 2022.
