 Gaussian 16, Revision B.01,
 Gaussian 16:  ES64L-G16RevB.01 20-Dec-2017

 -----------------------------
 #p b3lyp/6-31g(d) opt SCF=XQC
 -----------------------------

 ------------------------------
 Gaussian input prepared by ASE
 ------------------------------
 Symbolic Z-matrix:
 Charge =  0 Multiplicity = 1

 SCF Done:  E(RB3LYP) =  -2112.95144503     A.U. after   15 cycles
 SCF Done:  E(RB3LYP) =  -2112.96379909     A.U. after   13 cycles
 SCF Done:  E(RB3LYP) =  -2112.96826364     A.U. after   13 cycles
 SCF Done:  E(RB3LYP) =  -2112.96973840     A.U. after   12 cycles
 SCF Done:  E(RB3LYP) =  -2112.97023450     A.U. after   12 cycles
 SCF Done:  E(RB3LYP) =  -2112.97046140     A.U. after   11 cycles
 SCF Done:  E(RB3LYP) =  -2112.97063072     A.U. after   11 cycles
 SCF Done:  E(RB3LYP) =  -2112.97074714     A.U. after   10 cycles
 SCF Done:  E(RB3LYP) =  -2112.97078681     A.U. after   10 cycles
 SCF Done:  E(RB3LYP) =  -2112.97081286     A.U. after   10 cycles
 SCF Done:  E(RB3LYP) =  -2112.97083348     A.U. after   10 cycles
 SCF Done:  E(RB3LYP) =  -2112.97084062     A.U. after   10 cycles
 SCF Done:  E(RB3LYP) =  -2112.97084364     A.U. after    8 cycles
 SCF Done:  E(RB3LYP) =  -2112.97084475     A.U. after    8 cycles
 SCF Done:  E(RB3LYP) =  -2112.97084521     A.U. after    7 cycles
 SCF Done:  E(RB3LYP) =  -2112.97084543     A.U. after    7 cycles
 SCF Done:  E(RB3LYP) =  -2112.97084549     A.U. after    7 cycles
 SCF Done:  E(RB3LYP) =  -2112.97084551     A.U. after    6 cycles
 Optimization completed.
    -- Stationary point found.

                         Standard orientation:
 ---------------------------------------------------------------------
 Center     Atomic      Atomic             Coordinates (Angstroms)
 Number     Number       Type             X           Y           Z
 ---------------------------------------------------------------------
      1          6           0        4.787169    0.401431   -3.234407
      2          6           0        4.992442   -0.556490   -2.305819
      3          6           0        6.119956   -1.479290   -2.477525
      4          6           0        6.725982   -2.380083   -1.663677
      5          6           0        6.704240   -2.614254   -0.229972
      6          6           0        6.340624   -1.776365    0.762627
      7          7           0        5.643599   -0.566819    0.566798
      8          6           0        6.034415    0.577976    1.291252
      9          6           0        7.328077    0.646818    1.842319
     10          6           0        7.734235    1.773762    2.554093
     11          6           0        6.878786    2.863756    2.717421
     12          6           0        5.605687    2.810244    2.146952
     13          6           0        5.180530    1.686228    1.442626
     14          6           0        4.280467   -0.733698    0.131789
     15          6           0        3.267967   -0.911188    1.080953
     16          6           0        1.944852   -1.099015    0.690848
     17          6           0        1.607058   -1.127570   -0.667919
     18          6           0        0.184816   -1.401322   -1.172913
     19          6           0       -0.014840   -2.910691   -1.478590
     20          6           0       -0.288927   -3.710766   -0.232372
     21          6           0       -0.970999   -3.146577    0.776139
     22          6           0       -1.423106   -1.759799    0.671638
     23          6           0       -0.926129   -0.893024   -0.247886
     24          6           0       -1.373119    0.511670   -0.355180
     25          6           0       -0.432966    1.542005   -0.565242
     26          6           0       -0.790003    2.882384   -0.618921
     27          6           0       -2.132652    3.273632   -0.483702
     28          6           0       -2.527124    4.695642   -0.530789
     29          6           0       -1.897022    5.620585   -1.310017
     30          6           0       -2.457945    6.954663   -1.406483
     31          6           0       -3.444976    7.354423   -0.584609
     32          6           0       -3.902960    6.453959    0.538422
     33          7           0       -3.674033    5.049992    0.174102
     34          6           0       -3.091367    2.262569   -0.321473
     35          6           0       -2.726187    0.919778   -0.276760
     36          8           0       -3.773757    0.023961   -0.135232
     37          6           0       -3.866114   -1.031744   -1.025890
     38          6           0       -3.720605   -0.800523   -2.394675
     39          6           0       -3.840031   -1.855779   -3.295667
     40          6           0       -4.107356   -3.137245   -2.816800
     41          6           0       -4.260407   -3.348461   -1.445483
     42          6           0       -4.143973   -2.310193   -0.508740
     43          6           0       -4.409634   -2.545175    0.986373
     44          6           0       -4.290153   -4.048651    1.359449
     45          6           0       -5.881349   -2.092014    1.261392
     46          6           0       -6.243670   -2.088887    2.725964
     47          6           0       -5.302783   -1.781910    3.633935
     48          6           0       -3.941080   -1.481622    3.213681
     49          6           0       -3.510021   -1.754116    1.964162
     50          8           0       -2.252285   -1.275994    1.657869
     51          6           0        2.631593   -0.950792   -1.604481
     52          6           0        3.971109   -0.750412   -1.233950
     53          1           0        5.461885    0.526094   -4.077445
     54          1           0        3.956944    1.096664   -3.162386
     55          1           0        6.518412   -1.450448   -3.491899
     56          1           0        7.465012   -3.004660   -2.166305
     57          1           0        7.179590   -3.539039    0.091241
     58          1           0        6.582722   -2.025277    1.797624
     59          1           0        8.023908   -0.170801    1.686204
     60          1           0        8.737768    1.800422    2.971346
     61          1           0        7.201333    3.742505    3.268160
     62          1           0        4.927071    3.653250    2.250257
     63          1           0        4.187541    1.667987    1.008928
     64          1           0        3.527333   -0.885815    2.135559
     65          1           0        1.173601   -1.219398    1.444124
     66          1           0        0.083193   -0.873990   -2.128068
     67          1           0        0.865488   -3.294324   -2.005532
     68          1           0       -0.870888   -3.024421   -2.163191
     69          1           0        0.045489   -4.743367   -0.173599
     70          1           0       -1.202890   -3.681630    1.692344
     71          1           0        0.617015    1.278672   -0.637533
     72          1           0       -0.019502    3.639117   -0.726660
     73          1           0       -1.077951    5.321918   -1.952182
     74          1           0       -2.089229    7.618804   -2.184976
     75          1           0       -3.886154    8.344215   -0.657813
     76          1           0       -4.974670    6.583664    0.736250
     77          1           0       -3.377470    6.718663    1.480771
     78          1           0       -3.925283    4.398401    0.906527
     79          1           0       -4.150074    2.497483   -0.281284
     80          1           0       -3.513222    0.207901   -2.738338
     81          1           0       -3.732593   -1.672750   -4.361338
     82          1           0       -4.204891   -3.973258   -3.503655
     83          1           0       -4.465953   -4.355249   -1.102198
     84          1           0       -5.071077   -4.639722    0.869063
     85          1           0       -4.416959   -4.171134    2.436981
     86          1           0       -3.319450   -4.458497    1.069549
     87          1           0       -6.027072   -1.079150    0.855050
     88          1           0       -6.543589   -2.752754    0.689520
     89          1           0       -7.275118   -2.275133    3.014073
     90          1           0       -5.541153   -1.720085    4.693225
     91          1           0       -3.256491   -0.996357    3.902931
     92          1           0        2.393708   -0.977649   -2.665286
 ---------------------------------------------------------------------

 The electronic state is 1-A.
 Alpha  occ. eigenvalues --  -19.18304 -19.18281 -14.36121 -14.34265 -10.25079
 Alpha  occ. eigenvalues --  -10.24917 -10.24892 -10.24525 -10.22719 -10.22484
 Alpha  occ. eigenvalues --  -10.22317 -10.22127 -10.21891 -10.21852 -10.20738
 Alpha  occ. eigenvalues --  -10.20362 -10.20337 -10.20280 -10.20211 -10.20008
 Alpha  occ. eigenvalues --  -10.19941 -10.19863 -10.19684 -10.19490 -10.19392
 Alpha  occ. eigenvalues --  -10.19323 -10.19256 -10.19252 -10.19179 -10.19171
 Alpha  occ. eigenvalues --  -10.19130 -10.19073 -10.18994 -10.18977 -10.18976
 Alpha  occ. eigenvalues --  -10.18904 -10.18885 -10.18762 -10.18630 -10.18258
 Alpha  occ. eigenvalues --  -10.18213 -10.18035 -10.17870 -10.17855 -10.17853
 Alpha  occ. eigenvalues --  -10.17774 -10.17587 -10.17569 -10.17483 -10.17469
 Alpha  occ. eigenvalues --  -10.16795 -10.16426  -1.07913  -1.06709  -0.96135
 Alpha  occ. eigenvalues --   -0.93433  -0.87431  -0.86592  -0.85498  -0.84838
 Alpha  occ. eigenvalues --   -0.83773  -0.83327  -0.81672  -0.79109  -0.78840
 Alpha  occ. eigenvalues --   -0.78361  -0.78108  -0.77083  -0.76366  -0.75673
 Alpha  occ. eigenvalues --   -0.74601  -0.74206  -0.73559  -0.73414  -0.72690
 Alpha  occ. eigenvalues --   -0.72280  -0.71938  -0.70939  -0.69832  -0.68044
 Alpha  occ. eigenvalues --   -0.65012  -0.64460  -0.64163  -0.63467  -0.62712
 Alpha  occ. eigenvalues --   -0.62016  -0.61693  -0.61128  -0.60151  -0.59669
 Alpha  occ. eigenvalues --   -0.59376  -0.58824  -0.58071  -0.57593  -0.56669
 Alpha  occ. eigenvalues --   -0.55747  -0.55035  -0.53538  -0.53146  -0.51774
 Alpha  occ. eigenvalues --   -0.51434  -0.51042  -0.50347  -0.49844  -0.49413
 Alpha  occ. eigenvalues --   -0.48915  -0.47919  -0.47852  -0.47233  -0.47092
 Alpha  occ. eigenvalues --   -0.47059  -0.46694  -0.46546  -0.46373  -0.45246
 Alpha  occ. eigenvalues --   -0.44988  -0.44762  -0.44451  -0.44011  -0.43765
 Alpha  occ. eigenvalues --   -0.43671  -0.43638  -0.43354  -0.43213  -0.43086
 Alpha  occ. eigenvalues --   -0.42484  -0.42213  -0.42156  -0.41443  -0.41170
 Alpha  occ. eigenvalues --   -0.40935  -0.40770  -0.40409  -0.40017  -0.39550
 Alpha  occ. eigenvalues --   -0.39211  -0.38331  -0.37873  -0.37455  -0.37292
 Alpha  occ. eigenvalues --   -0.37205  -0.37063  -0.36755  -0.36641  -0.36474
 Alpha  occ. eigenvalues --   -0.35975  -0.35658  -0.35610  -0.35238  -0.35099
 Alpha  occ. eigenvalues --   -0.35057  -0.34727  -0.33954  -0.33751  -0.33555
 Alpha  occ. eigenvalues --   -0.33309  -0.33116  -0.32684  -0.32299  -0.32181
 Alpha  occ. eigenvalues --   -0.32042  -0.30985  -0.30114  -0.29391  -0.28128
 Alpha  occ. eigenvalues --   -0.27840  -0.27631  -0.25967  -0.25053  -0.24876
 Alpha  occ. eigenvalues --   -0.24558  -0.24499  -0.24107  -0.22189  -0.21273
 Alpha  occ. eigenvalues --   -0.20743  -0.18882  -0.18616  -0.16885
 Alpha virt. eigenvalues --   -0.05419  -0.04403  -0.02118  -0.01565  -0.01303
 Alpha virt. eigenvalues --   -0.00964  -0.00615  -0.00006   0.00937   0.01037
 Alpha virt. eigenvalues --    0.02221   0.02903   0.04236   0.07626   0.08862

 Mulliken charges:
               1
     1  C   -0.406803
     2  C    0.170446
     3  C   -0.167423
     4  C   -0.136234
     5  C   -0.133853
     6  C    0.014646
     7  N   -0.600829
     8  C    0.347248
     9  C   -0.191631
    10  C   -0.137189
    11  C   -0.132049
    12  C   -0.138126
    13  C   -0.186164
    14  C    0.191912
    15  C   -0.140537
    16  C   -0.188881
    17  C    0.180383
    18  C   -0.261009
    19  C   -0.307170
    20  C   -0.124789
    21  C   -0.132573
    22  C    0.300492
    23  C   -0.008419
    24  C    0.118837
    25  C   -0.205870
    26  C   -0.177698
    27  C    0.088251
    28  C    0.288522
    29  C   -0.221363
    30  C   -0.089598
    31  C   -0.156906
    32  C   -0.139997
    33  N   -0.638430
    34  C   -0.260362
    35  C    0.316165
    36  O   -0.592151
    37  C    0.294188
    38  C   -0.165085
    39  C   -0.143160
    40  C   -0.131569
    41  C   -0.206838
    42  C    0.125730
    43  C   -0.061384
    44  C   -0.470733
    45  C   -0.299725
    46  C   -0.143817
    47  C   -0.105627
    48  C   -0.224178
    49  C    0.386205
    50  O   -0.561801
    51  C   -0.261367
    52  C    0.075826
    53  H    0.143643
    54  H    0.148107
    55  H    0.127134
    56  H    0.128949
    57  H    0.129488
    58  H    0.141407
    59  H    0.136853
    60  H    0.126019
    61  H    0.122160
    62  H    0.127256
    63  H    0.140898
    64  H    0.143486
    65  H    0.147563
    66  H    0.147032
    67  H    0.151128
    68  H    0.172750
    69  H    0.139065
    70  H    0.146080
    71  H    0.148172
    72  H    0.137157
    73  H    0.124094
    74  H    0.122407
    75  H    0.126972
    76  H    0.144743
    77  H    0.131173
    78  H    0.318700
    79  H    0.149099
    80  H    0.148681
    81  H    0.133358
    82  H    0.127740
    83  H    0.131222
    84  H    0.144154
    85  H    0.169113
    86  H    0.153961
    87  H    0.169879
    88  H    0.141266
    89  H    0.124892
    90  H    0.122364
    91  H    0.131752
    92  H    0.132569
 Sum of Mulliken charges =  -0.00000

 Dipole moment (field-independent basis, Debye):
    X=             -0.5196    Y=             -2.5615    Z=             -0.5775  Tot=              2.6767
 Quadrupole moment (field-independent basis, Debye-Ang):
   XX=           -294.5862   YY=           -283.1442   ZZ=           -288.4903
   XY=             -4.5682   XZ=             -2.5025   YZ=              6.6913

 Normal termination of Gaussian 16 at Sat Nov  5 01:37:56 2022.
