 Gaussian 16, Revision B.01,
 Gaussian 16:  ES64L-G16RevB.01 20-Dec-2017

 -------------------------------------------------------------------
 #p b3lyp/6-31g(d) 6D 10F nosymm GFInput td=(50-50,nstate=2) SCF=XQC
 -------------------------------------------------------------------

 ------------------------------
 Gaussian input prepared by ASE
 ------------------------------
 Symbolic Z-matrix:
 Charge =  0 Multiplicity = 1

                          Input orientation:
 ---------------------------------------------------------------------
 Center     Atomic      Atomic             Coordinates (Angstroms)
 Number     Number       Type             X           Y           Z
 ---------------------------------------------------------------------
      1          6           0        3.804476    3.432666   -2.712549
      2          6           0        4.222755    2.157046   -2.853483
      3          6           0        5.243778    1.853893   -3.862414
      4          6           0        6.020062    0.769796   -4.113732
      5          6           0        6.368690   -0.416236   -3.350445
      6          6           0        6.297518   -0.621498   -2.019157
      7          7           0        5.602498    0.214481   -1.121782
      8          6           0        6.196376    0.542061    0.114392
      9          6           0        7.590421    0.424174    0.271604
     10          6           0        8.195360    0.751426    1.483439
     11          6           0        7.438625    1.221973    2.556982
     12          6           0        6.059708    1.367736    2.394443
     13          6           0        5.438457    1.033789    1.193289
     14          6           0        4.169464    0.170799   -1.262186
     15          6           0        3.436700   -0.806201   -0.579472
     16          6           0        2.053528   -0.889052   -0.713883
     17          6           0        1.371361    0.001866   -1.551785
     18          6           0       -0.139562   -0.074719   -1.804725
     19          6           0       -0.448078   -0.914453   -3.074040
     20          6           0       -0.405444   -2.394695   -2.799511
     21          6           0       -0.786226   -2.853099   -1.597222
     22          6           0       -1.216821   -1.918909   -0.557822
     23          6           0       -0.957322   -0.587269   -0.614429
     24          6           0       -1.383285    0.361959    0.435331
     25          6           0       -0.506640    1.376337    0.873667
     26          6           0       -0.833310    2.259628    1.893497
     27          6           0       -2.084093    2.190628    2.529773
     28          6           0       -2.443217    3.117898    3.621165
     29          6           0       -2.017175    4.412343    3.672580
     30          6           0       -2.551913    5.285840    4.699597
     31          6           0       -3.279687    4.795317    5.719032
     32          6           0       -3.449109    3.302467    5.875479
     33          7           0       -3.356943    2.651837    4.562297
     34          6           0       -2.990706    1.220172    2.078141
     35          6           0       -2.658583    0.343087    1.049132
     36          8           0       -3.653606   -0.550228    0.686037
     37          6           0       -4.000887   -0.645988   -0.650578
     38          6           0       -4.213180    0.513594   -1.397912
     39          6           0       -4.589272    0.420725   -2.735650
     40          6           0       -4.752361   -0.836660   -3.314715
     41          6           0       -4.546206   -1.985831   -2.549566
     42          6           0       -4.164049   -1.930525   -1.200513
     43          6           0       -4.034718   -3.204099   -0.350552
     44          6           0       -3.857554   -4.467941   -1.236676
     45          6           0       -5.371978   -3.353791    0.447112
     46          6           0       -5.338240   -4.461339    1.471052
     47          6           0       -4.185517   -4.735094    2.103667
     48          6           0       -2.974496   -3.990703    1.786917
     49          6           0       -2.892039   -3.207022    0.691286
     50          8           0       -1.747283   -2.441895    0.599481
     51          6           0        2.119016    0.971518   -2.229174
     52          6           0        3.513189    1.079750   -2.101435
     53          1           0        4.237839    4.238351   -3.299546
     54          1           0        3.038800    3.705400   -1.993406
     55          1           0        5.363475    2.668097   -4.577467
     56          1           0        6.586745    0.836211   -5.042901
     57          1           0        6.889406   -1.188014   -3.913984
     58          1           0        6.796031   -1.486198   -1.576927
     59          1           0        8.201510    0.104778   -0.566018
     60          1           0        9.273451    0.649160    1.579092
     61          1           0        7.914849    1.481238    3.498014
     62          1           0        5.452013    1.745080    3.213083
     63          1           0        4.366435    1.155365    1.091095
     64          1           0        3.963527   -1.496010    0.073770
     65          1           0        1.503635   -1.644834   -0.163288
     66          1           0       -0.475023    0.946471   -2.017716
     67          1           0        0.254303   -0.642436   -3.869330
     68          1           0       -1.455898   -0.654224   -3.435996
     69          1           0       -0.091950   -3.077100   -3.585385
     70          1           0       -0.782935   -3.910720   -1.350415
     71          1           0        0.481268    1.435298    0.429154
     72          1           0       -0.100085    2.985569    2.230122
     73          1           0       -1.402028    4.813347    2.876812
     74          1           0       -2.384080    6.356815    4.610549
     75          1           0       -3.700986    5.440131    6.484805
     76          1           0       -4.428309    3.059503    6.307519
     77          1           0       -2.689196    2.902035    6.580046
     78          1           0       -3.423193    1.643036    4.607829
     79          1           0       -3.996110    1.163331    2.482607
     80          1           0       -4.079039    1.478860   -0.920103
     81          1           0       -4.760125    1.324527   -3.314138
     82          1           0       -5.046082   -0.929986   -4.356452
     83          1           0       -4.678635   -2.949393   -3.026773
     84          1           0       -4.753416   -4.656483   -1.837983
     85          1           0       -3.700847   -5.342616   -0.602213
     86          1           0       -3.006567   -4.366921   -1.914831
     87          1           0       -5.594831   -2.403244    0.956071
     88          1           0       -6.176305   -3.510363   -0.281394
     89          1           0       -6.262480   -4.975696    1.721648
     90          1           0       -4.136844   -5.491610    2.883443
     91          1           0       -2.122061   -4.032861    2.458324
     92          1           0        1.611258    1.668547   -2.891707
 ---------------------------------------------------------------------

 SCF Done:  E(RB3LYP) =  -2112.97084843     A.U. after   15 cycles

 Excitation energies and oscillator strengths:

 Excited state symmetry could not be determined.
 Excited State   1:      Triplet-?Sym    1.7667 eV  701.77 nm  f=0.0000  <S**2>=2.000
     176 ->180         0.11095
     179 ->180         0.55016
     179 ->182         0.36886
     179 ->191         0.12057
 This state for optimization and/or second-order correction.
 Total Energy, E(TD-HF/TD-DFT) =  -2112.90592198
 Copying the excited state density for this state as the 1-particle RhoCI density.

 Excited state symmetry could not be determined.
 Excited State   2:      Triplet-?Sym    2.0454 eV  606.16 nm  f=0.0000  <S**2>=2.000
     175 ->181        -0.39211
     177 ->181         0.56340

 Excited state symmetry could not be determined.
 Excited State   3:      Singlet-?Sym    2.7496 eV  450.92 nm  f=0.2552  <S**2>=0.000
     179 ->180         0.70056

 Excited state symmetry could not be determined.
 Excited State   4:      Singlet-?Sym    3.0135 eV  411.43 nm  f=0.0197  <S**2>=0.000
     178 ->180         0.69640

 Alpha  occ. eigenvalues --  -19.18304 -19.18281 -14.36121 -14.34265 -10.25078
 Alpha  occ. eigenvalues --  -10.24918 -10.24892 -10.24526 -10.22719 -10.22484
 Alpha  occ. eigenvalues --  -10.22317 -10.22127 -10.21891 -10.21852 -10.20737
 Alpha  occ. eigenvalues --  -10.20362 -10.20337 -10.20280 -10.20211 -10.20008
 Alpha  occ. eigenvalues --  -10.19941 -10.19863 -10.19684 -10.19490 -10.19392
 Alpha  occ. eigenvalues --  -10.19323 -10.19256 -10.19252 -10.19179 -10.19171
 Alpha  occ. eigenvalues --  -10.19129 -10.19073 -10.18994 -10.18977 -10.18975
 Alpha  occ. eigenvalues --  -10.18904 -10.18885 -10.18762 -10.18630 -10.18258
 Alpha  occ. eigenvalues --  -10.18213 -10.18035 -10.17870 -10.17855 -10.17853
 Alpha  occ. eigenvalues --  -10.17774 -10.17587 -10.17569 -10.17483 -10.17469
 Alpha  occ. eigenvalues --  -10.16795 -10.16426  -1.07913  -1.06709  -0.96135
 Alpha  occ. eigenvalues --   -0.93433  -0.87431  -0.86592  -0.85498  -0.84838
 Alpha  occ. eigenvalues --   -0.83773  -0.83327  -0.81672  -0.79109  -0.78840
 Alpha  occ. eigenvalues --   -0.78362  -0.78109  -0.77083  -0.76366  -0.75673
 Alpha  occ. eigenvalues --   -0.74601  -0.74206  -0.73559  -0.73414  -0.72690
 Alpha  occ. eigenvalues --   -0.72280  -0.71938  -0.70939  -0.69832  -0.68044
 Alpha  occ. eigenvalues --   -0.65012  -0.64460  -0.64163  -0.63467  -0.62712
 Alpha  occ. eigenvalues --   -0.62016  -0.61693  -0.61128  -0.60151  -0.59669
 Alpha  occ. eigenvalues --   -0.59376  -0.58824  -0.58071  -0.57593  -0.56669
 Alpha  occ. eigenvalues --   -0.55747  -0.55035  -0.53538  -0.53146  -0.51774
 Alpha  occ. eigenvalues --   -0.51434  -0.51042  -0.50347  -0.49844  -0.49413
 Alpha  occ. eigenvalues --   -0.48915  -0.47919  -0.47852  -0.47233  -0.47092
 Alpha  occ. eigenvalues --   -0.47059  -0.46694  -0.46546  -0.46373  -0.45246
 Alpha  occ. eigenvalues --   -0.44988  -0.44762  -0.44451  -0.44011  -0.43765
 Alpha  occ. eigenvalues --   -0.43671  -0.43638  -0.43354  -0.43213  -0.43086
 Alpha  occ. eigenvalues --   -0.42484  -0.42213  -0.42156  -0.41443  -0.41170
 Alpha  occ. eigenvalues --   -0.40935  -0.40770  -0.40409  -0.40017  -0.39550
 Alpha  occ. eigenvalues --   -0.39211  -0.38331  -0.37873  -0.37455  -0.37292
 Alpha  occ. eigenvalues --   -0.37205  -0.37063  -0.36755  -0.36641  -0.36474
 Alpha  occ. eigenvalues --   -0.35975  -0.35658  -0.35610  -0.35238  -0.35099
 Alpha  occ. eigenvalues --   -0.35057  -0.34727  -0.33954  -0.33751  -0.33555
 Alpha  occ. eigenvalues --   -0.33309  -0.33116  -0.32684  -0.32299  -0.32181
 Alpha  occ. eigenvalues --   -0.32043  -0.30985  -0.30114  -0.29391  -0.28128
 Alpha  occ. eigenvalues --   -0.27840  -0.27631  -0.25967  -0.25053  -0.24876
 Alpha  occ. eigenvalues --   -0.24558  -0.24499  -0.24107  -0.22189  -0.21273
 Alpha  occ. eigenvalues --   -0.20743  -0.18882  -0.18616  -0.16885
 Alpha virt. eigenvalues --   -0.05419  -0.04403  -0.02118  -0.01565  -0.01303
 Alpha virt. eigenvalues --   -0.00964  -0.00615  -0.00006   0.00937   0.01037
 Alpha virt. eigenvalues --    0.02221   0.02903   0.04236   0.07626   0.08862

 Mulliken charges:
               1
     1  C   -0.406804
     2  C    0.170419
     3  C   -0.167420
     4  C   -0.136243
     5  C   -0.133859
     6  C    0.014667
     7  N   -0.600826
     8  C    0.347239
     9  C   -0.191634
    10  C   -0.137188
    11  C   -0.132050
    12  C   -0.138127
    13  C   -0.186155
    14  C    0.191910
    15  C   -0.140545
    16  C   -0.188895
    17  C    0.180390
    18  C   -0.260973
    19  C   -0.307164
    20  C   -0.124801
    21  C   -0.132542
    22  C    0.300467
    23  C   -0.008491
    24  C    0.118836
    25  C   -0.205870
    26  C   -0.177694
    27  C    0.088257
    28  C    0.288517
    29  C   -0.221360
    30  C   -0.089606
    31  C   -0.156904
    32  C   -0.139993
    33  N   -0.638430
    34  C   -0.260378
    35  C    0.316209
    36  O   -0.592154
    37  C    0.294155
    38  C   -0.165046
    39  C   -0.143176
    40  C   -0.131568
    41  C   -0.206842
    42  C    0.125765
    43  C   -0.061375
    44  C   -0.470757
    45  C   -0.299738
    46  C   -0.143798
    47  C   -0.105653
    48  C   -0.224166
    49  C    0.386184
    50  O   -0.561776
    51  C   -0.261360
    52  C    0.075838
    53  H    0.143644
    54  H    0.148109
    55  H    0.127136
    56  H    0.128951
    57  H    0.129488
    58  H    0.141407
    59  H    0.136855
    60  H    0.126019
    61  H    0.122160
    62  H    0.127256
    63  H    0.140900
    64  H    0.143488
    65  H    0.147565
    66  H    0.147029
    67  H    0.151127
    68  H    0.172750
    69  H    0.139065
    70  H    0.146081
    71  H    0.148171
    72  H    0.137155
    73  H    0.124096
    74  H    0.122409
    75  H    0.126972
    76  H    0.144743
    77  H    0.131173
    78  H    0.318700
    79  H    0.149102
    80  H    0.148680
    81  H    0.133358
    82  H    0.127741
    83  H    0.131222
    84  H    0.144158
    85  H    0.169118
    86  H    0.153963
    87  H    0.169875
    88  H    0.141266
    89  H    0.124892
    90  H    0.122366
    91  H    0.131751
    92  H    0.132570
 Sum of Mulliken charges =  -0.00000

 Dipole moment (field-independent basis, Debye):
    X=             -0.7135    Y=             -1.4151    Z=             -2.1571  Tot=              2.6767
 Quadrupole moment (field-independent basis, Debye-Ang):
   XX=           -295.5844   YY=           -293.1755   ZZ=           -277.6051
   XY=             -1.3139   XZ=             -2.0983   YZ=              1.6347

 Normal termination of Gaussian 16 at Sat Nov  5 10:53:27 2022.
