 Gaussian 16, Revision B.01,
 Gaussian 16:  ES64L-G16RevB.01 20-Dec-2017

 -----------------------------
 #p b3lyp/6-31g(d) opt SCF=XQC
 -----------------------------

 ------------------------------
 Gaussian input prepared by ASE
 ------------------------------
 Symbolic Z-matrix:
 Charge =  0 Multiplicity = 1

 SCF Done:  E(RB3LYP) =  -1328.79126921     A.U. after   15 cycles
 SCF Done:  E(RB3LYP) =  -1328.79827395     A.U. after   13 cycles
 SCF Done:  E(RB3LYP) =  -1328.79872300     A.U. after   11 cycles
 SCF Done:  E(RB3LYP) =  -1328.79883835     A.U. after   12 cycles
 SCF Done:  E(RB3LYP) =  -1328.79884960     A.U. after   10 cycles
 SCF Done:  E(RB3LYP) =  -1328.79885101     A.U. after    8 cycles
 SCF Done:  E(RB3LYP) =  -1328.79885131     A.U. after    8 cycles
 SCF Done:  E(RB3LYP) =  -1328.79885158     A.U. after    7 cycles
 Optimization completed.
    -- Stationary point found.

                         Standard orientation:
 ---------------------------------------------------------------------
 Center     Atomic      Atomic             Coordinates (Angstroms)
 Number     Number       Type             X           Y           Z
 ---------------------------------------------------------------------
      1          6           0        4.750077   -2.404372   -1.692110
      2          6           0        4.534395   -1.194776   -0.810593
      3          6           0        3.311142   -0.520871   -0.855387
      4          6           0        3.081996    0.604007   -0.052847
      5          6           0        1.778576    1.326954   -0.084544
      6          6           0        1.675877    2.737012   -0.131562
      7          6           0        2.895317    3.628701   -0.187996
      8          6           0        0.403047    3.336588   -0.147837
      9          6           0       -0.781104    2.607039   -0.110158
     10          6           0       -0.710724    1.210693   -0.061173
     11          6           0        0.569946    0.623149   -0.056207
     12          8           0        0.487111   -0.750514    0.004227
     13          6           0       -0.851810   -1.059038    0.037364
     14          6           0       -1.336523   -2.359015    0.100437
     15          6           0       -2.719961   -2.521215    0.127233
     16          6           0       -3.556691   -1.396140    0.090624
     17          6           0       -3.049288   -0.081609    0.027449
     18          6           0       -1.658249    0.100963   -0.001088
     19          6           0       -4.194455    0.934898    0.001406
     20          6           0       -4.165749    1.861975    1.238851
     21          6           0       -4.201438    1.757472   -1.307972
     22          6           0       -5.414546    0.015906    0.056672
     23          6           0       -6.762151    0.357675    0.060933
     24          6           0       -7.723557   -0.658663    0.117199
     25          6           0       -7.333904   -2.000864    0.168596
     26          6           0       -5.981133   -2.349057    0.164649
     27          6           0       -5.023449   -1.334352    0.108457
     28          7           0        4.028598    1.075396    0.777886
     29          6           0        5.194728    0.428127    0.818169
     30          6           0        5.524098   -0.706627    0.065526
     31          6           0        6.897963   -1.349733    0.215206
     32          6           0        8.027135   -0.390356   -0.210885
     33          6           0        7.128209   -1.876523    1.645741
     34          1           0        4.961014   -3.304390   -1.101986
     35          1           0        5.594600   -2.264172   -2.377554
     36          1           0        3.860861   -2.605242   -2.296601
     37          1           0        2.528261   -0.874954   -1.517566
     38          1           0        3.618600    3.279677   -0.932731
     39          1           0        3.422138    3.642905    0.770423
     40          1           0        2.605777    4.652493   -0.445710
     41          1           0        0.347750    4.420980   -0.195284
     42          1           0       -1.732263    3.126370   -0.121918
     43          1           0       -0.655272   -3.202765    0.129191
     44          1           0       -3.145096   -3.519727    0.177204
     45          1           0       -3.257112    2.470646    1.265675
     46          1           0       -4.206327    1.276156    2.162623
     47          1           0       -5.027102    2.539829    1.227799
     48          1           0       -3.294437    2.360758   -1.409685
     49          1           0       -5.062683    2.435225   -1.328377
     50          1           0       -4.267473    1.098150   -2.179320
     51          1           0       -7.074675    1.398735    0.021418
     52          1           0       -8.779652   -0.402403    0.121045
     53          1           0       -8.090098   -2.780330    0.212103
     54          1           0       -5.685345   -3.394464    0.204948
     55          1           0        5.927993    0.844643    1.508275
     56          1           0        6.942003   -2.214548   -0.455715
     57          1           0        8.067296    0.493475    0.436116
     58          1           0        9.000438   -0.891687   -0.150435
     59          1           0        7.886367   -0.042706   -1.240334
     60          1           0        6.346421   -2.585915    1.938634
     61          1           0        8.096071   -2.387079    1.715808
     62          1           0        7.128217   -1.061003    2.378028
 ---------------------------------------------------------------------

 The electronic state is 1-A.
 Alpha  occ. eigenvalues --  -19.20479 -14.32023 -10.24482 -10.24377 -10.22400
 Alpha  occ. eigenvalues --  -10.21269 -10.20872 -10.20745 -10.19975 -10.19911
 Alpha  occ. eigenvalues --  -10.19889 -10.19691 -10.19645 -10.19525 -10.19498
 Alpha  occ. eigenvalues --  -10.19267 -10.19238 -10.19211 -10.19106 -10.18906
 Alpha  occ. eigenvalues --  -10.18781 -10.18758 -10.18597 -10.18584 -10.18536
 Alpha  occ. eigenvalues --  -10.18490 -10.18424 -10.18233 -10.17982 -10.17925
 Alpha  occ. eigenvalues --  -10.17834 -10.17790 -10.17028  -1.10174  -0.93587
 Alpha  occ. eigenvalues --   -0.88590  -0.85766  -0.84310  -0.82940  -0.80977
 Alpha  occ. eigenvalues --   -0.79834  -0.79016  -0.76852  -0.76173  -0.73961
 Alpha  occ. eigenvalues --   -0.73021  -0.72443  -0.70869  -0.70742  -0.68652
 Alpha  occ. eigenvalues --   -0.68636  -0.68225  -0.64156  -0.63946  -0.62622
 Alpha  occ. eigenvalues --   -0.61708  -0.59667  -0.59192  -0.57529  -0.57251
 Alpha  occ. eigenvalues --   -0.56146  -0.54216  -0.51810  -0.50722  -0.50467
 Alpha  occ. eigenvalues --   -0.49275  -0.48693  -0.47433  -0.46086  -0.45998
 Alpha  occ. eigenvalues --   -0.45471  -0.44742  -0.44259  -0.44139  -0.43464
 Alpha  occ. eigenvalues --   -0.43436  -0.43169  -0.42791  -0.42555  -0.42430
 Alpha  occ. eigenvalues --   -0.41300  -0.40971  -0.40822  -0.40386  -0.40039
 Alpha  occ. eigenvalues --   -0.39134  -0.39057  -0.38599  -0.38381  -0.37865
 Alpha  occ. eigenvalues --   -0.37779  -0.37606  -0.36985  -0.36856  -0.35932
 Alpha  occ. eigenvalues --   -0.35646  -0.34682  -0.34361  -0.34281  -0.34216
 Alpha  occ. eigenvalues --   -0.33897  -0.33832  -0.33571  -0.32625  -0.31644
 Alpha  occ. eigenvalues --   -0.31164  -0.28519  -0.26674  -0.26601  -0.25723
 Alpha  occ. eigenvalues --   -0.24507  -0.24134  -0.22549  -0.21386  -0.20015
 Alpha virt. eigenvalues --   -0.03956  -0.02142  -0.01715  -0.00832   0.00547
 Alpha virt. eigenvalues --    0.02047   0.03508   0.05893   0.08194   0.08689
 Alpha virt. eigenvalues --    0.09918   0.10322   0.10846   0.11397   0.12051

 Mulliken charges:
               1
     1  C   -0.538307
     2  C    0.142872
     3  C   -0.201590
     4  C    0.223271
     5  C    0.005724
     6  C    0.137151
     7  C   -0.517210
     8  C   -0.211860
     9  C   -0.201483
    10  C    0.112604
    11  C    0.231857
    12  O   -0.561091
    13  C    0.338193
    14  C   -0.216604
    15  C   -0.203396
    16  C    0.079844
    17  C    0.002114
    18  C    0.007498
    19  C   -0.051942
    20  C   -0.449150
    21  C   -0.449257
    22  C    0.104362
    23  C   -0.205486
    24  C   -0.132660
    25  C   -0.135861
    26  C   -0.198038
    27  C    0.081853
    28  N   -0.472890
    29  C   -0.013174
    30  C    0.109104
    31  C   -0.164300
    32  C   -0.440098
    33  C   -0.440113
    34  H    0.168406
    35  H    0.167184
    36  H    0.162548
    37  H    0.139230
    38  H    0.157939
    39  H    0.187944
    40  H    0.141538
    41  H    0.122855
    42  H    0.140443
    43  H    0.143301
    44  H    0.132175
    45  H    0.155642
    46  H    0.159364
    47  H    0.144067
    48  H    0.154887
    49  H    0.144287
    50  H    0.158314
    51  H    0.123028
    52  H    0.125440
    53  H    0.126241
    54  H    0.126276
    55  H    0.131477
    56  H    0.132199
    57  H    0.148675
    58  H    0.143485
    59  H    0.148505
    60  H    0.150233
    61  H    0.143099
    62  H    0.149284
 Sum of Mulliken charges =  -0.00000

 Dipole moment (field-independent basis, Debye):
    X=              1.1067    Y=             -1.0894    Z=             -1.2612  Tot=              2.0005
 Quadrupole moment (field-independent basis, Debye-Ang):
   XX=           -168.4132   YY=           -178.4150   ZZ=           -196.8394
   XY=             -9.9405   XZ=             -3.7737   YZ=              0.2173

 Normal termination of Gaussian 16 at Sat Nov  5 00:22:11 2022.
