 Gaussian 16, Revision B.01,
 Gaussian 16:  ES64L-G16RevB.01 20-Dec-2017

 -------------------------------------------------------------------
 #p b3lyp/6-31g(d) 6D 10F nosymm GFInput td=(50-50,nstate=2) SCF=XQC
 -------------------------------------------------------------------

 ------------------------------
 Gaussian input prepared by ASE
 ------------------------------
 Symbolic Z-matrix:
 Charge =  0 Multiplicity = 1

                          Input orientation:
 ---------------------------------------------------------------------
 Center     Atomic      Atomic             Coordinates (Angstroms)
 Number     Number       Type             X           Y           Z
 ---------------------------------------------------------------------
      1          6           0      -11.771785    3.880986   -1.615696
      2          6           0      -10.815447    3.748238   -2.624006
      3          6           0       -9.744108    2.870638   -2.464410
      4          6           0       -9.603559    2.107004   -1.293388
      5          6           0       -8.460640    1.172056   -1.123490
      6          6           0       -8.637460   -0.070377   -0.497689
      7          6           0       -7.570496   -0.964558   -0.328956
      8          6           0       -7.780301   -2.284621    0.321673
      9          6           0       -7.126373   -3.435586   -0.149350
     10          6           0       -7.322022   -4.672331    0.463719
     11          6           0       -8.177305   -4.785969    1.561186
     12          6           0       -8.834916   -3.651362    2.039869
     13          6           0       -8.637943   -2.414824    1.426964
     14          6           0       -6.304514   -0.592907   -0.803551
     15          6           0       -6.093402    0.641335   -1.433678
     16          6           0       -4.740552    1.028185   -1.914955
     17          6           0       -4.575001    1.707933   -3.132660
     18          6           0       -3.302473    2.052909   -3.586352
     19          6           0       -2.174175    1.729487   -2.837877
     20          6           0       -2.311407    1.063763   -1.609907
     21          6           0       -1.100499    0.744558   -0.808060
     22          6           0       -1.150986    0.526832    0.573481
     23          6           0        0.046207    0.229432    1.235501
     24          6           0        0.102800   -0.021131    2.699170
     25          6           0        1.168260   -0.761406    3.236482
     26          6           0        1.233528   -1.020562    4.603148
     27          6           0        0.242546   -0.535167    5.459598
     28          6           0       -0.814530    0.212979    4.938422
     29          6           0       -0.885241    0.466289    3.569676
     30          7           0        1.202082    0.144178    0.556184
     31          6           0        1.167338    0.382086   -0.763635
     32          6           0        2.453404    0.302951   -1.507795
     33          6           0        2.471788    0.396531   -2.907389
     34          6           0        3.682224    0.324766   -3.592055
     35          6           0        4.879533    0.163621   -2.896087
     36          6           0        4.887105    0.071982   -1.493822
     37          6           0        6.161465   -0.093057   -0.745674
     38          6           0        7.327479    0.565271   -1.162083
     39          6           0        8.538017    0.419068   -0.469501
     40          6           0        9.760365    1.137915   -0.915666
     41          6           0       10.055729    1.278513   -2.282125
     42          6           0       11.201956    1.951429   -2.702740
     43          6           0       12.079920    2.498539   -1.765302
     44          6           0       11.800044    2.366868   -0.403962
     45          6           0       10.652953    1.694733    0.015747
     46          6           0        8.565587   -0.405907    0.663639
     47          6           0        7.417679   -1.076741    1.108429
     48          6           0        7.469446   -1.958943    2.303805
     49          6           0        6.406466   -1.990826    3.222094
     50          6           0        6.453890   -2.816129    4.344695
     51          6           0        7.566023   -3.628003    4.574806
     52          6           0        8.629998   -3.606824    3.671279
     53          6           0        8.581720   -2.781852    2.548395
     54          6           0        6.224055   -0.910698    0.391739
     55          6           0        3.661696    0.142227   -0.816988
     56          7           0        0.067271    0.684919   -1.469266
     57          6           0       -3.595620    0.718186   -1.166976
     58          6           0       -7.181255    1.512662   -1.585800
     59          6           0      -10.573772    2.252036   -0.287496
     60          6           0      -11.646184    3.128421   -0.446604
     61          1           0      -12.607305    4.564511   -1.739906
     62          1           0      -10.907819    4.322672   -3.542052
     63          1           0       -9.020263    2.755100   -3.266400
     64          1           0       -9.633028   -0.368223   -0.183090
     65          1           0       -6.479806   -3.364011   -1.019539
     66          1           0       -6.811646   -5.550506    0.076967
     67          1           0       -8.330181   -5.749926    2.038842
     68          1           0       -9.497036   -3.726527    2.898538
     69          1           0       -9.134572   -1.533424    1.823292
     70          1           0       -5.470336   -1.277307   -0.681562
     71          1           0       -5.446488    1.940058   -3.738189
     72          1           0       -3.190747    2.570460   -4.535331
     73          1           0       -1.180191    1.988785   -3.184187
     74          1           0       -2.086690    0.585267    1.113886
     75          1           0        1.934173   -1.131185    2.563790
     76          1           0        2.059391   -1.603711    5.001879
     77          1           0        0.295775   -0.734897    6.526448
     78          1           0       -1.582831    0.606096    5.598603
     79          1           0       -1.701075    1.071012    3.184968
     80          1           0        1.535421    0.518822   -3.439337
     81          1           0        3.693549    0.384566   -4.677152
     82          1           0        5.814735    0.083778   -3.443211
     83          1           0        7.280535    1.243637   -2.008602
     84          1           0        9.392331    0.834246   -3.019080
     85          1           0       11.413641    2.040834   -3.765120
     86          1           0       12.973628    3.022934   -2.092625
     87          1           0       12.471642    2.796661    0.334727
     88          1           0       10.430768    1.621887    1.076752
     89          1           0        9.496364   -0.527379    1.209469
     90          1           0        5.548044   -1.343295    3.065699
     91          1           0        5.623623   -2.818099    5.046339
     92          1           0        7.603201   -4.271161    5.449922
     93          1           0        9.497298   -4.241074    3.835426
     94          1           0        9.403443   -2.792849    1.837686
     95          1           0        5.341137   -1.464757    0.695360
     96          1           0        3.634088    0.099550    0.265650
     97          1           0       -3.718575    0.194764   -0.224069
     98          1           0       -7.019377    2.492366   -2.025158
     99          1           0      -10.471175    1.690770    0.637127
    100          1           0      -12.380256    3.229821    0.348497
 ---------------------------------------------------------------------

 SCF Done:  E(RB3LYP) =  -2343.85392794     A.U. after   14 cycles

 Excitation energies and oscillator strengths:

 Excited state symmetry could not be determined.
 Excited State   1:      Triplet-?Sym    2.9109 eV  425.94 nm  f=0.0000  <S**2>=2.000
     188 ->202         0.10912
     192 ->208         0.10536
     194 ->202        -0.17923
     197 ->203         0.39439
     198 ->202        -0.13618
     198 ->204         0.12303
     200 ->206         0.13963
     201 ->203         0.27078
     201 ->207        -0.22019
 This state for optimization and/or second-order correction.
 Total Energy, E(TD-HF/TD-DFT) =  -2343.74695564
 Copying the excited state density for this state as the 1-particle RhoCI density.

 Excited state symmetry could not be determined.
 Excited State   2:      Triplet-?Sym    3.0345 eV  408.58 nm  f=0.0000  <S**2>=2.000
     198 ->202         0.20969
     198 ->204        -0.33320
     198 ->205         0.11193
     199 ->205        -0.31471
     200 ->206         0.19460
     201 ->203         0.11688
     201 ->207        -0.21142

 Excited state symmetry could not be determined.
 Excited State   3:      Singlet-?Sym    3.7698 eV  328.89 nm  f=0.0118  <S**2>=0.000
     197 ->202         0.14440
     201 ->202         0.67971

 Excited state symmetry could not be determined.
 Excited State   4:      Singlet-?Sym    3.8653 eV  320.76 nm  f=0.0105  <S**2>=0.000
     187 ->202        -0.11543
     188 ->202        -0.10079
     192 ->202         0.29675
     194 ->202        -0.28191
     195 ->202         0.37396
     198 ->202         0.35870

 Alpha  occ. eigenvalues --  -14.33044 -14.33040 -10.26074 -10.24656 -10.24635
 Alpha  occ. eigenvalues --  -10.20606 -10.20498 -10.20446 -10.20385 -10.20342
 Alpha  occ. eigenvalues --  -10.20337 -10.20142 -10.20116 -10.20081 -10.19856
 Alpha  occ. eigenvalues --  -10.19851 -10.19769 -10.19759 -10.19741 -10.19733
 Alpha  occ. eigenvalues --  -10.19726 -10.19709 -10.19702 -10.19639 -10.19603
 Alpha  occ. eigenvalues --  -10.19551 -10.19475 -10.19370 -10.19283 -10.19270
 Alpha  occ. eigenvalues --  -10.19265 -10.19253 -10.19235 -10.19232 -10.19229
 Alpha  occ. eigenvalues --  -10.19199 -10.19182 -10.19171 -10.19165 -10.19157
 Alpha  occ. eigenvalues --  -10.19142 -10.19125 -10.19094 -10.18951 -10.18919
 Alpha  occ. eigenvalues --  -10.18880 -10.18874 -10.18850 -10.18812 -10.18779
 Alpha  occ. eigenvalues --  -10.18756 -10.18745 -10.18743 -10.18735 -10.18713
 Alpha  occ. eigenvalues --  -10.18619 -10.18609 -10.18568 -10.18484 -10.18460
 Alpha  occ. eigenvalues --   -0.98469  -0.89608  -0.87871  -0.87294  -0.86492
 Alpha  occ. eigenvalues --   -0.85816  -0.85734  -0.85447  -0.85414  -0.84259
 Alpha  occ. eigenvalues --   -0.83789  -0.81056  -0.78735  -0.78596  -0.78117
 Alpha  occ. eigenvalues --   -0.78009  -0.76255  -0.75198  -0.74965  -0.74673
 Alpha  occ. eigenvalues --   -0.74593  -0.74502  -0.74262  -0.74217  -0.73913
 Alpha  occ. eigenvalues --   -0.73503  -0.71951  -0.71726  -0.71280  -0.71207
 Alpha  occ. eigenvalues --   -0.66420  -0.66301  -0.63558  -0.63450  -0.62924
 Alpha  occ. eigenvalues --   -0.62875  -0.61609  -0.61329  -0.60753  -0.60655
 Alpha  occ. eigenvalues --   -0.60404  -0.60143  -0.60062  -0.59719  -0.58676
 Alpha  occ. eigenvalues --   -0.58382  -0.56869  -0.56562  -0.56179  -0.55897
 Alpha  occ. eigenvalues --   -0.54055  -0.53221  -0.52346  -0.51468  -0.51065
 Alpha  occ. eigenvalues --   -0.51002  -0.50646  -0.50371  -0.49349  -0.48822
 Alpha  occ. eigenvalues --   -0.48153  -0.47675  -0.47432  -0.47321  -0.46990
 Alpha  occ. eigenvalues --   -0.46772  -0.45872  -0.45662  -0.45332  -0.45255
 Alpha  occ. eigenvalues --   -0.44879  -0.44678  -0.44490  -0.44173  -0.44131
 Alpha  occ. eigenvalues --   -0.43276  -0.43152  -0.42828  -0.42739  -0.42493
 Alpha  occ. eigenvalues --   -0.42461  -0.42278  -0.42221  -0.42115  -0.41979
 Alpha  occ. eigenvalues --   -0.41883  -0.41824  -0.41787  -0.41481  -0.41385
 Alpha  occ. eigenvalues --   -0.41104  -0.40866  -0.38487  -0.37975  -0.37778
 Alpha  occ. eigenvalues --   -0.37325  -0.37226  -0.37114  -0.36725  -0.36640
 Alpha  occ. eigenvalues --   -0.36605  -0.36410  -0.36132  -0.35988  -0.35685
 Alpha  occ. eigenvalues --   -0.35430  -0.35283  -0.34971  -0.34820  -0.34785
 Alpha  occ. eigenvalues --   -0.34626  -0.34442  -0.34297  -0.34078  -0.33927
 Alpha  occ. eigenvalues --   -0.33328  -0.33211  -0.32765  -0.32628  -0.32172
 Alpha  occ. eigenvalues --   -0.30558  -0.29763  -0.28216  -0.28092  -0.27806
 Alpha  occ. eigenvalues --   -0.27416  -0.25633  -0.25268  -0.25219  -0.25175
 Alpha  occ. eigenvalues --   -0.24835  -0.24815  -0.24809  -0.24587  -0.24555
 Alpha  occ. eigenvalues --   -0.24212  -0.23157  -0.22449  -0.22303  -0.21878
 Alpha  occ. eigenvalues --   -0.21700
 Alpha virt. eigenvalues --   -0.06230  -0.05287  -0.03512  -0.03470  -0.03012
 Alpha virt. eigenvalues --   -0.02799  -0.01312  -0.00876  -0.00456  -0.00316
 Alpha virt. eigenvalues --   -0.00267  -0.00247   0.00062   0.00106   0.02262

 Mulliken charges:
               1
     1  C   -0.125891
     2  C   -0.134036
     3  C   -0.171384
     4  C    0.088019
     5  C    0.094346
     6  C   -0.234627
     7  C    0.093724
     8  C    0.085869
     9  C   -0.172987
    10  C   -0.134412
    11  C   -0.125886
    12  C   -0.134202
    13  C   -0.171705
    14  C   -0.232988
    15  C    0.092402
    16  C    0.083768
    17  C   -0.166176
    18  C   -0.139369
    19  C   -0.155409
    20  C    0.093536
    21  C    0.275348
    22  C   -0.216912
    23  C    0.274721
    24  C    0.093519
    25  C   -0.155039
    26  C   -0.136258
    27  C   -0.119360
    28  C   -0.138654
    29  C   -0.172755
    30  N   -0.555072
    31  C    0.446576
    32  C    0.076397
    33  C   -0.161499
    34  C   -0.141713
    35  C   -0.164591
    36  C    0.085369
    37  C    0.098274
    38  C   -0.236738
    39  C    0.094190
    40  C    0.085984
    41  C   -0.171494
    42  C   -0.134283
    43  C   -0.126318
    44  C   -0.134645
    45  C   -0.172830
    46  C   -0.232376
    47  C    0.092957
    48  C    0.085412
    49  C   -0.173402
    50  C   -0.134187
    51  C   -0.126049
    52  C   -0.134711
    53  C   -0.172530
    54  C   -0.232630
    55  C   -0.220493
    56  N   -0.557377
    57  C   -0.228700
    58  C   -0.235577
    59  C   -0.171512
    60  C   -0.134036
    61  H    0.130969
    62  H    0.131588
    63  H    0.130678
    64  H    0.139294
    65  H    0.135883
    66  H    0.132688
    67  H    0.130961
    68  H    0.131094
    69  H    0.130371
    70  H    0.136843
    71  H    0.135018
    72  H    0.135875
    73  H    0.159736
    74  H    0.152072
    75  H    0.158181
    76  H    0.133009
    77  H    0.134204
    78  H    0.134850
    79  H    0.136294
    80  H    0.156030
    81  H    0.130779
    82  H    0.131081
    83  H    0.137261
    84  H    0.130345
    85  H    0.130081
    86  H    0.129337
    87  H    0.130608
    88  H    0.135152
    89  H    0.134141
    90  H    0.134909
    91  H    0.127372
    92  H    0.128981
    93  H    0.130561
    94  H    0.134880
    95  H    0.140363
    96  H    0.159348
    97  H    0.139077
    98  H    0.138302
    99  H    0.130785
   100  H    0.131408
 Sum of Mulliken charges =  -0.00000

 Dipole moment (field-independent basis, Debye):
    X=             -2.0251    Y=              0.0420    Z=              1.0984  Tot=              2.3042
 Quadrupole moment (field-independent basis, Debye-Ang):
   XX=           -304.2993   YY=           -333.9808   ZZ=           -310.4241
   XY=             -6.6932   XZ=             -7.1768   YZ=            -15.1610

 Normal termination of Gaussian 16 at Sat Nov  5 11:01:24 2022.
