 Gaussian 16, Revision B.01,
 Gaussian 16:  ES64L-G16RevB.01 20-Dec-2017

 -----------------------------
 #p b3lyp/6-31g(d) opt SCF=XQC
 -----------------------------

 ------------------------------
 Gaussian input prepared by ASE
 ------------------------------
 Symbolic Z-matrix:
 Charge =  0 Multiplicity = 1

 SCF Done:  E(RB3LYP) =  -2343.84204795     A.U. after   14 cycles
 SCF Done:  E(RB3LYP) =  -2343.85340896     A.U. after   12 cycles
 SCF Done:  E(RB3LYP) =  -2343.85385447     A.U. after   11 cycles
 SCF Done:  E(RB3LYP) =  -2343.85391584     A.U. after   11 cycles
 SCF Done:  E(RB3LYP) =  -2343.85392513     A.U. after   10 cycles
 SCF Done:  E(RB3LYP) =  -2343.85392737     A.U. after    9 cycles
 SCF Done:  E(RB3LYP) =  -2343.85392805     A.U. after    9 cycles
 SCF Done:  E(RB3LYP) =  -2343.85392830     A.U. after    9 cycles
 SCF Done:  E(RB3LYP) =  -2343.85392835     A.U. after    7 cycles
 SCF Done:  E(RB3LYP) =  -2343.85392836     A.U. after    6 cycles
 Optimization completed on the basis of negligible forces.
    -- Stationary point found.

                         Standard orientation:
 ---------------------------------------------------------------------
 Center     Atomic      Atomic             Coordinates (Angstroms)
 Number     Number       Type             X           Y           Z
 ---------------------------------------------------------------------
      1          6           0      -11.989820   -2.860685   -2.145460
      2          6           0      -11.090953   -3.634870   -1.409544
      3          6           0       -9.982982   -3.041346   -0.806596
      4          6           0       -9.747567   -1.661346   -0.926448
      5          6           0       -8.565633   -1.029243   -0.284006
      6          6           0       -8.662958    0.239148    0.306117
      7          6           0       -7.558249    0.850352    0.916437
      8          6           0       -7.684388    2.188272    1.552018
      9          6           0       -7.020970    2.483373    2.754930
     10          6           0       -7.138027    3.739538    3.348242
     11          6           0       -7.922461    4.728643    2.752261
     12          6           0       -8.588547    4.449877    1.557463
     13          6           0       -8.470152    3.193880    0.964226
     14          6           0       -6.335898    0.163499    0.929248
     15          6           0       -6.204339   -1.105556    0.348582
     16          6           0       -4.896232   -1.812877    0.354416
     17          6           0       -4.826188   -3.198506    0.572131
     18          6           0       -3.595165   -3.852964    0.593110
     19          6           0       -2.414219   -3.142420    0.397236
     20          6           0       -2.455876   -1.759284    0.162433
     21          6           0       -1.189493   -1.015021   -0.068858
     22          6           0       -1.150657    0.206855   -0.750122
     23          6           0        0.093022    0.828864   -0.912466
     24          6           0        0.244664    2.128201   -1.617475
     25          6           0        1.364504    2.934004   -1.355642
     26          6           0        1.519345    4.161913   -1.993971
     27          6           0        0.564996    4.602030   -2.914120
     28          6           0       -0.545790    3.803478   -3.192018
     29          6           0       -0.705987    2.577906   -2.547859
     30          7           0        1.208844    0.270185   -0.414867
     31          6           0        1.087950   -0.909926    0.211594
     32          6           0        2.329611   -1.532054    0.745668
     33          6           0        2.261875   -2.689466    1.535457
     34          6           0        3.431358   -3.264334    2.026283
     35          6           0        4.672557   -2.699614    1.735759
     36          6           0        4.766281   -1.543052    0.943052
     37          6           0        6.087575   -0.940176    0.624176
     38          6           0        7.203944   -1.751191    0.374471
     39          6           0        8.457636   -1.199225    0.074408
     40          6           0        9.626400   -2.074673   -0.204016
     41          6           0        9.835372   -3.253729    0.531086
     42          6           0       10.931259   -4.075696    0.272296
     43          6           0       11.844214   -3.736144   -0.727783
     44          6           0       11.650088   -2.567650   -1.466599
     45          6           0       10.553260   -1.746817   -1.207875
     46          6           0        8.580164    0.196448    0.025076
     47          6           0        7.483962    1.036221    0.267298
     48          6           0        7.636252    2.514359    0.224861
     49          6           0        6.631226    3.326486   -0.327016
     50          6           0        6.772950    4.712750   -0.369392
     51          6           0        7.923575    5.318384    0.138739
     52          6           0        8.930830    4.524369    0.689946
     53          6           0        8.788250    3.138145    0.732748
     54          6           0        6.245046    0.451970    0.566785
     55          6           0        3.581447   -0.972384    0.458105
     56          7           0       -0.061597   -1.576065    0.397528
     57          6           0       -3.699174   -1.112113    0.148449
     58          6           0       -7.328132   -1.688236   -0.254203
     59          6           0      -10.660835   -0.895689   -1.670679
     60          6           0      -11.769807   -1.488010   -2.272982
     61          1           0      -12.853864   -3.322810   -2.615139
     62          1           0      -11.256920   -4.703025   -1.296334
     63          1           0       -9.304427   -3.648503   -0.213796
     64          1           0       -9.627500    0.736714    0.336592
     65          1           0       -6.429880    1.712651    3.241755
     66          1           0       -6.622058    3.942446    4.283044
     67          1           0       -8.014090    5.707613    3.214819
     68          1           0       -9.195714    5.214818    1.080413
     69          1           0       -8.971947    2.995573    0.021115
     70          1           0       -5.473295    0.624508    1.400972
     71          1           0       -5.739366   -3.757948    0.754249
     72          1           0       -3.557418   -4.924133    0.772200
     73          1           0       -1.451833   -3.641025    0.416644
     74          1           0       -2.054144    0.658165   -1.138742
     75          1           0        2.101285    2.582092   -0.642069
     76          1           0        2.386623    4.778332   -1.772714
     77          1           0        0.688055    5.558823   -3.414416
     78          1           0       -1.286484    4.131357   -3.916265
     79          1           0       -1.563158    1.958528   -2.794646
     80          1           0        1.292041   -3.119126    1.757992
     81          1           0        3.376353   -4.153617    2.648609
     82          1           0        5.575869   -3.142977    2.145368
     83          1           0        7.084025   -2.830287    0.362215
     84          1           0        9.144882   -3.513748    1.328700
     85          1           0       11.076491   -4.978904    0.859305
     86          1           0       12.698718   -4.376365   -0.929731
     87          1           0       12.349351   -2.297907   -2.253809
     88          1           0       10.396910   -0.854179   -1.807171
     89          1           0        9.545216    0.636877   -0.206722
     90          1           0        5.743645    2.862817   -0.748741
     91          1           0        5.986248    5.320706   -0.808872
     92          1           0        8.034256    6.398899    0.105549
     93          1           0        9.827281    4.985344    1.096524
     94          1           0        9.566328    2.531637    1.187940
     95          1           0        5.400906    1.091131    0.806807
     96          1           0        3.619484   -0.094481   -0.176344
     97          1           0       -3.748286   -0.041336   -0.022388
     98          1           0       -7.225785   -2.647454   -0.752688
     99          1           0      -10.484723    0.168827   -1.798207
    100          1           0      -12.458496   -0.876861   -2.850507
 ---------------------------------------------------------------------

 The electronic state is 1-A.
 Alpha  occ. eigenvalues --  -14.33044 -14.33040 -10.26074 -10.24656 -10.24635
 Alpha  occ. eigenvalues --  -10.20606 -10.20498 -10.20446 -10.20385 -10.20342
 Alpha  occ. eigenvalues --  -10.20337 -10.20142 -10.20116 -10.20081 -10.19856
 Alpha  occ. eigenvalues --  -10.19851 -10.19769 -10.19759 -10.19741 -10.19733
 Alpha  occ. eigenvalues --  -10.19726 -10.19708 -10.19702 -10.19639 -10.19603
 Alpha  occ. eigenvalues --  -10.19551 -10.19475 -10.19370 -10.19283 -10.19270
 Alpha  occ. eigenvalues --  -10.19265 -10.19253 -10.19235 -10.19232 -10.19230
 Alpha  occ. eigenvalues --  -10.19199 -10.19182 -10.19171 -10.19165 -10.19157
 Alpha  occ. eigenvalues --  -10.19142 -10.19125 -10.19094 -10.18951 -10.18919
 Alpha  occ. eigenvalues --  -10.18880 -10.18875 -10.18851 -10.18812 -10.18779
 Alpha  occ. eigenvalues --  -10.18756 -10.18745 -10.18743 -10.18735 -10.18713
 Alpha  occ. eigenvalues --  -10.18619 -10.18609 -10.18568 -10.18484 -10.18460
 Alpha  occ. eigenvalues --   -0.98469  -0.89608  -0.87871  -0.87294  -0.86492
 Alpha  occ. eigenvalues --   -0.85816  -0.85734  -0.85447  -0.85414  -0.84259
 Alpha  occ. eigenvalues --   -0.83789  -0.81056  -0.78735  -0.78596  -0.78117
 Alpha  occ. eigenvalues --   -0.78009  -0.76255  -0.75198  -0.74965  -0.74673
 Alpha  occ. eigenvalues --   -0.74593  -0.74502  -0.74262  -0.74217  -0.73913
 Alpha  occ. eigenvalues --   -0.73503  -0.71951  -0.71726  -0.71280  -0.71207
 Alpha  occ. eigenvalues --   -0.66420  -0.66301  -0.63558  -0.63450  -0.62924
 Alpha  occ. eigenvalues --   -0.62875  -0.61609  -0.61329  -0.60753  -0.60655
 Alpha  occ. eigenvalues --   -0.60404  -0.60143  -0.60062  -0.59719  -0.58676
 Alpha  occ. eigenvalues --   -0.58382  -0.56869  -0.56562  -0.56179  -0.55897
 Alpha  occ. eigenvalues --   -0.54055  -0.53221  -0.52346  -0.51468  -0.51065
 Alpha  occ. eigenvalues --   -0.51002  -0.50646  -0.50371  -0.49349  -0.48822
 Alpha  occ. eigenvalues --   -0.48153  -0.47675  -0.47432  -0.47321  -0.46990
 Alpha  occ. eigenvalues --   -0.46772  -0.45872  -0.45662  -0.45332  -0.45255
 Alpha  occ. eigenvalues --   -0.44879  -0.44678  -0.44490  -0.44173  -0.44131
 Alpha  occ. eigenvalues --   -0.43276  -0.43152  -0.42828  -0.42739  -0.42493
 Alpha  occ. eigenvalues --   -0.42461  -0.42278  -0.42221  -0.42115  -0.41979
 Alpha  occ. eigenvalues --   -0.41883  -0.41824  -0.41787  -0.41480  -0.41385
 Alpha  occ. eigenvalues --   -0.41104  -0.40866  -0.38487  -0.37975  -0.37778
 Alpha  occ. eigenvalues --   -0.37325  -0.37226  -0.37114  -0.36725  -0.36640
 Alpha  occ. eigenvalues --   -0.36605  -0.36410  -0.36132  -0.35988  -0.35685
 Alpha  occ. eigenvalues --   -0.35430  -0.35283  -0.34971  -0.34820  -0.34785
 Alpha  occ. eigenvalues --   -0.34626  -0.34442  -0.34297  -0.34078  -0.33927
 Alpha  occ. eigenvalues --   -0.33328  -0.33211  -0.32765  -0.32628  -0.32172
 Alpha  occ. eigenvalues --   -0.30558  -0.29763  -0.28216  -0.28092  -0.27806
 Alpha  occ. eigenvalues --   -0.27416  -0.25633  -0.25268  -0.25219  -0.25175
 Alpha  occ. eigenvalues --   -0.24835  -0.24815  -0.24809  -0.24587  -0.24555
 Alpha  occ. eigenvalues --   -0.24212  -0.23157  -0.22449  -0.22303  -0.21878
 Alpha  occ. eigenvalues --   -0.21700
 Alpha virt. eigenvalues --   -0.06230  -0.05287  -0.03512  -0.03470  -0.03012
 Alpha virt. eigenvalues --   -0.02799  -0.01312  -0.00876  -0.00456  -0.00316
 Alpha virt. eigenvalues --   -0.00267  -0.00247   0.00062   0.00106   0.02262

 Mulliken charges:
               1
     1  C   -0.125893
     2  C   -0.134035
     3  C   -0.171383
     4  C    0.088008
     5  C    0.094321
     6  C   -0.234606
     7  C    0.093703
     8  C    0.085877
     9  C   -0.172987
    10  C   -0.134410
    11  C   -0.125892
    12  C   -0.134195
    13  C   -0.171712
    14  C   -0.232975
    15  C    0.092383
    16  C    0.083761
    17  C   -0.166167
    18  C   -0.139368
    19  C   -0.155415
    20  C    0.093541
    21  C    0.275350
    22  C   -0.216917
    23  C    0.274730
    24  C    0.093492
    25  C   -0.155010
    26  C   -0.136250
    27  C   -0.119368
    28  C   -0.138654
    29  C   -0.172739
    30  N   -0.555076
    31  C    0.446586
    32  C    0.076405
    33  C   -0.161504
    34  C   -0.141712
    35  C   -0.164595
    36  C    0.085372
    37  C    0.098278
    38  C   -0.236759
    39  C    0.094228
    40  C    0.085958
    41  C   -0.171487
    42  C   -0.134291
    43  C   -0.126307
    44  C   -0.134663
    45  C   -0.172817
    46  C   -0.232390
    47  C    0.092958
    48  C    0.085421
    49  C   -0.173407
    50  C   -0.134187
    51  C   -0.126057
    52  C   -0.134700
    53  C   -0.172538
    54  C   -0.232632
    55  C   -0.220502
    56  N   -0.557383
    57  C   -0.228696
    58  C   -0.235560
    59  C   -0.171498
    60  C   -0.134036
    61  H    0.130968
    62  H    0.131587
    63  H    0.130678
    64  H    0.139296
    65  H    0.135883
    66  H    0.132688
    67  H    0.130961
    68  H    0.131093
    69  H    0.130373
    70  H    0.136843
    71  H    0.135018
    72  H    0.135875
    73  H    0.159736
    74  H    0.152071
    75  H    0.158167
    76  H    0.133002
    77  H    0.134205
    78  H    0.134850
    79  H    0.136293
    80  H    0.156028
    81  H    0.130779
    82  H    0.131082
    83  H    0.137261
    84  H    0.130347
    85  H    0.130082
    86  H    0.129337
    87  H    0.130610
    88  H    0.135152
    89  H    0.134141
    90  H    0.134914
    91  H    0.127373
    92  H    0.128981
    93  H    0.130559
    94  H    0.134879
    95  H    0.140367
    96  H    0.159351
    97  H    0.139078
    98  H    0.138303
    99  H    0.130779
   100  H    0.131408
 Sum of Mulliken charges =  -0.00000

 Dipole moment (field-independent basis, Debye):
    X=             -1.9567    Y=              0.9729    Z=             -0.7307  Tot=              2.3042
 Quadrupole moment (field-independent basis, Debye-Ang):
   XX=           -304.6183   YY=           -304.4637   ZZ=           -339.5866
   XY=             -1.4662   XZ=              9.4499   YZ=             -8.4611

 1\1\GINC-NODE76\FOpt\RB3LYP\6-31G(d)\C58H40N2\WYKGROUP\05-Nov-2022\0\\
 #p b3lyp/6-31g(d) opt SCF=XQC\\Gaussian input prepared by ASE\\0,1\C,-
 11.7717851443,3.8809857562,-1.6156955798\C,-10.8154465647,3.7482382116
 ,-2.624005897\C,-9.7441080386,2.8706380335,-2.4644103329\C,-9.60355876
 42,2.1070037561,-1.2933882589\C,-8.4606398029,1.1720563735,-1.12349005
 02\C,-8.6374598072,-0.0703768762,-0.497688648\C,-7.5704959092,-0.96455
 7732,-0.3289560204\C,-7.7803014106,-2.2846210778,0.3216730366\C,-7.126
 3728448,-3.4355859946,-0.1493503415\C,-7.3220219529,-4.6723312797,0.46

 Normal termination of Gaussian 16 at Sat Nov  5 00:40:39 2022.
