 Gaussian 16, Revision B.01,
 Gaussian 16:  ES64L-G16RevB.01 20-Dec-2017

 -------------------------------------------------------------------
 #p b3lyp/6-31g(d) 6D 10F nosymm GFInput td=(50-50,nstate=2) SCF=XQC
 -------------------------------------------------------------------

 ------------------------------
 Gaussian input prepared by ASE
 ------------------------------
 Symbolic Z-matrix:
 Charge =  0 Multiplicity = 1

                          Input orientation:
 ---------------------------------------------------------------------
 Center     Atomic      Atomic             Coordinates (Angstroms)
 Number     Number       Type             X           Y           Z
 ---------------------------------------------------------------------
      1          6           0        4.570383    1.255488   -2.339010
      2          6           0        4.272505    0.556152   -1.031757
      3          6           0        3.015932    0.710427   -0.440378
      4          6           0        2.710736    0.077481    0.771300
      5          6           0        1.371233    0.226683    1.408505
      6          6           0        1.193851    0.473438    2.790051
      7          6           0        2.364483    0.640329    3.731908
      8          6           0       -0.108789    0.589593    3.309176
      9          6           0       -1.252532    0.463718    2.526947
     10          6           0       -1.108192    0.217342    1.157421
     11          6           0        0.201853    0.113985    0.649044
     12          8           0        0.191782   -0.138665   -0.705036
     13          6           0       -1.129015   -0.198758   -1.080373
     14          6           0       -1.544315   -0.438747   -2.383752
     15          6           0       -2.917295   -0.471376   -2.617825
     16          6           0       -3.812391   -0.266232   -1.557650
     17          6           0       -3.375217   -0.024364   -0.238628
     18          6           0       -1.995710    0.012772    0.015765
     19          6           0       -4.572619    0.158743    0.698428
     20          6           0       -4.618409   -0.935762    1.789998
     21          6           0       -4.597749    1.571077    1.327579
     22          6           0       -5.742411   -0.010837   -0.270619
     23          6           0       -7.106255    0.049519   -0.007655
     24          6           0       -8.012574   -0.137925   -1.058302
     25          6           0       -7.552445   -0.382922   -2.356082
     26          6           0       -6.183104   -0.444558   -2.625063
     27          6           0       -5.280414   -0.257372   -1.576228
     28          7           0        3.613918   -0.689848    1.406792
     29          6           0        4.812118   -0.835205    0.837911
     30          6           0        5.216912   -0.254263   -0.370919
     31          6           0        6.620105   -0.509847   -0.908709
     32          6           0        7.704336    0.033622    0.043171
     33          6           0        6.849824   -2.003089   -1.215972
     34          1           0        4.817606    0.541757   -3.134147
     35          1           0        5.419621    1.943561   -2.249226
     36          1           0        3.705452    1.836331   -2.672147
     37          1           0        2.266545    1.325467   -0.927104
     38          1           0        3.120155    1.319534    3.322972
     39          1           0        2.870606   -0.312816    3.909848
     40          1           0        2.025521    1.043420    4.691608
     41          1           0       -0.221335    0.790245    4.371384
     42          1           0       -2.229806    0.560179    2.985396
     43          1           0       -0.819407   -0.594533   -3.175636
     44          1           0       -3.289058   -0.656579   -3.621695
     45          1           0       -3.744514   -0.887453    2.446348
     46          1           0       -4.645814   -1.932392    1.338155
     47          1           0       -5.514559   -0.818723    2.410284
     48          1           0       -3.722640    1.745887    1.960489
     49          1           0       -5.493600    1.697359    1.946459
     50          1           0       -4.610902    2.341410    0.549936
     51          1           0       -7.473433    0.239325    0.998423
     52          1           0       -9.080783   -0.092761   -0.863595
     53          1           0       -8.266367   -0.526802   -3.162867
     54          1           0       -5.832416   -0.635550   -3.636265
     55          1           0        5.508060   -1.468479    1.387491
     56          1           0        6.723904    0.031748   -1.855218
     57          1           0        7.684054   -0.482632    1.009840
     58          1           0        8.701782   -0.108767   -0.389419
     59          1           0        7.565597    1.103458    0.234600
     60          1           0        6.101621   -2.383643   -1.919952
     61          1           0        7.842142   -2.156232   -1.656637
     62          1           0        6.791429   -2.612921   -0.307121
 ---------------------------------------------------------------------

 SCF Done:  E(RB3LYP) =  -1328.79885596     A.U. after   15 cycles

 Excitation energies and oscillator strengths:

 Excited state symmetry could not be determined.
 Excited State   1:      Triplet-?Sym    2.9186 eV  424.81 nm  f=0.0000  <S**2>=2.000
     113 ->116        -0.15960
     113 ->117         0.10948
     114 ->116         0.35967
     114 ->117        -0.10112
     114 ->118        -0.16252
     115 ->116         0.34187
     115 ->117         0.33498
 This state for optimization and/or second-order correction.
 Total Energy, E(TD-HF/TD-DFT) =  -1328.69159914
 Copying the excited state density for this state as the 1-particle RhoCI density.

 Excited state symmetry could not be determined.
 Excited State   2:      Triplet-?Sym    3.1637 eV  391.90 nm  f=0.0000  <S**2>=2.000
     112 ->120         0.13946
     113 ->116         0.25383
     113 ->117         0.14944
     115 ->116        -0.34693
     115 ->117         0.44765

 Excited state symmetry could not be determined.
 Excited State   3:      Singlet-?Sym    3.8553 eV  321.59 nm  f=0.0723  <S**2>=0.000
     114 ->116        -0.14648
     114 ->117        -0.14800
     115 ->116         0.65958

 Excited state symmetry could not be determined.
 Excited State   4:      Singlet-?Sym    4.2044 eV  294.89 nm  f=0.0644  <S**2>=0.000
     113 ->116         0.16117
     114 ->116         0.55930
     115 ->116         0.17615
     115 ->117         0.14278
     115 ->118         0.26862

 Alpha  occ. eigenvalues --  -19.20479 -14.32023 -10.24482 -10.24378 -10.22400
 Alpha  occ. eigenvalues --  -10.21270 -10.20872 -10.20745 -10.19975 -10.19911
 Alpha  occ. eigenvalues --  -10.19889 -10.19691 -10.19645 -10.19525 -10.19498
 Alpha  occ. eigenvalues --  -10.19267 -10.19238 -10.19211 -10.19106 -10.18906
 Alpha  occ. eigenvalues --  -10.18781 -10.18758 -10.18597 -10.18584 -10.18536
 Alpha  occ. eigenvalues --  -10.18490 -10.18424 -10.18233 -10.17982 -10.17925
 Alpha  occ. eigenvalues --  -10.17834 -10.17790 -10.17028  -1.10174  -0.93587
 Alpha  occ. eigenvalues --   -0.88590  -0.85766  -0.84309  -0.82940  -0.80977
 Alpha  occ. eigenvalues --   -0.79834  -0.79016  -0.76852  -0.76173  -0.73961
 Alpha  occ. eigenvalues --   -0.73021  -0.72443  -0.70869  -0.70742  -0.68652
 Alpha  occ. eigenvalues --   -0.68636  -0.68225  -0.64156  -0.63946  -0.62622
 Alpha  occ. eigenvalues --   -0.61708  -0.59667  -0.59192  -0.57529  -0.57251
 Alpha  occ. eigenvalues --   -0.56146  -0.54216  -0.51810  -0.50722  -0.50467
 Alpha  occ. eigenvalues --   -0.49275  -0.48693  -0.47433  -0.46086  -0.45998
 Alpha  occ. eigenvalues --   -0.45471  -0.44742  -0.44259  -0.44139  -0.43464
 Alpha  occ. eigenvalues --   -0.43436  -0.43169  -0.42791  -0.42555  -0.42430
 Alpha  occ. eigenvalues --   -0.41300  -0.40971  -0.40822  -0.40386  -0.40039
 Alpha  occ. eigenvalues --   -0.39134  -0.39057  -0.38599  -0.38381  -0.37865
 Alpha  occ. eigenvalues --   -0.37779  -0.37606  -0.36985  -0.36856  -0.35932
 Alpha  occ. eigenvalues --   -0.35646  -0.34682  -0.34361  -0.34281  -0.34216
 Alpha  occ. eigenvalues --   -0.33897  -0.33832  -0.33571  -0.32625  -0.31644
 Alpha  occ. eigenvalues --   -0.31164  -0.28519  -0.26674  -0.26601  -0.25723
 Alpha  occ. eigenvalues --   -0.24507  -0.24134  -0.22549  -0.21386  -0.20015
 Alpha virt. eigenvalues --   -0.03956  -0.02142  -0.01715  -0.00832   0.00547
 Alpha virt. eigenvalues --    0.02047   0.03508   0.05893   0.08194   0.08689
 Alpha virt. eigenvalues --    0.09918   0.10322   0.10846   0.11397   0.12051

 Mulliken charges:
               1
     1  C   -0.538313
     2  C    0.142873
     3  C   -0.201582
     4  C    0.223250
     5  C    0.005732
     6  C    0.137159
     7  C   -0.517209
     8  C   -0.211867
     9  C   -0.201494
    10  C    0.112630
    11  C    0.231848
    12  O   -0.561085
    13  C    0.338186
    14  C   -0.216609
    15  C   -0.203399
    16  C    0.079855
    17  C    0.002125
    18  C    0.007479
    19  C   -0.051959
    20  C   -0.449154
    21  C   -0.449268
    22  C    0.104391
    23  C   -0.205490
    24  C   -0.132666
    25  C   -0.135854
    26  C   -0.198041
    27  C    0.081843
    28  N   -0.472873
    29  C   -0.013196
    30  C    0.109119
    31  C   -0.164295
    32  C   -0.440103
    33  C   -0.440117
    34  H    0.168406
    35  H    0.167186
    36  H    0.162549
    37  H    0.139229
    38  H    0.157940
    39  H    0.187943
    40  H    0.141538
    41  H    0.122855
    42  H    0.140445
    43  H    0.143302
    44  H    0.132175
    45  H    0.155641
    46  H    0.159365
    47  H    0.144068
    48  H    0.154889
    49  H    0.144290
    50  H    0.158316
    51  H    0.123026
    52  H    0.125440
    53  H    0.126240
    54  H    0.126276
    55  H    0.131478
    56  H    0.132198
    57  H    0.148677
    58  H    0.143485
    59  H    0.148504
    60  H    0.150234
    61  H    0.143099
    62  H    0.149285
 Sum of Mulliken charges =  -0.00000

 Dipole moment (field-independent basis, Debye):
    X=              1.1885    Y=              1.0814    Z=             -1.1918  Tot=              2.0005
 Quadrupole moment (field-independent basis, Debye-Ang):
   XX=           -168.0319   YY=           -196.6347   ZZ=           -179.8673
   XY=              1.4598   XZ=             -9.2902   YZ=              2.6354

 Normal termination of Gaussian 16 at Sat Nov  5 10:16:11 2022.
