 Gaussian 16, Revision B.01,
 Gaussian 16:  ES64L-G16RevB.01 20-Dec-2017

 -----------------------------
 #p b3lyp/6-31g(d) opt SCF=XQC
 -----------------------------

 ------------------------------
 Gaussian input prepared by ASE
 ------------------------------
 Symbolic Z-matrix:
 Charge =  0 Multiplicity = 1

 SCF Done:  E(RB3LYP) =  -2534.57549988     A.U. after   16 cycles
 SCF Done:  E(RB3LYP) =  -2534.59112166     A.U. after   13 cycles
 SCF Done:  E(RB3LYP) =  -2534.59156106     A.U. after   12 cycles
 SCF Done:  E(RB3LYP) =  -2534.59203638     A.U. after   12 cycles
 SCF Done:  E(RB3LYP) =  -2534.59251900     A.U. after   11 cycles
 SCF Done:  E(RB3LYP) =  -2534.59257849     A.U. after   10 cycles
 SCF Done:  E(RB3LYP) =  -2534.59260877     A.U. after   10 cycles
 SCF Done:  E(RB3LYP) =  -2534.59261121     A.U. after    8 cycles
 SCF Done:  E(RB3LYP) =  -2534.59261183     A.U. after    7 cycles
 SCF Done:  E(RB3LYP) =  -2534.59261191     A.U. after    6 cycles
 SCF Done:  E(RB3LYP) =  -2534.59261196     A.U. after    6 cycles
 SCF Done:  E(RB3LYP) =  -2534.59261198     A.U. after    6 cycles
 SCF Done:  E(RB3LYP) =  -2534.59261199     A.U. after    6 cycles
 Optimization completed.
    -- Stationary point found.

                         Standard orientation:
 ---------------------------------------------------------------------
 Center     Atomic      Atomic             Coordinates (Angstroms)
 Number     Number       Type             X           Y           Z
 ---------------------------------------------------------------------
      1          6           0        8.270807   -1.997402    2.557503
      2          6           0        8.174922   -2.359024    1.058374
      3          6           0        7.107732   -3.456784    0.848696
      4          6           0        9.532448   -2.786429    0.499361
      5          6           0       10.331922   -3.858921    0.877095
      6          6           0       11.551942   -4.066421    0.221514
      7          6           0       11.963445   -3.205041   -0.800676
      8          6           0       11.165634   -2.124633   -1.184430
      9          6           0        9.948460   -1.918364   -0.531124
     10          6           0        8.921087   -0.887840   -0.712418
     11          6           0        8.845076    0.199415   -1.586093
     12          6           0        7.729566    1.032819   -1.547421
     13          6           0        6.689381    0.804285   -0.627661
     14          7           0        5.561410    1.669514   -0.595027
     15          6           0        5.747537    3.077836   -0.674252
     16          6           0        4.894136    3.866219   -1.463373
     17          6           0        5.078493    5.245403   -1.535263
     18          6           0        6.122615    5.860318   -0.840422
     19          6           0        6.978092    5.077748   -0.062381
     20          6           0        6.790672    3.699696    0.030394
     21          6           0        4.259964    1.127793   -0.438494
     22          6           0        3.892669   -0.053503   -1.117064
     23          6           0        2.617529   -0.561935   -0.981191
     24          6           0        1.635327    0.062841   -0.176946
     25          6           0        2.010316    1.239602    0.526707
     26          6           0        3.315256    1.747580    0.374237
     27          6           0        1.051315    1.842977    1.451717
     28          6           0        1.442863    2.836960    2.375404
     29          6           0        0.576413    3.321804    3.338940
     30          6           0       -0.713750    2.784681    3.437032
     31          6           0       -1.129069    1.824085    2.531520
     32          6           0       -0.292593    1.368208    1.482912
     33          6           0       -0.732038    0.346342    0.530061
     34          6           0       -2.126835    0.052584    0.264455
     35          6           0       -3.198635    0.951214    0.526789
     36          6           0       -4.511734    0.627124    0.265853
     37          6           0       -4.855556   -0.629247   -0.295637
     38          7           0       -6.217678   -0.959981   -0.515342
     39          6           0       -6.664874   -2.307457   -0.401516
     40          6           0       -6.258102   -3.098313    0.684892
     41          6           0       -6.701254   -4.413128    0.798748
     42          6           0       -7.568594   -4.957015   -0.152770
     43          6           0       -7.981607   -4.168898   -1.227154
     44          6           0       -7.528072   -2.856652   -1.359943
     45          6           0       -7.092829    0.021564   -1.043888
     46          6           0       -6.723034    0.864804   -2.103118
     47          6           0       -7.588319    1.848638   -2.602134
     48          6           0       -8.869535    2.019663   -2.082489
     49          6           0       -9.270774    1.186148   -1.031842
     50          6           0       -8.380065    0.220362   -0.528955
     51          8           0       -8.929464   -0.488089    0.512643
     52          6           0      -10.196178    0.020487    0.690215
     53          6           0      -11.102764   -0.415515    1.646258
     54          6           0      -12.341463    0.227688    1.672280
     55          6           0      -12.646151    1.263349    0.772574
     56          6           0      -11.719581    1.685053   -0.179413
     57          6           0      -10.471047    1.053927   -0.224133
     58          6           0       -3.829618   -1.494136   -0.641342
     59          6           0       -2.476109   -1.167822   -0.397643
     60          6           0       -1.433210   -2.014052   -0.871394
     61          6           0       -0.129739   -1.616883   -0.797399
     62          6           0        0.255151   -0.409054   -0.136256
     63          6           0        6.774074   -0.287294    0.257657
     64          6           0        7.877414   -1.126491    0.203508
     65          1           0        7.306977   -1.632572    2.931135
     66          1           0        9.021196   -1.218754    2.727769
     67          1           0        8.549725   -2.876444    3.150053
     68          1           0        7.363834   -4.358511    1.416981
     69          1           0        6.124602   -3.111870    1.189398
     70          1           0        7.027095   -3.730959   -0.208083
     71          1           0       10.020730   -4.534044    1.671163
     72          1           0       12.183318   -4.902826    0.509327
     73          1           0       12.912830   -3.377513   -1.300908
     74          1           0       11.491475   -1.457894   -1.978978
     75          1           0        9.636991    0.394713   -2.304806
     76          1           0        7.653060    1.871228   -2.232216
     77          1           0        4.089447    3.391642   -2.015867
     78          1           0        4.408576    5.839954   -2.150933
     79          1           0        6.267454    6.934943   -0.904943
     80          1           0        7.791085    5.542218    0.489656
     81          1           0        7.450540    3.097364    0.646622
     82          1           0        4.610366   -0.546574   -1.764241
     83          1           0        2.365847   -1.445921   -1.555149
     84          1           0        3.607586    2.654091    0.888615
     85          1           0        2.460584    3.209609    2.363767
     86          1           0        0.913116    4.080864    4.039653
     87          1           0       -1.382131    3.100466    4.233489
     88          1           0       -2.103818    1.373304    2.664473
     89          1           0       -2.985311    1.942065    0.906988
     90          1           0       -5.295927    1.345493    0.481015
     91          1           0       -5.599394   -2.674610    1.436008
     92          1           0       -6.377850   -5.011601    1.646516
     93          1           0       -7.918178   -5.980926   -0.055516
     94          1           0       -8.652419   -4.577933   -1.978220
     95          1           0       -7.840331   -2.253995   -2.207098
     96          1           0       -5.734943    0.744634   -2.535821
     97          1           0       -7.250312    2.477931   -3.420461
     98          1           0       -9.535502    2.780437   -2.478571
     99          1           0      -10.852454   -1.217034    2.333066
    100          1           0      -13.083553   -0.080488    2.403326
    101          1           0      -13.620115    1.741821    0.821469
    102          1           0      -11.962786    2.486629   -0.871365
    103          1           0       -4.057914   -2.435141   -1.132476
    104          1           0       -1.695312   -2.956773   -1.345200
    105          1           0        0.632580   -2.259461   -1.221828
    106          1           0        5.974069   -0.455337    0.972847
 ---------------------------------------------------------------------

 The electronic state is 1-A.
 Alpha  occ. eigenvalues --  -19.20875 -14.36718 -14.36496 -10.24808 -10.24712
 Alpha  occ. eigenvalues --  -10.23542 -10.22925 -10.22891 -10.22887 -10.22886
 Alpha  occ. eigenvalues --  -10.22660 -10.20562 -10.20070 -10.20066 -10.19939
 Alpha  occ. eigenvalues --  -10.19915 -10.19899 -10.19823 -10.19765 -10.19764
 Alpha  occ. eigenvalues --  -10.19714 -10.19628 -10.19600 -10.19569 -10.19556
 Alpha  occ. eigenvalues --  -10.19535 -10.19374 -10.19236 -10.19114 -10.19026
 Alpha  occ. eigenvalues --  -10.19018 -10.19005 -10.18979 -10.18875 -10.18860
 Alpha  occ. eigenvalues --  -10.18825 -10.18756 -10.18726 -10.18724 -10.18722
 Alpha  occ. eigenvalues --  -10.18721 -10.18719 -10.18716 -10.18710 -10.18704
 Alpha  occ. eigenvalues --  -10.18701 -10.18684 -10.18653 -10.18648 -10.18636
 Alpha  occ. eigenvalues --  -10.18628 -10.18624 -10.18597 -10.18595 -10.18555
 Alpha  occ. eigenvalues --  -10.18521 -10.18475 -10.18473 -10.18432 -10.18418
 Alpha  occ. eigenvalues --  -10.18402 -10.18279 -10.17861 -10.17846  -1.10541
 Alpha  occ. eigenvalues --   -0.96523  -0.96399  -0.88544  -0.88381  -0.86296
 Alpha  occ. eigenvalues --   -0.86096  -0.85445  -0.84999  -0.84468  -0.84146
 Alpha  occ. eigenvalues --   -0.83350  -0.81764  -0.80692  -0.78671  -0.78498
 Alpha  occ. eigenvalues --   -0.77487  -0.77239  -0.76510  -0.76008  -0.74650
 Alpha  occ. eigenvalues --   -0.74465  -0.74427  -0.74153  -0.73947  -0.73588
 Alpha  occ. eigenvalues --   -0.73135  -0.72812  -0.72648  -0.71933  -0.71203
 Alpha  occ. eigenvalues --   -0.70662  -0.69095  -0.68542  -0.65137  -0.64435
 Alpha  occ. eigenvalues --   -0.64006  -0.63301  -0.62933  -0.62473  -0.61951
 Alpha  occ. eigenvalues --   -0.61253  -0.61071  -0.60399  -0.60116  -0.59547
 Alpha  occ. eigenvalues --   -0.59224  -0.58600  -0.58462  -0.57927  -0.57234
 Alpha  occ. eigenvalues --   -0.56917  -0.55745  -0.54798  -0.53693  -0.53356
 Alpha  occ. eigenvalues --   -0.52955  -0.52685  -0.52176  -0.51143  -0.50717
 Alpha  occ. eigenvalues --   -0.50426  -0.49798  -0.49425  -0.48963  -0.48534
 Alpha  occ. eigenvalues --   -0.47808  -0.47484  -0.47147  -0.46313  -0.46157
 Alpha  occ. eigenvalues --   -0.46087  -0.45853  -0.45718  -0.45042  -0.44797
 Alpha  occ. eigenvalues --   -0.44530  -0.44377  -0.44200  -0.43782  -0.43658
 Alpha  occ. eigenvalues --   -0.43517  -0.43316  -0.43032  -0.42847  -0.42818
 Alpha  occ. eigenvalues --   -0.42783  -0.42576  -0.42453  -0.42075  -0.41962
 Alpha  occ. eigenvalues --   -0.41748  -0.41711  -0.41473  -0.41208  -0.40590
 Alpha  occ. eigenvalues --   -0.40298  -0.39774  -0.39126  -0.38992  -0.38657
 Alpha  occ. eigenvalues --   -0.38161  -0.38122  -0.37792  -0.37586  -0.37273
 Alpha  occ. eigenvalues --   -0.37245  -0.36917  -0.36675  -0.36279  -0.36218
 Alpha  occ. eigenvalues --   -0.35965  -0.35871  -0.35654  -0.35602  -0.35334
 Alpha  occ. eigenvalues --   -0.35224  -0.35115  -0.35068  -0.34501  -0.34375
 Alpha  occ. eigenvalues --   -0.34131  -0.34102  -0.33941  -0.33823  -0.33616
 Alpha  occ. eigenvalues --   -0.32405  -0.31983  -0.31631  -0.31530  -0.30889
 Alpha  occ. eigenvalues --   -0.30112  -0.29103  -0.28393  -0.28055  -0.27265
 Alpha  occ. eigenvalues --   -0.26462  -0.26016  -0.25244  -0.25155  -0.24552
 Alpha  occ. eigenvalues --   -0.24538  -0.24129  -0.23803  -0.23057  -0.22417
 Alpha  occ. eigenvalues --   -0.22233  -0.21727  -0.20391  -0.18652  -0.17237
 Alpha virt. eigenvalues --   -0.04841  -0.03801  -0.03400  -0.02968  -0.02450
 Alpha virt. eigenvalues --   -0.00819  -0.00726  -0.00344   0.00194   0.00205
 Alpha virt. eigenvalues --    0.00665   0.01011   0.01319   0.01799   0.02833

 Mulliken charges:
               1
     1  C   -0.437677
     2  C   -0.062301
     3  C   -0.438023
     4  C    0.101770
     5  C   -0.203682
     6  C   -0.132660
     7  C   -0.136367
     8  C   -0.193976
     9  C    0.079743
    10  C    0.084379
    11  C   -0.204718
    12  C   -0.177263
    13  C    0.288987
    14  N   -0.665778
    15  C    0.275999
    16  C   -0.160486
    17  C   -0.140057
    18  C   -0.128359
    19  C   -0.140349
    20  C   -0.163891
    21  C    0.310693
    22  C   -0.173121
    23  C   -0.211439
    24  C    0.062127
    25  C    0.084363
    26  C   -0.277999
    27  C    0.051845
    28  C   -0.193556
    29  C   -0.135121
    30  C   -0.134530
    31  C   -0.219451
    32  C    0.076199
    33  C   -0.018420
    34  C    0.059096
    35  C   -0.219602
    36  C   -0.172759
    37  C    0.298971
    38  N   -0.662014
    39  C    0.302889
    40  C   -0.152329
    41  C   -0.141497
    42  C   -0.128031
    43  C   -0.138350
    44  C   -0.172454
    45  C    0.196634
    46  C   -0.178174
    47  C   -0.152563
    48  C   -0.191953
    49  C    0.097451
    50  C    0.293278
    51  O   -0.548250
    52  C    0.328796
    53  C   -0.201740
    54  C   -0.137273
    55  C   -0.144512
    56  C   -0.191486
    57  C    0.071063
    58  C   -0.273126
    59  C    0.150606
    60  C   -0.199953
    61  C   -0.195270
    62  C    0.072935
    63  C   -0.254756
    64  C    0.097995
    65  H    0.146293
    66  H    0.156415
    67  H    0.144397
    68  H    0.144311
    69  H    0.147964
    70  H    0.155653
    71  H    0.123455
    72  H    0.125794
    73  H    0.126595
    74  H    0.127030
    75  H    0.131584
    76  H    0.143250
    77  H    0.145175
    78  H    0.132574
    79  H    0.127931
    80  H    0.131561
    81  H    0.144100
    82  H    0.144638
    83  H    0.135077
    84  H    0.151174
    85  H    0.136979
    86  H    0.129342
    87  H    0.129456
    88  H    0.153230
    89  H    0.154473
    90  H    0.144663
    91  H    0.143334
    92  H    0.130182
    93  H    0.126004
    94  H    0.130122
    95  H    0.141162
    96  H    0.147450
    97  H    0.133344
    98  H    0.133551
    99  H    0.150630
   100  H    0.134053
   101  H    0.130608
   102  H    0.135577
   103  H    0.144297
   104  H    0.130245
   105  H    0.134274
   106  H    0.141553
 Sum of Mulliken charges =  -0.00000

 Dipole moment (field-independent basis, Debye):
    X=             -0.6889    Y=              0.4531    Z=             -0.1093  Tot=              0.8318
 Quadrupole moment (field-independent basis, Debye-Ang):
   XX=           -326.2610   YY=           -340.6223   ZZ=           -352.3298
   XY=             -4.3732   XZ=              0.9060   YZ=             -3.1663

 Normal termination of Gaussian 16 at Sat Nov  5 01:14:36 2022.
