 Gaussian 16, Revision B.01,
 Gaussian 16:  ES64L-G16RevB.01 20-Dec-2017

 -------------------------------------------------------------------
 #p b3lyp/6-31g(d) 6D 10F nosymm GFInput td=(50-50,nstate=2) SCF=XQC
 -------------------------------------------------------------------

 ------------------------------
 Gaussian input prepared by ASE
 ------------------------------
 Symbolic Z-matrix:
 Charge =  0 Multiplicity = 1

                          Input orientation:
 ---------------------------------------------------------------------
 Center     Atomic      Atomic             Coordinates (Angstroms)
 Number     Number       Type             X           Y           Z
 ---------------------------------------------------------------------
      1          6           0       -8.038076   -2.756225   -1.322003
      2          6           0       -7.954747   -2.241638    0.132510
      3          6           0       -6.926574   -3.076695    0.928424
      4          6           0       -9.326332   -2.253661    0.808273
      5          6           0      -10.162858   -3.334118    1.063068
      6          6           0      -11.389322   -3.113371    1.702088
      7          6           0      -11.770352   -1.821541    2.079146
      8          6           0      -10.935211   -0.731120    1.825032
      9          6           0       -9.711633   -0.951569    1.188535
     10          6           0       -8.648836   -0.020351    0.796568
     11          6           0       -8.534765    1.364930    0.935110
     12          6           0       -7.390799    2.008330    0.468423
     13          6           0       -6.359333    1.283556   -0.156838
     14          7           0       -5.201800    1.956521   -0.635629
     15          6           0       -5.338559    3.183586   -1.342665
     16          6           0       -4.458034    4.249770   -1.096735
     17          6           0       -4.594044    5.448392   -1.793951
     18          6           0       -5.616095    5.613439   -2.731655
     19          6           0       -6.498490    4.558240   -2.971525
     20          6           0       -6.359381    3.349052   -2.292355
     21          6           0       -3.920108    1.379505   -0.445775
     22          6           0       -3.594278    0.751545    0.775014
     23          6           0       -2.337710    0.214453    0.963467
     24          6           0       -1.334341    0.268483   -0.032629
     25          6           0       -1.668022    0.879155   -1.272084
     26          6           0       -2.954385    1.425820   -1.446962
     27          6           0       -0.688600    0.849909   -2.358024
     28          6           0       -1.045243    1.187798   -3.682089
     29          6           0       -0.162464    1.041024   -4.737252
     30          6           0        1.108118    0.500151   -4.501202
     31          6           0        1.489683    0.179557   -3.210149
     32          6           0        0.637881    0.396217   -2.099029
     33          6           0        1.041420    0.049547   -0.734396
     34          6           0        2.425118   -0.091859   -0.324906
     35          6           0        3.527659    0.485063   -1.015320
     36          6           0        4.828649    0.318122   -0.594715
     37          6           0        5.128383   -0.435998    0.568649
     38          7           0        6.478129   -0.632487    0.959302
     39          6           0        6.877922   -1.835227    1.609083
     40          6           0        6.443637   -3.079179    1.124132
     41          6           0        6.840530   -4.254490    1.755959
     42          6           0        7.688415   -4.214537    2.866351
     43          6           0        8.128840   -2.979636    3.342852
     44          6           0        7.721482   -1.795814    2.728083
     45          6           0        7.387120    0.452145    0.881915
     46          6           0        7.047142    1.747836    1.300692
     47          6           0        7.946349    2.818521    1.197146
     48          6           0        9.232710    2.639814    0.693030
     49          6           0        9.604454    1.356033    0.276721
     50          6           0        8.680468    0.299075    0.366678
     51          8           0        9.204655   -0.879467   -0.107596
     52          6           0       10.488361   -0.588240   -0.510128
     53          6           0       11.379052   -1.502518   -1.054902
     54          6           0       12.639482   -1.014943   -1.404687
     55          6           0       12.980288    0.334703   -1.211795
     56          6           0       12.069125    1.235387   -0.662981
     57          6           0       10.799290    0.768431   -0.304332
     58          6           0        4.072863   -0.940436    1.311288
     59          6           0        2.731569   -0.761021    0.903128
     60          6           0        1.659764   -1.179315    1.742442
     61          6           0        0.370970   -0.849267    1.438574
     62          6           0        0.028485   -0.189060    0.217536
     63          6           0       -6.482232   -0.111455   -0.302930
     64          6           0       -7.614237   -0.751595    0.180113
     65          1           0       -7.062115   -2.683615   -1.815863
     66          1           0       -8.760795   -2.175889   -1.904457
     67          1           0       -8.347620   -3.807592   -1.342875
     68          1           0       -7.214108   -4.134439    0.940701
     69          1           0       -5.932019   -3.003303    0.473386
     70          1           0       -6.855470   -2.730443    1.964528
     71          1           0       -9.875542   -4.342402    0.773264
     72          1           0      -12.049588   -3.952053    1.906313
     73          1           0      -12.725138   -1.664394    2.574120
     74          1           0      -11.237460    0.270843    2.119542
     75          1           0       -9.319296    1.944651    1.414958
     76          1           0       -7.284955    3.082091    0.584876
     77          1           0       -3.670377    4.131301   -0.359471
     78          1           0       -3.903686    6.262918   -1.590770
     79          1           0       -5.723261    6.552062   -3.267809
     80          1           0       -7.294799    4.668746   -3.703042
     81          1           0       -7.039969    2.527416   -2.491558
     82          1           0       -4.328714    0.714041    1.572662
     83          1           0       -2.117036   -0.218589    1.931961
     84          1           0       -3.214889    1.911487   -2.378664
     85          1           0       -2.049310    1.535787   -3.895424
     86          1           0       -0.472488    1.302712   -5.745193
     87          1           0        1.787054    0.309128   -5.327853
     88          1           0        2.448060   -0.298894   -3.056485
     89          1           0        3.349076    1.112366   -1.879291
     90          1           0        5.637461    0.778464   -1.152583
     91          1           0        5.800073   -3.116193    0.251176
     92          1           0        6.496313   -5.209406    1.367215
     93          1           0        8.001972   -5.134639    3.351281
     94          1           0        8.785014   -2.930733    4.207978
     95          1           0        8.054708   -0.837406    3.113813
     96          1           0        6.055496    1.912941    1.709807
     97          1           0        7.630635    3.802517    1.531800
     98          1           0        9.924912    3.473421    0.621444
     99          1           0       11.100800   -2.541419   -1.196515
    100          1           0       13.370270   -1.694388   -1.834106
    101          1           0       13.970383    0.679710   -1.495723
    102          1           0       12.340279    2.277357   -0.517229
    103          1           0        4.268164   -1.465798    2.241167
    104          1           0        1.888788   -1.716582    2.659396
    105          1           0       -0.413310   -1.132381    2.130619
    106          1           0       -5.688664   -0.666685   -0.794571
 ---------------------------------------------------------------------

 SCF Done:  E(RB3LYP) =  -2534.59259932     A.U. after   15 cycles

 Excitation energies and oscillator strengths:

 Excited state symmetry could not be determined.
 Excited State   1:      Triplet-?Sym    2.2492 eV  551.25 nm  f=0.0000  <S**2>=2.000
     213 -> 216       -0.30547
     214 -> 216        0.14230
     215 -> 216        0.54754
 This state for optimization and/or second-order correction.
 Total Energy, E(TD-HF/TD-DFT) =  -2534.50994409
 Copying the excited state density for this state as the 1-particle RhoCI density.

 Excited state symmetry could not be determined.
 Excited State   2:      Triplet-?Sym    2.6895 eV  461.00 nm  f=0.0000  <S**2>=2.000
     210 -> 219        0.10940
     212 -> 219       -0.13044
     213 -> 216        0.13199
     214 -> 216       -0.21172
     214 -> 218       -0.11900
     214 -> 219       -0.23267
     215 -> 217        0.20129
     215 -> 218        0.23453
     215 -> 219        0.38864

 Excited state symmetry could not be determined.
 Excited State   3:      Singlet-?Sym    2.9469 eV  420.73 nm  f=0.5994  <S**2>=0.000
     215 -> 216        0.69161

 Excited state symmetry could not be determined.
 Excited State   4:      Singlet-?Sym    3.1759 eV  390.39 nm  f=0.4327  <S**2>=0.000
     213 -> 216       -0.13715
     215 -> 217        0.59302
     215 -> 218        0.30613

 Alpha  occ. eigenvalues --  -19.20875 -14.36718 -14.36496 -10.24808 -10.24712
 Alpha  occ. eigenvalues --  -10.23542 -10.22925 -10.22891 -10.22887 -10.22886
 Alpha  occ. eigenvalues --  -10.22660 -10.20562 -10.20070 -10.20066 -10.19939
 Alpha  occ. eigenvalues --  -10.19915 -10.19899 -10.19823 -10.19764 -10.19764
 Alpha  occ. eigenvalues --  -10.19714 -10.19628 -10.19600 -10.19569 -10.19556
 Alpha  occ. eigenvalues --  -10.19535 -10.19374 -10.19236 -10.19114 -10.19026
 Alpha  occ. eigenvalues --  -10.19018 -10.19005 -10.18979 -10.18875 -10.18860
 Alpha  occ. eigenvalues --  -10.18825 -10.18756 -10.18726 -10.18724 -10.18722
 Alpha  occ. eigenvalues --  -10.18721 -10.18719 -10.18716 -10.18710 -10.18704
 Alpha  occ. eigenvalues --  -10.18701 -10.18684 -10.18653 -10.18648 -10.18636
 Alpha  occ. eigenvalues --  -10.18628 -10.18624 -10.18597 -10.18595 -10.18555
 Alpha  occ. eigenvalues --  -10.18521 -10.18475 -10.18473 -10.18431 -10.18418
 Alpha  occ. eigenvalues --  -10.18402 -10.18279 -10.17861 -10.17846  -1.10541
 Alpha  occ. eigenvalues --   -0.96523  -0.96399  -0.88544  -0.88381  -0.86296
 Alpha  occ. eigenvalues --   -0.86096  -0.85445  -0.84999  -0.84468  -0.84146
 Alpha  occ. eigenvalues --   -0.83350  -0.81764  -0.80692  -0.78671  -0.78498
 Alpha  occ. eigenvalues --   -0.77487  -0.77239  -0.76510  -0.76008  -0.74650
 Alpha  occ. eigenvalues --   -0.74465  -0.74427  -0.74153  -0.73947  -0.73588
 Alpha  occ. eigenvalues --   -0.73135  -0.72811  -0.72648  -0.71933  -0.71203
 Alpha  occ. eigenvalues --   -0.70662  -0.69095  -0.68542  -0.65137  -0.64435
 Alpha  occ. eigenvalues --   -0.64006  -0.63301  -0.62933  -0.62473  -0.61951
 Alpha  occ. eigenvalues --   -0.61253  -0.61071  -0.60398  -0.60116  -0.59546
 Alpha  occ. eigenvalues --   -0.59224  -0.58600  -0.58462  -0.57927  -0.57234
 Alpha  occ. eigenvalues --   -0.56916  -0.55745  -0.54798  -0.53693  -0.53356
 Alpha  occ. eigenvalues --   -0.52955  -0.52685  -0.52176  -0.51143  -0.50717
 Alpha  occ. eigenvalues --   -0.50426  -0.49798  -0.49425  -0.48963  -0.48534
 Alpha  occ. eigenvalues --   -0.47808  -0.47484  -0.47147  -0.46313  -0.46157
 Alpha  occ. eigenvalues --   -0.46087  -0.45853  -0.45718  -0.45042  -0.44797
 Alpha  occ. eigenvalues --   -0.44530  -0.44377  -0.44200  -0.43782  -0.43658
 Alpha  occ. eigenvalues --   -0.43517  -0.43316  -0.43032  -0.42847  -0.42818
 Alpha  occ. eigenvalues --   -0.42783  -0.42576  -0.42453  -0.42075  -0.41962
 Alpha  occ. eigenvalues --   -0.41748  -0.41711  -0.41473  -0.41207  -0.40590
 Alpha  occ. eigenvalues --   -0.40298  -0.39774  -0.39126  -0.38992  -0.38657
 Alpha  occ. eigenvalues --   -0.38161  -0.38122  -0.37792  -0.37586  -0.37273
 Alpha  occ. eigenvalues --   -0.37245  -0.36917  -0.36675  -0.36279  -0.36218
 Alpha  occ. eigenvalues --   -0.35965  -0.35871  -0.35654  -0.35602  -0.35334
 Alpha  occ. eigenvalues --   -0.35224  -0.35115  -0.35068  -0.34501  -0.34375
 Alpha  occ. eigenvalues --   -0.34131  -0.34102  -0.33941  -0.33823  -0.33616
 Alpha  occ. eigenvalues --   -0.32405  -0.31983  -0.31631  -0.31530  -0.30888
 Alpha  occ. eigenvalues --   -0.30112  -0.29103  -0.28393  -0.28055  -0.27265
 Alpha  occ. eigenvalues --   -0.26462  -0.26016  -0.25244  -0.25155  -0.24552
 Alpha  occ. eigenvalues --   -0.24538  -0.24129  -0.23803  -0.23057  -0.22417
 Alpha  occ. eigenvalues --   -0.22233  -0.21727  -0.20391  -0.18652  -0.17237
 Alpha virt. eigenvalues --   -0.04841  -0.03801  -0.03399  -0.02968  -0.02450
 Alpha virt. eigenvalues --   -0.00819  -0.00726  -0.00344   0.00194   0.00205
 Alpha virt. eigenvalues --    0.00665   0.01011   0.01319   0.01799   0.02833

 Mulliken charges:
               1
     1  C   -0.437670
     2  C   -0.062316
     3  C   -0.438016
     4  C    0.101763
     5  C   -0.203679
     6  C   -0.132653
     7  C   -0.136386
     8  C   -0.193961
     9  C    0.079762
    10  C    0.084362
    11  C   -0.204716
    12  C   -0.177262
    13  C    0.288997
    14  N   -0.665800
    15  C    0.275990
    16  C   -0.160484
    17  C   -0.140057
    18  C   -0.128366
    19  C   -0.140340
    20  C   -0.163885
    21  C    0.310716
    22  C   -0.173138
    23  C   -0.211435
    24  C    0.062123
    25  C    0.084369
    26  C   -0.278008
    27  C    0.051840
    28  C   -0.193559
    29  C   -0.135115
    30  C   -0.134531
    31  C   -0.219457
    32  C    0.076212
    33  C   -0.018426
    34  C    0.059140
    35  C   -0.219608
    36  C   -0.172755
    37  C    0.298981
    38  N   -0.662028
    39  C    0.302908
    40  C   -0.152325
    41  C   -0.141502
    42  C   -0.128036
    43  C   -0.138350
    44  C   -0.172450
    45  C    0.196640
    46  C   -0.178171
    47  C   -0.152559
    48  C   -0.191957
    49  C    0.097431
    50  C    0.293277
    51  O   -0.548253
    52  C    0.328811
    53  C   -0.201747
    54  C   -0.137276
    55  C   -0.144501
    56  C   -0.191487
    57  C    0.071063
    58  C   -0.273141
    59  C    0.150562
    60  C   -0.199941
    61  C   -0.195267
    62  C    0.072928
    63  C   -0.254743
    64  C    0.097988
    65  H    0.146293
    66  H    0.156414
    67  H    0.144397
    68  H    0.144311
    69  H    0.147963
    70  H    0.155651
    71  H    0.123454
    72  H    0.125794
    73  H    0.126597
    74  H    0.127029
    75  H    0.131584
    76  H    0.143248
    77  H    0.145177
    78  H    0.132574
    79  H    0.127931
    80  H    0.131560
    81  H    0.144099
    82  H    0.144644
    83  H    0.135076
    84  H    0.151178
    85  H    0.136978
    86  H    0.129341
    87  H    0.129457
    88  H    0.153229
    89  H    0.154471
    90  H    0.144662
    91  H    0.143334
    92  H    0.130181
    93  H    0.126004
    94  H    0.130121
    95  H    0.141161
    96  H    0.147450
    97  H    0.133343
    98  H    0.133551
    99  H    0.150630
   100  H    0.134053
   101  H    0.130607
   102  H    0.135578
   103  H    0.144302
   104  H    0.130245
   105  H    0.134275
   106  H    0.141551
 Sum of Mulliken charges =  -0.00000

 Dipole moment (field-independent basis, Debye):
    X=              0.7044    Y=              0.4186    Z=             -0.1431  Tot=              0.8318
 Quadrupole moment (field-independent basis, Debye-Ang):
   XX=           -325.5533   YY=           -341.3987   ZZ=           -351.7490
   XY=              3.9617   XZ=             -1.3871   YZ=             -4.0291

 Normal termination of Gaussian 16 at Sat Nov  5 11:37:13 2022.
