 Gaussian 16, Revision B.01,
 Gaussian 16:  ES64L-G16RevB.01 20-Dec-2017

 -----------------------------
 #p b3lyp/6-31g(d) opt SCF=XQC
 -----------------------------

 ------------------------------
 Gaussian input prepared by ASE
 ------------------------------
 Symbolic Z-matrix:
 Charge =  0 Multiplicity = 1

 SCF Done:  E(RB3LYP) =  -1602.50557247     A.U. after   15 cycles
 SCF Done:  E(RB3LYP) =  -1602.51560959     A.U. after   13 cycles
 SCF Done:  E(RB3LYP) =  -1602.51628134     A.U. after   11 cycles
 SCF Done:  E(RB3LYP) =  -1602.51644801     A.U. after   11 cycles
 SCF Done:  E(RB3LYP) =  -1602.51651221     A.U. after   10 cycles
 SCF Done:  E(RB3LYP) =  -1602.51655923     A.U. after   10 cycles
 SCF Done:  E(RB3LYP) =  -1602.51657082     A.U. after    9 cycles
 SCF Done:  E(RB3LYP) =  -1602.51657707     A.U. after    9 cycles
 SCF Done:  E(RB3LYP) =  -1602.51661161     A.U. after    9 cycles
 SCF Done:  E(RB3LYP) =  -1602.51666474     A.U. after   11 cycles
 SCF Done:  E(RB3LYP) =  -1602.51687457     A.U. after    8 cycles
 SCF Done:  E(RB3LYP) =  -1602.51687485     A.U. after    9 cycles
 SCF Done:  E(RB3LYP) =  -1602.51687507     A.U. after    9 cycles
 SCF Done:  E(RB3LYP) =  -1602.51687529     A.U. after    9 cycles
 SCF Done:  E(RB3LYP) =  -1602.51687546     A.U. after    9 cycles
 SCF Done:  E(RB3LYP) =  -1602.51687555     A.U. after    7 cycles
 SCF Done:  E(RB3LYP) =  -1602.51687558     A.U. after    7 cycles
 SCF Done:  E(RB3LYP) =  -1602.51687559     A.U. after    6 cycles
 SCF Done:  E(RB3LYP) =  -1602.51687559     A.U. after    6 cycles
 SCF Done:  E(RB3LYP) =  -1602.51687559     A.U. after    6 cycles
 Optimization completed.
    -- Stationary point found.

                         Standard orientation:
 ---------------------------------------------------------------------
 Center     Atomic      Atomic             Coordinates (Angstroms)
 Number     Number       Type             X           Y           Z
 ---------------------------------------------------------------------
      1          6           0       -0.114741    7.160980   -0.499953
      2          6           0       -0.095777    5.654367   -0.387239
      3          6           0        0.451137    4.862577   -1.406074
      4          6           0        0.478929    3.477666   -1.287581
      5          6           0       -0.030247    2.843624   -0.145629
      6          7           0        0.019214    1.412819   -0.058436
      7          6           0        1.274175    0.769885   -0.198313
      8          6           0        1.419761   -0.421162   -0.928840
      9          6           0        2.666381   -1.023385   -1.050964
     10          6           0        3.823962   -0.471392   -0.471084
     11          6           0        5.104034   -1.159748   -0.636986
     12          6           0        6.279470   -0.856394   -0.045506
     13          6           0        7.553787   -1.554957   -0.270698
     14          6           0        7.806016   -2.194061   -1.498223
     15          6           0        9.005521   -2.855743   -1.724980
     16          6           0        9.981323   -2.873202   -0.730189
     17          6           0        9.772402   -2.236778    0.499583
     18          6           0       10.872857   -2.283066    1.539679
     19          6           0        8.550322   -1.575108    0.738928
     20          6           0        8.283189   -0.899766    2.068874
     21          6           0        3.665487    0.734765    0.240725
     22          6           0        2.424525    1.337745    0.382249
     23          6           0       -1.190221    0.679716   -0.023182
     24          6           0       -1.278369   -0.547261    0.658169
     25          6           0       -2.477802   -1.245554    0.699242
     26          6           0       -3.649903   -0.755497    0.090818
     27          6           0       -4.886379   -1.530956    0.189044
     28          6           0       -6.127970   -1.135906   -0.166209
     29          6           0       -7.341826   -1.962349   -0.089171
     30          6           0       -7.255143   -3.362542   -0.193040
     31          6           0       -8.393132   -4.155069   -0.122746
     32          6           0       -9.641235   -3.555578    0.035185
     33          6           0       -9.769208   -2.164166    0.128372
     34          6           0      -11.152956   -1.569566    0.291576
     35          6           0       -8.614672   -1.356510    0.071010
     36          6           0       -8.716764    0.150217    0.195431
     37          6           0       -3.547007    0.474898   -0.586456
     38          6           0       -2.349993    1.176039   -0.647372
     39          6           0       -0.573682    3.614831    0.901113
     40          6           0       -1.110107    2.982342    2.161853
     41          6           0       -0.599782    5.007085    0.744977
     42          1           0        0.884234    7.586700   -0.336680
     43          1           0       -0.787282    7.609818    0.237934
     44          1           0       -0.441976    7.484200   -1.495026
     45          1           0        0.848834    5.332475   -2.302816
     46          1           0        0.896016    2.867058   -2.083114
     47          1           0        0.554154   -0.870561   -1.403844
     48          1           0        2.751252   -1.944568   -1.623348
     49          1           0        5.068457   -2.024709   -1.298894
     50          1           0        6.303802   -0.036574    0.668409
     51          1           0        7.061469   -2.140579   -2.286938
     52          1           0        9.189254   -3.341923   -2.679558
     53          1           0       10.926244   -3.380793   -0.909239
     54          1           0       10.557948   -2.805476    2.452034
     55          1           0       11.749059   -2.809403    1.148906
     56          1           0       11.198884   -1.280014    1.840931
     57          1           0        8.273532    0.195329    1.974201
     58          1           0        9.039558   -1.148936    2.815010
     59          1           0        7.309783   -1.192755    2.477425
     60          1           0        4.528621    1.211922    0.695792
     61          1           0        2.335077    2.263526    0.941624
     62          1           0       -0.402527   -0.947123    1.158617
     63          1           0       -2.518185   -2.190253    1.237038
     64          1           0       -4.765462   -2.522406    0.624813
     65          1           0       -6.262851   -0.120313   -0.530643
     66          1           0       -6.285985   -3.822925   -0.360565
     67          1           0       -8.312574   -5.235574   -0.208522
     68          1           0      -10.535359   -4.173001    0.078949
     69          1           0      -11.396172   -0.862832   -0.511259
     70          1           0      -11.913355   -2.356368    0.277655
     71          1           0      -11.261023   -1.027539    1.239729
     72          1           0       -8.007749    0.539062    0.934641
     73          1           0       -9.714792    0.470397    0.499270
     74          1           0       -8.493715    0.652837   -0.756343
     75          1           0       -4.413045    0.882776   -1.099969
     76          1           0       -2.301818    2.113400   -1.191847
     77          1           0       -1.209918    3.729018    2.955670
     78          1           0       -2.095991    2.528730    2.001253
     79          1           0       -0.450773    2.184108    2.518649
     80          1           0       -1.018305    5.607421    1.550728
 ---------------------------------------------------------------------

 The electronic state is 1-A.
 Alpha  occ. eigenvalues --  -14.36570 -10.22954 -10.22946 -10.22309 -10.19894
 Alpha  occ. eigenvalues --  -10.19750 -10.19200 -10.19198 -10.18985 -10.18966
 Alpha  occ. eigenvalues --  -10.18956 -10.18905 -10.18888 -10.18880 -10.18875
 Alpha  occ. eigenvalues --  -10.18863 -10.18855 -10.18834 -10.18820 -10.18684
 Alpha  occ. eigenvalues --  -10.18679 -10.18664 -10.18634 -10.18622 -10.18593
 Alpha  occ. eigenvalues --  -10.18574 -10.18570 -10.18552 -10.18358 -10.18347
 Alpha  occ. eigenvalues --  -10.18010 -10.17978 -10.17962 -10.17921 -10.17906
 Alpha  occ. eigenvalues --  -10.17850 -10.17830 -10.17801 -10.17787 -10.17784
 Alpha  occ. eigenvalues --  -10.17771  -0.96382  -0.85936  -0.85825  -0.85394
 Alpha  occ. eigenvalues --   -0.85223  -0.84104  -0.79718  -0.79257  -0.77917
 Alpha  occ. eigenvalues --   -0.76857  -0.76792  -0.76539  -0.76148  -0.74757
 Alpha  occ. eigenvalues --   -0.74536  -0.74331  -0.72179  -0.71209  -0.68968
 Alpha  occ. eigenvalues --   -0.68677  -0.68580  -0.67062  -0.66698  -0.66559
 Alpha  occ. eigenvalues --   -0.63872  -0.61783  -0.61558  -0.60396  -0.60052
 Alpha  occ. eigenvalues --   -0.58656  -0.58050  -0.56998  -0.56958  -0.56143
 Alpha  occ. eigenvalues --   -0.54069  -0.53819  -0.53245  -0.52080  -0.49769
 Alpha  occ. eigenvalues --   -0.49356  -0.48514  -0.48231  -0.47845  -0.46328
 Alpha  occ. eigenvalues --   -0.46088  -0.45944  -0.45332  -0.44962  -0.44057
 Alpha  occ. eigenvalues --   -0.43959  -0.43158  -0.42656  -0.42591  -0.42531
 Alpha  occ. eigenvalues --   -0.42293  -0.42210  -0.41784  -0.41740  -0.41132
 Alpha  occ. eigenvalues --   -0.40953  -0.40881  -0.40771  -0.40079  -0.40064
 Alpha  occ. eigenvalues --   -0.39742  -0.39495  -0.39472  -0.38597  -0.38499
 Alpha  occ. eigenvalues --   -0.38377  -0.38324  -0.38066  -0.37576  -0.37291
 Alpha  occ. eigenvalues --   -0.37114  -0.36964  -0.36136  -0.35621  -0.34808
 Alpha  occ. eigenvalues --   -0.34725  -0.34506  -0.34296  -0.34167  -0.33610
 Alpha  occ. eigenvalues --   -0.33449  -0.32713  -0.32670  -0.32278  -0.32190
 Alpha  occ. eigenvalues --   -0.31737  -0.29975  -0.27674  -0.25438  -0.25352
 Alpha  occ. eigenvalues --   -0.25128  -0.24506  -0.24219  -0.22962  -0.22945
 Alpha  occ. eigenvalues --   -0.22098  -0.20092  -0.17288
 Alpha virt. eigenvalues --   -0.04850  -0.03789  -0.00951  -0.00388   0.00443
 Alpha virt. eigenvalues --    0.00806   0.00846   0.00866   0.01553   0.03342
 Alpha virt. eigenvalues --    0.06971   0.08173   0.09450   0.09610   0.09873

 Mulliken charges:
               1
     1  C   -0.532989
     2  C    0.200732
     3  C   -0.199735
     4  C   -0.141469
     5  C    0.166803
     6  N   -0.655913
     7  C    0.295235
     8  C   -0.176478
     9  C   -0.213087
    10  C    0.184266
    11  C   -0.179023
    12  C   -0.199690
    13  C    0.117203
    14  C   -0.186536
    15  C   -0.130127
    16  C   -0.182949
    17  C    0.128290
    18  C   -0.538687
    19  C    0.060253
    20  C   -0.541561
    21  C   -0.194730
    22  C   -0.169697
    23  C    0.308188
    24  C   -0.168924
    25  C   -0.211950
    26  C    0.183321
    27  C   -0.179412
    28  C   -0.199301
    29  C    0.117391
    30  C   -0.186688
    31  C   -0.130067
    32  C   -0.182908
    33  C    0.128284
    34  C   -0.538693
    35  C    0.060170
    36  C   -0.541452
    37  C   -0.196638
    38  C   -0.182258
    39  C    0.189069
    40  C   -0.534231
    41  C   -0.269005
    42  H    0.165618
    43  H    0.156514
    44  H    0.159923
    45  H    0.125114
    46  H    0.143282
    47  H    0.146983
    48  H    0.129456
    49  H    0.126098
    50  H    0.128575
    51  H    0.125754
    52  H    0.124279
    53  H    0.117809
    54  H    0.161298
    55  H    0.153600
    56  H    0.159817
    57  H    0.159802
    58  H    0.156321
    59  H    0.166269
    60  H    0.130119
    61  H    0.142553
    62  H    0.145822
    63  H    0.129747
    64  H    0.126363
    65  H    0.128240
    66  H    0.125880
    67  H    0.124395
    68  H    0.117889
    69  H    0.159884
    70  H    0.153651
    71  H    0.161194
    72  H    0.166144
    73  H    0.156239
    74  H    0.159922
    75  H    0.130511
    76  H    0.145942
    77  H    0.151789
    78  H    0.177009
    79  H    0.167060
    80  H    0.118132
 Sum of Mulliken charges =  -0.00000

 Dipole moment (field-independent basis, Debye):
    X=             -0.2294    Y=              1.9801    Z=              0.5909  Tot=              2.0790
 Quadrupole moment (field-independent basis, Debye-Ang):
   XX=           -225.7802   YY=           -223.9019   ZZ=           -237.7334
   XY=             -4.7521   XZ=              4.7668   YZ=              1.4146

 1\1\GINC-NODE59\FOpt\RB3LYP\6-31G(d)\C40H39N1\WYKGROUP\05-Nov-2022\0\\
 #p b3lyp/6-31g(d) opt SCF=XQC\\Gaussian input prepared by ASE\\0,1\C,0
 .0351676586,7.0996275552,0.6145537962\C,0.0296120274,5.5932237808,0.49
 7669473\C,0.5968163756,4.9547993271,-0.6135309023\C,0.6016010408,3.567
 6350632,-0.7059716763\C,0.0484067928,2.7775693029,0.3114250541\N,0.075
 1806806,1.3493853526,0.1817094208\C,1.3247939646,0.7119359667,-0.01824
 18133\C,1.4763803542,-0.3572941119,-0.9166987239\C,2.7176744245,-0.957
 0418902,-1.0931666962\C,3.8642679921,-0.5206876856,-0.4033346382\C,5.1

 Normal termination of Gaussian 16 at Sat Nov  5 01:39:43 2022.
