 Gaussian 16, Revision B.01,
 Gaussian 16:  ES64L-G16RevB.01 20-Dec-2017

 -------------------------------------------------------------------
 #p b3lyp/6-31g(d) 6D 10F nosymm GFInput td=(50-50,nstate=2) SCF=XQC
 -------------------------------------------------------------------

 ------------------------------
 Gaussian input prepared by ASE
 ------------------------------
 Symbolic Z-matrix:
 Charge =  0 Multiplicity = 1

                          Input orientation:
 ---------------------------------------------------------------------
 Center     Atomic      Atomic             Coordinates (Angstroms)
 Number     Number       Type             X           Y           Z
 ---------------------------------------------------------------------
      1          6           0        0.035168    7.099628    0.614554
      2          6           0        0.029612    5.593224    0.497669
      3          6           0        0.596816    4.954799   -0.613531
      4          6           0        0.601601    3.567635   -0.705972
      5          6           0        0.048407    2.777569    0.311425
      6          7           0        0.075181    1.349385    0.181709
      7          6           0        1.324794    0.711936   -0.018242
      8          6           0        1.476380   -0.357294   -0.916699
      9          6           0        2.717674   -0.957042   -1.093167
     10          6           0        3.864268   -0.520688   -0.403335
     11          6           0        5.139153   -1.199554   -0.635178
     12          6           0        6.299765   -1.011016    0.028869
     13          6           0        7.570597   -1.690887   -0.263268
     14          6           0        7.851899   -2.141373   -1.565889
     15          6           0        9.048526   -2.783175   -1.856109
     16          6           0        9.992618   -2.969056   -0.848021
     17          6           0        9.754492   -2.522360    0.457652
     18          6           0       10.821354   -2.745895    1.509688
     19          6           0        8.534911   -1.882058    0.759662
     20          6           0        8.236037   -1.410986    2.168552
     21          6           0        3.700592    0.566547    0.478555
     22          6           0        2.464361    1.164002    0.674467
     23          6           0       -1.144870    0.641887    0.070638
     24          6           0       -1.271241   -0.672245    0.554963
     25          6           0       -2.480991   -1.346407    0.455212
     26          6           0       -3.626679   -0.748309   -0.104996
     27          6           0       -4.876302   -1.506701   -0.161057
     28          6           0       -6.100630   -1.039537   -0.487549
     29          6           0       -7.327698   -1.845527   -0.571639
     30          6           0       -7.257362   -3.215225   -0.884409
     31          6           0       -8.407925   -3.988078   -0.967842
     32          6           0       -9.651852   -3.396423   -0.756455
     33          6           0       -9.763245   -2.033023   -0.456753
     34          6           0      -11.142969   -1.444492   -0.244776
     35          6           0       -8.596334   -1.247481   -0.357772
     36          6           0       -8.681223    0.224679   -0.008960
     37          6           0       -3.485649    0.568310   -0.584352
     38          6           0       -2.277660    1.248336   -0.503842
     39          6           0       -0.516475    3.391363    1.447170
     40          6           0       -1.100570    2.585355    2.581384
     41          6           0       -0.518297    4.791450    1.503584
     42          1           0        1.034428    7.477180    0.869073
     43          1           0       -0.653647    7.443961    1.392509
     44          1           0       -0.256461    7.575742   -0.328840
     45          1           0        1.028690    5.547585   -1.416775
     46          1           0        1.034644    3.076874   -1.572750
     47          1           0        0.619765   -0.713529   -1.478989
     48          1           0        2.807432   -1.782380   -1.796136
     49          1           0        5.112098   -1.953548   -1.421502
     50          1           0        6.313337   -0.309299    0.859399
     51          1           0        7.133029   -1.955361   -2.358296
     52          1           0        9.255026   -3.122574   -2.867798
     53          1           0       10.935475   -3.461082   -1.074985
     54          1           0       10.471003   -3.394474    2.322751
     55          1           0       11.701848   -3.223129    1.068732
     56          1           0       11.151821   -1.806204    1.968961
     57          1           0        8.244597   -0.314190    2.241036
     58          1           0        8.965317   -1.784171    2.889512
     59          1           0        7.246419   -1.744389    2.499875
     60          1           0        4.555742    0.953279    1.025292
     61          1           0        2.370498    1.995938    1.365151
     62          1           0       -0.417027   -1.159380    1.013718
     63          1           0       -2.551228   -2.360716    0.841937
     64          1           0       -4.782816   -2.554753    0.122378
     65          1           0       -6.209951    0.021837   -0.697239
     66          1           0       -6.289982   -3.662788   -1.092126
     67          1           0       -8.339816   -5.044451   -1.214365
     68          1           0      -10.555426   -3.996714   -0.832539
     69          1           0      -11.351250   -0.620001   -0.937601
     70          1           0      -11.913465   -2.205922   -0.399749
     71          1           0      -11.272867   -1.050325    0.771208
     72          1           0       -7.990160    0.483970    0.800690
     73          1           0       -9.683646    0.513578    0.311318
     74          1           0       -8.421730    0.861364   -0.866600
     75          1           0       -4.329546    1.065164   -1.054518
     76          1           0       -2.199530    2.256258   -0.898058
     77          1           0       -1.214571    3.204986    3.476201
     78          1           0       -2.087219    2.179591    2.325645
     79          1           0       -0.463832    1.730256    2.831529
     80          1           0       -0.953235    5.270540    2.378857
 ---------------------------------------------------------------------

 SCF Done:  E(RB3LYP) =  -1602.51686734     A.U. after   15 cycles

 Excitation energies and oscillator strengths:

 Excited state symmetry could not be determined.
 Excited State   1:      Triplet-?Sym    2.1284 eV  582.53 nm  f=0.0000  <S**2>=2.000
     141 ->144        -0.10595
     142 ->145        -0.28838
     143 ->144         0.61056
 This state for optimization and/or second-order correction.
 Total Energy, E(TD-HF/TD-DFT) =  -1602.43865140
 Copying the excited state density for this state as the 1-particle RhoCI density.

 Excited state symmetry could not be determined.
 Excited State   2:      Triplet-?Sym    2.2933 eV  540.64 nm  f=0.0000  <S**2>=2.000
     141 ->145        -0.13564
     142 ->144        -0.41937
     143 ->145         0.51444

 Excited state symmetry could not be determined.
 Excited State   3:      Singlet-?Sym    2.9983 eV  413.52 nm  f=1.4508  <S**2>=0.000
     143 ->144         0.70319

 Excited state symmetry could not be determined.
 Excited State   4:      Singlet-?Sym    3.3447 eV  370.68 nm  f=0.2133  <S**2>=0.000
     142 ->144         0.11877
     143 ->145         0.68687

 Alpha  occ. eigenvalues --  -14.36570 -10.22954 -10.22946 -10.22309 -10.19894
 Alpha  occ. eigenvalues --  -10.19750 -10.19200 -10.19198 -10.18985 -10.18966
 Alpha  occ. eigenvalues --  -10.18956 -10.18905 -10.18888 -10.18880 -10.18875
 Alpha  occ. eigenvalues --  -10.18863 -10.18855 -10.18834 -10.18820 -10.18684
 Alpha  occ. eigenvalues --  -10.18678 -10.18664 -10.18633 -10.18622 -10.18593
 Alpha  occ. eigenvalues --  -10.18574 -10.18570 -10.18552 -10.18358 -10.18347
 Alpha  occ. eigenvalues --  -10.18010 -10.17978 -10.17962 -10.17921 -10.17906
 Alpha  occ. eigenvalues --  -10.17850 -10.17830 -10.17801 -10.17787 -10.17784
 Alpha  occ. eigenvalues --  -10.17771  -0.96382  -0.85936  -0.85825  -0.85394
 Alpha  occ. eigenvalues --   -0.85223  -0.84104  -0.79718  -0.79257  -0.77917
 Alpha  occ. eigenvalues --   -0.76857  -0.76792  -0.76539  -0.76148  -0.74757
 Alpha  occ. eigenvalues --   -0.74536  -0.74331  -0.72179  -0.71209  -0.68968
 Alpha  occ. eigenvalues --   -0.68677  -0.68580  -0.67062  -0.66698  -0.66559
 Alpha  occ. eigenvalues --   -0.63872  -0.61783  -0.61558  -0.60396  -0.60052
 Alpha  occ. eigenvalues --   -0.58656  -0.58049  -0.56998  -0.56958  -0.56143
 Alpha  occ. eigenvalues --   -0.54069  -0.53819  -0.53244  -0.52080  -0.49769
 Alpha  occ. eigenvalues --   -0.49356  -0.48514  -0.48231  -0.47845  -0.46328
 Alpha  occ. eigenvalues --   -0.46088  -0.45944  -0.45332  -0.44962  -0.44057
 Alpha  occ. eigenvalues --   -0.43959  -0.43158  -0.42656  -0.42591  -0.42531
 Alpha  occ. eigenvalues --   -0.42293  -0.42210  -0.41784  -0.41740  -0.41132
 Alpha  occ. eigenvalues --   -0.40953  -0.40881  -0.40771  -0.40079  -0.40064
 Alpha  occ. eigenvalues --   -0.39742  -0.39495  -0.39472  -0.38597  -0.38499
 Alpha  occ. eigenvalues --   -0.38377  -0.38324  -0.38066  -0.37576  -0.37291
 Alpha  occ. eigenvalues --   -0.37114  -0.36964  -0.36136  -0.35621  -0.34808
 Alpha  occ. eigenvalues --   -0.34725  -0.34506  -0.34296  -0.34167  -0.33610
 Alpha  occ. eigenvalues --   -0.33449  -0.32713  -0.32670  -0.32278  -0.32190
 Alpha  occ. eigenvalues --   -0.31737  -0.29975  -0.27674  -0.25438  -0.25352
 Alpha  occ. eigenvalues --   -0.25128  -0.24506  -0.24219  -0.22962  -0.22945
 Alpha  occ. eigenvalues --   -0.22098  -0.20092  -0.17288
 Alpha virt. eigenvalues --   -0.04850  -0.03789  -0.00950  -0.00388   0.00443
 Alpha virt. eigenvalues --    0.00806   0.00846   0.00866   0.01553   0.03342
 Alpha virt. eigenvalues --    0.06971   0.08173   0.09450   0.09610   0.09872

 Mulliken charges:
               1
     1  C   -0.532989
     2  C    0.200730
     3  C   -0.199740
     4  C   -0.141476
     5  C    0.166841
     6  N   -0.655956
     7  C    0.295280
     8  C   -0.176503
     9  C   -0.213093
    10  C    0.184283
    11  C   -0.179023
    12  C   -0.199681
    13  C    0.117190
    14  C   -0.186535
    15  C   -0.130129
    16  C   -0.182947
    17  C    0.128293
    18  C   -0.538689
    19  C    0.060261
    20  C   -0.541563
    21  C   -0.194744
    22  C   -0.169704
    23  C    0.308230
    24  C   -0.168927
    25  C   -0.211953
    26  C    0.183322
    27  C   -0.179402
    28  C   -0.199307
    29  C    0.117374
    30  C   -0.186679
    31  C   -0.130065
    32  C   -0.182920
    33  C    0.128290
    34  C   -0.538692
    35  C    0.060184
    36  C   -0.541453
    37  C   -0.196643
    38  C   -0.182275
    39  C    0.189041
    40  C   -0.534226
    41  C   -0.268999
    42  H    0.165617
    43  H    0.156514
    44  H    0.159923
    45  H    0.125115
    46  H    0.143282
    47  H    0.146989
    48  H    0.129457
    49  H    0.126096
    50  H    0.128572
    51  H    0.125754
    52  H    0.124280
    53  H    0.117808
    54  H    0.161298
    55  H    0.153600
    56  H    0.159817
    57  H    0.159801
    58  H    0.156321
    59  H    0.166270
    60  H    0.130118
    61  H    0.142553
    62  H    0.145819
    63  H    0.129747
    64  H    0.126363
    65  H    0.128240
    66  H    0.125879
    67  H    0.124395
    68  H    0.117889
    69  H    0.159884
    70  H    0.153651
    71  H    0.161193
    72  H    0.166144
    73  H    0.156239
    74  H    0.159921
    75  H    0.130510
    76  H    0.145944
    77  H    0.151790
    78  H    0.177010
    79  H    0.167060
    80  H    0.118132
 Sum of Mulliken charges =  -0.00000

 Dipole moment (field-independent basis, Debye):
    X=             -0.2199    Y=              1.8718    Z=              0.8779  Tot=              2.0791
 Quadrupole moment (field-independent basis, Debye-Ang):
   XX=           -226.2372   YY=           -224.6496   ZZ=           -236.7093
   XY=             -5.4112   XZ=              4.3880   YZ=              3.1866

 Normal termination of Gaussian 16 at Sat Nov  5 10:32:19 2022.
