 Gaussian 16, Revision B.01,
 Gaussian 16:  ES64L-G16RevB.01 20-Dec-2017

 -------------------------------------------------------------------
 #p b3lyp/6-31g(d) 6D 10F nosymm GFInput td=(50-50,nstate=2) SCF=XQC
 -------------------------------------------------------------------

 ------------------------------
 Gaussian input prepared by ASE
 ------------------------------
 Symbolic Z-matrix:
 Charge =  0 Multiplicity = 1

                          Input orientation:
 ---------------------------------------------------------------------
 Center     Atomic      Atomic             Coordinates (Angstroms)
 Number     Number       Type             X           Y           Z
 ---------------------------------------------------------------------
      1          6           0        0.632524   -3.688192    1.545868
      2          6           0        1.349116   -2.998295    0.362432
      3          6           0        1.210171   -3.788105   -0.956661
      4          6           0        1.050125   -1.503015    0.228788
      5          6           0        2.088739   -0.592247    0.170920
      6          6           0        1.872565    0.850522    0.319838
      7          6           0        0.594174    1.363405    0.483777
      8          6           0        0.299185    2.819621    0.851035
      9          6           0        0.977726    3.251815    2.170326
     10          6           0        0.488509    3.788214   -0.336834
     11          6           0       -0.513438    0.445834    0.306606
     12          6           0       -1.847992    0.895199    0.200740
     13          6           0       -2.948947    0.064593    0.012514
     14          6           0       -4.316718    0.602342   -0.093871
     15          6           0       -4.588514    1.955309    0.079423
     16          6           0       -5.881456    2.499774   -0.045763
     17          6           0       -6.150040    3.887326    0.127331
     18          6           0       -7.427345    4.376441   -0.008879
     19          6           0       -8.501496    3.501676   -0.323921
     20          6           0       -8.274881    2.156690   -0.494570
     21          6           0       -6.963737    1.618330   -0.360303
     22          6           0       -6.687665    0.245401   -0.513962
     23          6           0       -5.410275   -0.289175   -0.384552
     24          6           0       -5.161997   -1.737281   -0.512533
     25          6           0       -6.212047   -2.641377   -0.778186
     26          6           0       -6.000712   -4.007303   -0.868977
     27          6           0       -4.711792   -4.518992   -0.686657
     28          6           0       -3.663156   -3.651199   -0.430320
     29          6           0       -3.850475   -2.255091   -0.347163
     30          6           0       -2.722314   -1.340325   -0.103923
     31          6           0       -1.411941   -1.799282   -0.014248
     32          6           0       -0.289340   -0.970958    0.191069
     33          6           0        3.211356    1.500598    0.279811
     34          6           0        3.720384    2.812676    0.332286
     35          6           0        5.093977    3.053490    0.216128
     36          6           0        6.028398    2.018330    0.021544
     37          6           0        7.447241    2.195943   -0.118859
     38          6           0        8.272996    1.128329   -0.333531
     39          6           0        7.769524   -0.218491   -0.438535
     40          6           0        8.585359   -1.334861   -0.685383
     41          6           0        8.025720   -2.608976   -0.794702
     42          6           0        6.650641   -2.806251   -0.662651
     43          6           0        5.788407   -1.724690   -0.407745
     44          6           0        4.361178   -1.894690   -0.269689
     45          6           0        3.544715   -0.821510    0.004191
     46          6           0        4.150436    0.474493    0.088392
     47          6           0        5.524447    0.691047   -0.056424
     48          6           0        6.368273   -0.423342   -0.294657
     49          1           0       -0.438610   -3.839819    1.394490
     50          1           0        1.082670   -4.674342    1.711921
     51          1           0        0.756330   -3.104972    2.464727
     52          1           0        2.402453   -3.050523    0.640349
     53          1           0        1.553501   -4.820761   -0.817422
     54          1           0        1.814041   -3.333546   -1.749827
     55          1           0        0.177783   -3.829072   -1.317964
     56          1           0       -0.762781    2.877127    1.095382
     57          1           0        2.062971    3.149714    2.171869
     58          1           0        0.734541    4.298957    2.388963
     59          1           0        0.595076    2.641902    2.996294
     60          1           0        1.484429    3.737518   -0.781875
     61          1           0        0.306960    4.823339   -0.022050
     62          1           0       -0.227184    3.548866   -1.131878
     63          1           0       -2.023834    1.959640    0.215521
     64          1           0       -3.790333    2.644835    0.331888
     65          1           0       -5.325376    4.554499    0.367615
     66          1           0       -7.622028    5.437218    0.123851
     67          1           0       -9.505833    3.903023   -0.428660
     68          1           0       -9.095254    1.484012   -0.734183
     69          1           0       -7.530757   -0.399325   -0.735555
     70          1           0       -7.221484   -2.272444   -0.915135
     71          1           0       -6.834989   -4.672305   -1.074386
     72          1           0       -4.528962   -5.588482   -0.743695
     73          1           0       -2.675897   -4.074092   -0.286022
     74          1           0       -1.229454   -2.850689   -0.155425
     75          1           0        3.075049    3.669940    0.459894
     76          1           0        5.449343    4.080016    0.268103
     77          1           0        7.859156    3.200332   -0.054710
     78          1           0        9.344168    1.283404   -0.439171
     79          1           0        9.658594   -1.200131   -0.796410
     80          1           0        8.670940   -3.461591   -0.988630
     81          1           0        6.235728   -3.807147   -0.755532
     82          1           0        3.979437   -2.898851   -0.414368
 ---------------------------------------------------------------------

 SCF Done:  E(RB3LYP) =  -1849.70536425     A.U. after   15 cycles

 Excitation energies and oscillator strengths:

 Excited state symmetry could not be determined.
 Excited State   1:      Triplet-?Sym    1.7936 eV  691.27 nm  f=0.0000  <S**2>=2.000
     158 ->162        -0.12651
     159 ->162        -0.18093
     161 ->162         0.63507
 This state for optimization and/or second-order correction.
 Total Energy, E(TD-HF/TD-DFT) =  -1849.63945148
 Copying the excited state density for this state as the 1-particle RhoCI density.

 Excited state symmetry could not be determined.
 Excited State   2:      Triplet-?Sym    2.0012 eV  619.56 nm  f=0.0000  <S**2>=2.000
     158 ->163         0.11810
     159 ->163         0.12773
     159 ->164        -0.10966
     160 ->162        -0.23002
     160 ->163         0.17115
     160 ->164         0.19276
     161 ->163         0.51740
     161 ->164        -0.12485

 Excited state symmetry could not be determined.
 Excited State   3:      Singlet-?Sym    2.6911 eV  460.72 nm  f=0.4927  <S**2>=0.000
     160 ->163         0.12619
     161 ->162         0.66672

 Excited state symmetry could not be determined.
 Excited State   4:      Singlet-?Sym    2.9316 eV  422.92 nm  f=0.0039  <S**2>=0.000
     159 ->162         0.17541
     160 ->162         0.51331
     161 ->163        -0.42544

 Alpha  occ. eigenvalues --  -10.20240 -10.20231 -10.20197 -10.20151 -10.20105
 Alpha  occ. eigenvalues --  -10.20043 -10.19945 -10.19936 -10.19918 -10.19892
 Alpha  occ. eigenvalues --  -10.19872 -10.19854 -10.19828 -10.19777 -10.19772
 Alpha  occ. eigenvalues --  -10.19753 -10.19670 -10.19666 -10.19654 -10.19653
 Alpha  occ. eigenvalues --  -10.19622 -10.19592 -10.19553 -10.19506 -10.19481
 Alpha  occ. eigenvalues --  -10.19475 -10.19468 -10.19453 -10.19418 -10.19315
 Alpha  occ. eigenvalues --  -10.19282 -10.19169 -10.19132 -10.19073 -10.19063
 Alpha  occ. eigenvalues --  -10.19034 -10.18985 -10.18941 -10.18938 -10.18938
 Alpha  occ. eigenvalues --  -10.18918 -10.18625 -10.18548 -10.18368 -10.17880
 Alpha  occ. eigenvalues --  -10.17539 -10.17524 -10.17179  -0.90182  -0.88791
 Alpha  occ. eigenvalues --   -0.87519  -0.86405  -0.85392  -0.84122  -0.82920
 Alpha  occ. eigenvalues --   -0.81953  -0.81489  -0.79547  -0.79052  -0.78014
 Alpha  occ. eigenvalues --   -0.77978  -0.76532  -0.75914  -0.75392  -0.74148
 Alpha  occ. eigenvalues --   -0.73338  -0.72969  -0.72240  -0.71499  -0.70284
 Alpha  occ. eigenvalues --   -0.69494  -0.68531  -0.68432  -0.65866  -0.64343
 Alpha  occ. eigenvalues --   -0.63804  -0.62730  -0.62197  -0.61984  -0.61356
 Alpha  occ. eigenvalues --   -0.60496  -0.59719  -0.58843  -0.58464  -0.57812
 Alpha  occ. eigenvalues --   -0.57114  -0.55325  -0.54474  -0.53125  -0.52169
 Alpha  occ. eigenvalues --   -0.51604  -0.51486  -0.50741  -0.49794  -0.49241
 Alpha  occ. eigenvalues --   -0.48624  -0.48010  -0.47425  -0.46411  -0.46317
 Alpha  occ. eigenvalues --   -0.45845  -0.45488  -0.44887  -0.44312  -0.43895
 Alpha  occ. eigenvalues --   -0.43331  -0.43002  -0.42890  -0.42569  -0.42513
 Alpha  occ. eigenvalues --   -0.42296  -0.41978  -0.41619  -0.41485  -0.41269
 Alpha  occ. eigenvalues --   -0.41030  -0.40972  -0.40637  -0.40541  -0.40122
 Alpha  occ. eigenvalues --   -0.39781  -0.39362  -0.39248  -0.38958  -0.38741
 Alpha  occ. eigenvalues --   -0.37984  -0.37743  -0.37524  -0.37341  -0.37051
 Alpha  occ. eigenvalues --   -0.36594  -0.36218  -0.35551  -0.35232  -0.35193
 Alpha  occ. eigenvalues --   -0.34651  -0.34456  -0.34358  -0.34092  -0.33364
 Alpha  occ. eigenvalues --   -0.33028  -0.32696  -0.32271  -0.32219  -0.31889
 Alpha  occ. eigenvalues --   -0.31523  -0.31270  -0.29981  -0.29766  -0.29103
 Alpha  occ. eigenvalues --   -0.28663  -0.27540  -0.26664  -0.26080  -0.25044
 Alpha  occ. eigenvalues --   -0.23578  -0.23005  -0.21939  -0.20939  -0.19779
 Alpha  occ. eigenvalues --   -0.18342
 Alpha virt. eigenvalues --   -0.07272  -0.05844  -0.05120  -0.03183  -0.02370
 Alpha virt. eigenvalues --   -0.01299   0.00704   0.01058   0.02503   0.02981
 Alpha virt. eigenvalues --    0.03738   0.04564   0.05944   0.07524   0.07977

 Mulliken charges:
               1
     1  C   -0.450351
     2  C   -0.169605
     3  C   -0.452433
     4  C    0.054845
     5  C   -0.027889
     6  C   -0.012584
     7  C    0.031693
     8  C   -0.151145
     9  C   -0.458638
    10  C   -0.455963
    11  C    0.118918
    12  C   -0.354976
    13  C    0.104471
    14  C    0.087304
    15  C   -0.318746
    16  C    0.161643
    17  C   -0.192828
    18  C   -0.138250
    19  C   -0.137911
    20  C   -0.194066
    21  C    0.165276
    22  C   -0.325731
    23  C    0.099226
    24  C    0.065486
    25  C   -0.201405
    26  C   -0.131281
    27  C   -0.132939
    28  C   -0.201358
    29  C    0.060278
    30  C    0.093096
    31  C   -0.325551
    32  C    0.100757
    33  C    0.104320
    34  C   -0.223515
    35  C   -0.238543
    36  C    0.188717
    37  C   -0.210808
    38  C   -0.186059
    39  C    0.156715
    40  C   -0.230734
    41  C   -0.117576
    42  C   -0.232618
    43  C    0.192894
    44  C   -0.326836
    45  C    0.147440
    46  C   -0.101478
    47  C    0.032342
    48  C   -0.013547
    49  H    0.148430
    50  H    0.141042
    51  H    0.155913
    52  H    0.146447
    53  H    0.140936
    54  H    0.157077
    55  H    0.153382
    56  H    0.135185
    57  H    0.162262
    58  H    0.137109
    59  H    0.150734
    60  H    0.160985
    61  H    0.139156
    62  H    0.150144
    63  H    0.146480
    64  H    0.134132
    65  H    0.128975
    66  H    0.130466
    67  H    0.130493
    68  H    0.129419
    69  H    0.135537
    70  H    0.134786
    71  H    0.129719
    72  H    0.129761
    73  H    0.134703
    74  H    0.129267
    75  H    0.147943
    76  H    0.128679
    77  H    0.131833
    78  H    0.130358
    79  H    0.131390
    80  H    0.131302
    81  H    0.130027
    82  H    0.145866
 Sum of Mulliken charges =  -0.00000

 Dipole moment (field-independent basis, Debye):
    X=              0.4746    Y=             -0.2353    Z=             -0.1050  Tot=              0.5401
 Quadrupole moment (field-independent basis, Debye-Ang):
   XX=           -241.2276   YY=           -243.6656   ZZ=           -286.0749
   XY=             -2.0531   XZ=              0.5969   YZ=              4.8770

 Normal termination of Gaussian 16 at Sat Nov  5 11:00:19 2022.
