 Gaussian 16, Revision B.01,
 Gaussian 16:  ES64L-G16RevB.01 20-Dec-2017

 -----------------------------
 #p b3lyp/6-31g(d) opt SCF=XQC
 -----------------------------

 ------------------------------
 Gaussian input prepared by ASE
 ------------------------------
 Symbolic Z-matrix:
 Charge =  0 Multiplicity = 1

 SCF Done:  E(RB3LYP) =  -1849.69516736     A.U. after   15 cycles
 SCF Done:  E(RB3LYP) =  -1849.70367240     A.U. after   13 cycles
 SCF Done:  E(RB3LYP) =  -1849.69741565     A.U. after   13 cycles
 SCF Done:  E(RB3LYP) =  -1849.70422671     A.U. after   12 cycles
 SCF Done:  E(RB3LYP) =  -1849.70394365     A.U. after   12 cycles
 SCF Done:  E(RB3LYP) =  -1849.70453458     A.U. after   12 cycles
 SCF Done:  E(RB3LYP) =  -1849.70524594     A.U. after   11 cycles
 SCF Done:  E(RB3LYP) =  -1849.70532204     A.U. after   11 cycles
 SCF Done:  E(RB3LYP) =  -1849.70535126     A.U. after   11 cycles
 SCF Done:  E(RB3LYP) =  -1849.70536191     A.U. after   11 cycles
 SCF Done:  E(RB3LYP) =  -1849.70536741     A.U. after   11 cycles
 SCF Done:  E(RB3LYP) =  -1849.70537245     A.U. after   10 cycles
 SCF Done:  E(RB3LYP) =  -1849.70537295     A.U. after    8 cycles
 SCF Done:  E(RB3LYP) =  -1849.70537309     A.U. after    7 cycles
 SCF Done:  E(RB3LYP) =  -1849.70537317     A.U. after    7 cycles
 SCF Done:  E(RB3LYP) =  -1849.70537320     A.U. after    7 cycles
 SCF Done:  E(RB3LYP) =  -1849.70537322     A.U. after    6 cycles
 SCF Done:  E(RB3LYP) =  -1849.70537322     A.U. after    6 cycles
 Optimization completed.
    -- Stationary point found.

                         Standard orientation:
 ---------------------------------------------------------------------
 Center     Atomic      Atomic             Coordinates (Angstroms)
 Number     Number       Type             X           Y           Z
 ---------------------------------------------------------------------
      1          6           0       -0.839000    3.487018    1.933639
      2          6           0       -1.503462    2.872282    0.680415
      3          6           0       -1.400084    3.790525   -0.556216
      4          6           0       -1.115604    1.416305    0.410576
      5          6           0       -2.098116    0.456504    0.252413
      6          6           0       -1.798447   -0.978926    0.267633
      7          6           0       -0.493464   -1.430117    0.400500
      8          6           0       -0.116195   -2.895080    0.632908
      9          6           0       -0.779318   -3.489214    1.895846
     10          6           0       -0.237840   -3.755809   -0.643571
     11          6           0        0.559536   -0.437235    0.326310
     12          6           0        1.919144   -0.796423    0.197385
     13          6           0        2.970727    0.110700    0.103896
     14          6           0        4.368713   -0.334349   -0.033412
     15          6           0        4.718397   -1.679626    0.015327
     16          6           0        6.042246   -2.133900   -0.142387
     17          6           0        6.390766   -3.513714   -0.097154
     18          6           0        7.695832   -3.912841   -0.260841
     19          6           0        8.719138   -2.951342   -0.476782
     20          6           0        8.415004   -1.611630   -0.523003
     21          6           0        7.073268   -1.165340   -0.357083
     22          6           0        6.717970    0.197662   -0.384454
     23          6           0        5.410194    0.642608   -0.223249
     24          6           0        5.077983    2.079492   -0.217577
     25          6           0        6.075076    3.064052   -0.381928
     26          6           0        5.784274    4.417876   -0.346465
     27          6           0        4.465886    4.834384   -0.134911
     28          6           0        3.468141    3.886867    0.023610
     29          6           0        3.736817    2.502384   -0.022639
     30          6           0        2.662573    1.504822    0.117292
     31          6           0        1.326675    1.876481    0.231346
     32          6           0        0.253204    0.968750    0.341758
     33          6           0       -3.096142   -1.698741    0.147578
     34          6           0       -3.527272   -3.037153    0.068883
     35          6           0       -4.883211   -3.345033   -0.088849
     36          6           0       -5.875401   -2.351966   -0.198109
     37          6           0       -7.280032   -2.597356   -0.374652
     38          6           0       -8.165492   -1.563831   -0.499313
     39          6           0       -7.741510   -0.186225   -0.469709
     40          6           0       -8.619670    0.899384   -0.621661
     41          6           0       -8.135292    2.208400   -0.602416
     42          6           0       -6.775436    2.471589   -0.432950
     43          6           0       -5.853083    1.422495   -0.269039
     44          6           0       -4.439611    1.661030   -0.095430
     45          6           0       -3.563605    0.615810    0.087512
     46          6           0       -4.092475   -0.715242    0.040549
     47          6           0       -5.450018   -0.996316   -0.143427
     48          6           0       -6.356077    0.084885   -0.287385
     49          1           0        0.222574    3.714149    1.812373
     50          1           0       -1.347972    4.425191    2.185587
     51          1           0       -0.936032    2.812974    2.791558
     52          1           0       -2.560387    2.836753    0.947121
     53          1           0       -1.804945    4.783650   -0.325066
     54          1           0       -1.969257    3.379129   -1.397162
     55          1           0       -0.368857    3.925376   -0.897435
     56          1           0        0.945182   -2.913901    0.885709
     57          1           0       -1.868671   -3.450779    1.891692
     58          1           0       -0.476633   -4.536528    2.018161
     59          1           0       -0.440421   -2.939364    2.780974
     60          1           0       -1.231169   -3.720868   -1.095861
     61          1           0        0.001785   -4.803885   -0.425284
     62          1           0        0.469260   -3.400963   -1.402315
     63          1           0        2.157372   -1.845470    0.114191
     64          1           0        3.960172   -2.435101    0.190342
     65          1           0        5.604891   -4.247353    0.067470
     66          1           0        7.951642   -4.968357   -0.226013
     67          1           0        9.746273   -3.282052   -0.604718
     68          1           0        9.196265   -0.872833   -0.686501
     69          1           0        7.523406    0.908285   -0.532330
     70          1           0        7.105665    2.768910   -0.538798
     71          1           0        6.579576    5.146601   -0.476441
     72          1           0        4.220746    5.892057   -0.093404
     73          1           0        2.456444    4.236222    0.193197
     74          1           0        1.083665    2.924195    0.187397
     75          1           0       -2.833581   -3.863821    0.124168
     76          1           0       -5.177802   -4.390715   -0.138942
     77          1           0       -7.632482   -3.625472   -0.411337
     78          1           0       -9.224700   -1.769979   -0.634219
     79          1           0       -9.682091    0.713847   -0.760039
     80          1           0       -8.828027    3.036753   -0.724156
     81          1           0       -6.419542    3.499135   -0.425153
     82          1           0       -4.116579    2.694818   -0.139356
 ---------------------------------------------------------------------

 The electronic state is 1-A.
 Alpha  occ. eigenvalues --  -10.20240 -10.20231 -10.20197 -10.20151 -10.20105
 Alpha  occ. eigenvalues --  -10.20043 -10.19945 -10.19936 -10.19918 -10.19892
 Alpha  occ. eigenvalues --  -10.19872 -10.19854 -10.19828 -10.19777 -10.19772
 Alpha  occ. eigenvalues --  -10.19753 -10.19670 -10.19666 -10.19654 -10.19653
 Alpha  occ. eigenvalues --  -10.19622 -10.19592 -10.19553 -10.19506 -10.19480
 Alpha  occ. eigenvalues --  -10.19475 -10.19468 -10.19453 -10.19418 -10.19315
 Alpha  occ. eigenvalues --  -10.19281 -10.19169 -10.19132 -10.19073 -10.19063
 Alpha  occ. eigenvalues --  -10.19034 -10.18985 -10.18941 -10.18938 -10.18938
 Alpha  occ. eigenvalues --  -10.18918 -10.18625 -10.18548 -10.18368 -10.17880
 Alpha  occ. eigenvalues --  -10.17539 -10.17524 -10.17179  -0.90182  -0.88791
 Alpha  occ. eigenvalues --   -0.87519  -0.86405  -0.85392  -0.84122  -0.82920
 Alpha  occ. eigenvalues --   -0.81953  -0.81489  -0.79547  -0.79052  -0.78014
 Alpha  occ. eigenvalues --   -0.77978  -0.76532  -0.75914  -0.75392  -0.74148
 Alpha  occ. eigenvalues --   -0.73338  -0.72969  -0.72240  -0.71499  -0.70284
 Alpha  occ. eigenvalues --   -0.69494  -0.68531  -0.68432  -0.65866  -0.64343
 Alpha  occ. eigenvalues --   -0.63804  -0.62730  -0.62197  -0.61984  -0.61356
 Alpha  occ. eigenvalues --   -0.60496  -0.59719  -0.58843  -0.58464  -0.57812
 Alpha  occ. eigenvalues --   -0.57114  -0.55325  -0.54474  -0.53125  -0.52169
 Alpha  occ. eigenvalues --   -0.51604  -0.51486  -0.50741  -0.49794  -0.49241
 Alpha  occ. eigenvalues --   -0.48624  -0.48010  -0.47425  -0.46411  -0.46318
 Alpha  occ. eigenvalues --   -0.45845  -0.45488  -0.44887  -0.44312  -0.43895
 Alpha  occ. eigenvalues --   -0.43331  -0.43002  -0.42890  -0.42569  -0.42513
 Alpha  occ. eigenvalues --   -0.42296  -0.41978  -0.41619  -0.41485  -0.41269
 Alpha  occ. eigenvalues --   -0.41030  -0.40972  -0.40637  -0.40541  -0.40122
 Alpha  occ. eigenvalues --   -0.39781  -0.39362  -0.39248  -0.38958  -0.38741
 Alpha  occ. eigenvalues --   -0.37984  -0.37743  -0.37524  -0.37341  -0.37051
 Alpha  occ. eigenvalues --   -0.36595  -0.36218  -0.35551  -0.35232  -0.35193
 Alpha  occ. eigenvalues --   -0.34651  -0.34456  -0.34358  -0.34092  -0.33364
 Alpha  occ. eigenvalues --   -0.33028  -0.32696  -0.32271  -0.32219  -0.31889
 Alpha  occ. eigenvalues --   -0.31523  -0.31270  -0.29981  -0.29766  -0.29103
 Alpha  occ. eigenvalues --   -0.28663  -0.27540  -0.26664  -0.26080  -0.25044
 Alpha  occ. eigenvalues --   -0.23578  -0.23005  -0.21939  -0.20939  -0.19779
 Alpha  occ. eigenvalues --   -0.18342
 Alpha virt. eigenvalues --   -0.07272  -0.05844  -0.05120  -0.03183  -0.02370
 Alpha virt. eigenvalues --   -0.01299   0.00704   0.01058   0.02503   0.02981
 Alpha virt. eigenvalues --    0.03738   0.04564   0.05944   0.07524   0.07977

 Mulliken charges:
               1
     1  C   -0.450337
     2  C   -0.169609
     3  C   -0.452429
     4  C    0.054854
     5  C   -0.027888
     6  C   -0.012576
     7  C    0.031686
     8  C   -0.151158
     9  C   -0.458633
    10  C   -0.455967
    11  C    0.118902
    12  C   -0.354970
    13  C    0.104482
    14  C    0.087306
    15  C   -0.318744
    16  C    0.161643
    17  C   -0.192831
    18  C   -0.138249
    19  C   -0.137913
    20  C   -0.194070
    21  C    0.165285
    22  C   -0.325737
    23  C    0.099233
    24  C    0.065484
    25  C   -0.201404
    26  C   -0.131281
    27  C   -0.132938
    28  C   -0.201363
    29  C    0.060272
    30  C    0.093091
    31  C   -0.325539
    32  C    0.100749
    33  C    0.104324
    34  C   -0.223523
    35  C   -0.238547
    36  C    0.188725
    37  C   -0.210803
    38  C   -0.186062
    39  C    0.156716
    40  C   -0.230732
    41  C   -0.117575
    42  C   -0.232615
    43  C    0.192888
    44  C   -0.326837
    45  C    0.147432
    46  C   -0.101466
    47  C    0.032332
    48  C   -0.013550
    49  H    0.148425
    50  H    0.141040
    51  H    0.155912
    52  H    0.146447
    53  H    0.140935
    54  H    0.157075
    55  H    0.153383
    56  H    0.135186
    57  H    0.162261
    58  H    0.137109
    59  H    0.150734
    60  H    0.160987
    61  H    0.139157
    62  H    0.150145
    63  H    0.146480
    64  H    0.134130
    65  H    0.128976
    66  H    0.130467
    67  H    0.130495
    68  H    0.129417
    69  H    0.135539
    70  H    0.134786
    71  H    0.129719
    72  H    0.129760
    73  H    0.134709
    74  H    0.129263
    75  H    0.147945
    76  H    0.128679
    77  H    0.131833
    78  H    0.130358
    79  H    0.131391
    80  H    0.131301
    81  H    0.130028
    82  H    0.145867
 Sum of Mulliken charges =  -0.00000

 Dipole moment (field-independent basis, Debye):
    X=             -0.4867    Y=              0.2163    Z=             -0.0890  Tot=              0.5400
 Quadrupole moment (field-independent basis, Debye-Ang):
   XX=           -241.0148   YY=           -243.3468   ZZ=           -286.6367
   XY=             -1.8497   XZ=             -0.1276   YZ=             -0.8314

 Normal termination of Gaussian 16 at Sat Nov  5 01:20:57 2022.
