 Gaussian 16, Revision B.01,
 Gaussian 16:  ES64L-G16RevB.01 20-Dec-2017

 -------------------------------------------------------------------
 #p b3lyp/6-31g(d) 6D 10F nosymm GFInput td=(50-50,nstate=2) SCF=XQC
 -------------------------------------------------------------------

 ------------------------------
 Gaussian input prepared by ASE
 ------------------------------
 Symbolic Z-matrix:
 Charge =  0 Multiplicity = 1

                          Input orientation:
 ---------------------------------------------------------------------
 Center     Atomic      Atomic             Coordinates (Angstroms)
 Number     Number       Type             X           Y           Z
 ---------------------------------------------------------------------
      1          6           0       11.017925    1.229584   -1.521759
      2          6           0        9.792180    1.255063   -2.190531
      3          6           0        8.733568    0.456677   -1.761560
      4          6           0        8.881321   -0.371121   -0.636957
      5          7           0        7.801940   -1.183163   -0.189953
      6          6           0        8.049026   -2.525078    0.213140
      7          6           0        7.436894   -3.049281    1.363062
      8          6           0        7.677673   -4.366550    1.748971
      9          6           0        8.543408   -5.176436    1.010780
     10          6           0        9.161197   -4.654507   -0.127694
     11          6           0        8.912311   -3.344268   -0.531981
     12          6           0        6.486467   -0.656762   -0.144264
     13          6           0        6.253571    0.666201    0.267455
     14          6           0        4.962042    1.179323    0.302861
     15          6           0        3.848097    0.398042   -0.050830
     16          6           0        2.472929    0.947626   -0.000040
     17          6           0        1.380287    0.144591    0.369281
     18          6           0        0.087874    0.662538    0.414490
     19          6           0       -0.179782    2.007074    0.099449
     20         14           0       -1.922867    2.732257    0.220640
     21          6           0       -2.174197    3.946581   -1.210992
     22          6           0       -1.675838    3.660517   -2.497269
     23          6           0       -1.894262    4.526572   -3.570163
     24          6           0       -2.614843    5.706991   -3.379016
     25          6           0       -3.112156    6.015380   -2.111912
     26          6           0       -2.892617    5.144505   -1.042996
     27          6           0       -2.138403    3.629715    1.874596
     28          6           0       -1.031443    4.095605    2.607385
     29          6           0       -1.195515    4.795061    3.804461
     30          6           0       -2.476614    5.044560    4.298916
     31          6           0       -3.591068    4.588040    3.592698
     32          6           0       -3.420973    3.887443    2.397265
     33          6           0       -3.206237    1.343097    0.118579
     34          6           0       -3.528549    0.564983    1.246444
     35          6           0       -4.440046   -0.487843    1.170592
     36          6           0       -5.076975   -0.805364   -0.039199
     37          6           0       -6.007378   -1.967606   -0.117320
     38          6           0       -5.553186   -3.199007    0.267726
     39          6           0       -6.355121   -4.381066    0.187137
     40          6           0       -5.830809   -5.634798    0.581492
     41          6           0       -6.589992   -6.783943    0.489066
     42          6           0       -7.904695   -6.707945   -0.008071
     43          6           0       -8.436526   -5.492427   -0.399656
     44          6           0       -7.685559   -4.296522   -0.313399
     45          6           0       -8.205691   -2.991362   -0.700385
     46          6           0       -9.529844   -2.822053   -1.169058
     47          6           0      -10.030646   -1.577886   -1.502588
     48          6           0       -9.221538   -0.437249   -1.368074
     49          6           0       -7.921569   -0.567425   -0.919236
     50          6           0       -7.373930   -1.832243   -0.592626
     51          6           0       -4.765396   -0.031503   -1.169277
     52          6           0       -3.850766    1.017313   -1.088826
     53          6           0        0.918966    2.804702   -0.275294
     54          6           0        2.212837    2.290737   -0.323893
     55          6           0        4.093354   -0.926391   -0.453531
     56          6           0        5.382050   -1.444758   -0.509385
     57          6           0       10.112093   -0.388333    0.038634
     58          6           0       11.170699    0.399800   -0.408966
     59          1           0       11.843110    1.847858   -1.863475
     60          1           0        9.660187    1.889620   -3.063077
     61          1           0        7.787634    0.468932   -2.293668
     62          1           0        6.774722   -2.419346    1.948531
     63          1           0        7.195464   -4.755704    2.641976
     64          1           0        8.734280   -6.200469    1.318815
     65          1           0        9.832237   -5.274447   -0.716583
     66          1           0        9.384275   -2.947529   -1.425231
     67          1           0        7.090823    1.286715    0.570229
     68          1           0        4.811853    2.196693    0.653333
     69          1           0        1.549067   -0.892331    0.647256
     70          1           0       -0.727463    0.004391    0.704397
     71          1           0       -1.098142    2.753882   -2.663330
     72          1           0       -1.498226    4.282488   -4.552826
     73          1           0       -2.783450    6.384722   -4.212116
     74          1           0       -3.668028    6.936357   -1.954273
     75          1           0       -3.280807    5.405826   -0.061743
     76          1           0       -0.025560    3.903726    2.242340
     77          1           0       -0.323015    5.141570    4.352814
     78          1           0       -2.606210    5.587443    5.231800
     79          1           0       -4.592023    4.772868    3.974776
     80          1           0       -4.301548    3.526588    1.870317
     81          1           0       -3.073888    0.791373    2.208340
     82          1           0       -4.678217   -1.063462    2.061278
     83          1           0       -4.529401   -3.302162    0.619175
     84          1           0       -4.811911   -5.676844    0.959421
     85          1           0       -6.176896   -7.741069    0.795390
     86          1           0       -8.507410   -7.608750   -0.086389
     87          1           0       -9.452094   -5.470441   -0.779426
     88          1           0      -10.180010   -3.684565   -1.264887
     89          1           0      -11.053315   -1.484028   -1.857847
     90          1           0       -9.616741    0.545668   -1.609751
     91          1           0       -7.305225    0.316655   -0.802382
     92          1           0       -5.234312   -0.264339   -2.121546
     93          1           0       -3.636905    1.592479   -1.986214
     94          1           0        0.761988    3.843927   -0.555751
     95          1           0        3.029378    2.930494   -0.647880
     96          1           0        3.262931   -1.551568   -0.769604
     97          1           0        5.541285   -2.463563   -0.847598
     98          1           0       10.231505   -1.021359    0.912164
     99          1           0       12.116380    0.374010    0.126227
 ---------------------------------------------------------------------

 SCF Done:  E(RB3LYP) =  -2502.97527357     A.U. after   15 cycles

 Excitation energies and oscillator strengths:

 Excited state symmetry could not be determined.
 Excited State   1:      Triplet-?Sym    2.6570 eV  466.63 nm  f=0.0000  <S**2>=2.000
     184 ->215        -0.11472
     197 ->202         0.27892
     198 ->200         0.59935
 This state for optimization and/or second-order correction.
 Total Energy, E(TD-HF/TD-DFT) =  -2502.87762955
 Copying the excited state density for this state as the 1-particle RhoCI density.

 Excited state symmetry could not be determined.
 Excited State   2:      Triplet-?Sym    2.7954 eV  443.52 nm  f=0.0000  <S**2>=2.000
     196 ->201         0.20434
     199 ->200        -0.10788
     199 ->201         0.60521

 Excited state symmetry could not be determined.
 Excited State   3:      Singlet-?Sym    3.5207 eV  352.16 nm  f=0.6688  <S**2>=0.000
     199 ->200        -0.39039
     199 ->201         0.58135

 Excited state symmetry could not be determined.
 Excited State   4:      Singlet-?Sym    3.6023 eV  344.18 nm  f=0.1354  <S**2>=0.000
     199 ->200         0.58800
     199 ->201         0.38680

 Alpha  occ. eigenvalues --  -66.12438 -14.36503 -10.22995 -10.22937 -10.22935
 Alpha  occ. eigenvalues --  -10.19989 -10.19945 -10.19925 -10.19889 -10.19875
 Alpha  occ. eigenvalues --  -10.19805 -10.19577 -10.19422 -10.19076 -10.19071
 Alpha  occ. eigenvalues --  -10.19071 -10.19065 -10.18988 -10.18987 -10.18977
 Alpha  occ. eigenvalues --  -10.18951 -10.18947 -10.18940 -10.18930 -10.18904
 Alpha  occ. eigenvalues --  -10.18875 -10.18872 -10.18828 -10.18819 -10.18814
 Alpha  occ. eigenvalues --  -10.18810 -10.18798 -10.18780 -10.18777 -10.18774
 Alpha  occ. eigenvalues --  -10.18769 -10.18763 -10.18742 -10.18742 -10.18739
 Alpha  occ. eigenvalues --  -10.18737 -10.18718 -10.18716 -10.18699 -10.18689
 Alpha  occ. eigenvalues --  -10.18685 -10.18684 -10.18656 -10.18650 -10.18632
 Alpha  occ. eigenvalues --  -10.18626 -10.18569 -10.18525 -10.18496 -10.17597
 Alpha  occ. eigenvalues --  -10.17528 -10.17525 -10.17422  -5.26850  -3.62737
 Alpha  occ. eigenvalues --   -3.62734  -3.62717  -0.96414  -0.88055  -0.86305
 Alpha  occ. eigenvalues --   -0.85334  -0.85316  -0.84651  -0.84471  -0.84364
 Alpha  occ. eigenvalues --   -0.84277  -0.83135  -0.80833  -0.77488  -0.77285
 Alpha  occ. eigenvalues --   -0.75857  -0.75673  -0.74713  -0.74535  -0.74431
 Alpha  occ. eigenvalues --   -0.74273  -0.74173  -0.73934  -0.73874  -0.73783
 Alpha  occ. eigenvalues --   -0.73569  -0.73273  -0.72840  -0.71986  -0.70602
 Alpha  occ. eigenvalues --   -0.69774  -0.63323  -0.62879  -0.62762  -0.62707
 Alpha  occ. eigenvalues --   -0.61367  -0.61165  -0.60603  -0.60221  -0.60129
 Alpha  occ. eigenvalues --   -0.59904  -0.59626  -0.59549  -0.58809  -0.58705
 Alpha  occ. eigenvalues --   -0.58285  -0.58133  -0.57482  -0.56547  -0.53554
 Alpha  occ. eigenvalues --   -0.53230  -0.53214  -0.52904  -0.52652  -0.51180
 Alpha  occ. eigenvalues --   -0.50903  -0.50487  -0.49295  -0.48418  -0.48139
 Alpha  occ. eigenvalues --   -0.47874  -0.47464  -0.46619  -0.46121  -0.45397
 Alpha  occ. eigenvalues --   -0.45272  -0.44998  -0.44720  -0.44599  -0.44476
 Alpha  occ. eigenvalues --   -0.44173  -0.43902  -0.43836  -0.43752  -0.43711
 Alpha  occ. eigenvalues --   -0.43286  -0.43122  -0.42649  -0.42572  -0.42214
 Alpha  occ. eigenvalues --   -0.42040  -0.41994  -0.41962  -0.41755  -0.41557
 Alpha  occ. eigenvalues --   -0.41486  -0.41421  -0.41181  -0.41111  -0.39897
 Alpha  occ. eigenvalues --   -0.39516  -0.39120  -0.38731  -0.37386  -0.37265
 Alpha  occ. eigenvalues --   -0.37163  -0.36586  -0.36423  -0.36302  -0.35949
 Alpha  occ. eigenvalues --   -0.35921  -0.35853  -0.35836  -0.35654  -0.35609
 Alpha  occ. eigenvalues --   -0.35414  -0.35090  -0.34889  -0.34371  -0.34142
 Alpha  occ. eigenvalues --   -0.33910  -0.33736  -0.33640  -0.33038  -0.32847
 Alpha  occ. eigenvalues --   -0.32146  -0.30987  -0.30690  -0.29794  -0.29753
 Alpha  occ. eigenvalues --   -0.29534  -0.28056  -0.27036  -0.26083  -0.25803
 Alpha  occ. eigenvalues --   -0.25649  -0.25142  -0.24993  -0.24871  -0.24725
 Alpha  occ. eigenvalues --   -0.24643  -0.24565  -0.24515  -0.24292  -0.24239
 Alpha  occ. eigenvalues --   -0.22986  -0.22097  -0.20590  -0.18166
 Alpha virt. eigenvalues --   -0.04193  -0.03448  -0.03046  -0.01800  -0.01368
 Alpha virt. eigenvalues --   -0.01246  -0.01094  -0.00652  -0.00380   0.00135
 Alpha virt. eigenvalues --    0.00429   0.00514   0.00703   0.00776   0.00974

 Mulliken charges:
               1
     1  C   -0.128179
     2  C   -0.140306
     3  C   -0.161626
     4  C    0.273960
     5  N   -0.653153
     6  C    0.274164
     7  C   -0.161785
     8  C   -0.140304
     9  C   -0.128188
    10  C   -0.140067
    11  C   -0.161953
    12  C    0.291086
    13  C   -0.172560
    14  C   -0.188288
    15  C    0.096150
    16  C    0.089056
    17  C   -0.170383
    18  C   -0.179759
    19  C   -0.062955
    20  Si   0.513176
    21  C   -0.063845
    22  C   -0.182223
    23  C   -0.124019
    24  C   -0.131814
    25  C   -0.122270
    26  C   -0.176018
    27  C   -0.063755
    28  C   -0.175595
    29  C   -0.122058
    30  C   -0.131799
    31  C   -0.123879
    32  C   -0.181839
    33  C   -0.061498
    34  C   -0.187443
    35  C   -0.159184
    36  C    0.051769
    37  C    0.037177
    38  C   -0.263849
    39  C    0.151128
    40  C   -0.204505
    41  C   -0.130321
    42  C   -0.137493
    43  C   -0.191611
    44  C    0.069281
    45  C    0.049532
    46  C   -0.190202
    47  C   -0.135583
    48  C   -0.128429
    49  C   -0.219139
    50  C    0.102208
    51  C   -0.161367
    52  C   -0.180667
    53  C   -0.187226
    54  C   -0.172363
    55  C   -0.188622
    56  C   -0.172526
    57  C   -0.161935
    58  C   -0.140097
    59  H    0.127974
    60  H    0.131809
    61  H    0.144585
    62  H    0.144637
    63  H    0.131775
    64  H    0.127949
    65  H    0.131726
    66  H    0.144478
    67  H    0.145694
    68  H    0.134372
    69  H    0.129957
    70  H    0.137927
    71  H    0.143014
    72  H    0.129834
    73  H    0.130248
    74  H    0.129296
    75  H    0.139693
    76  H    0.139653
    77  H    0.129457
    78  H    0.130342
    79  H    0.129687
    80  H    0.141629
    81  H    0.144053
    82  H    0.134489
    83  H    0.133937
    84  H    0.130351
    85  H    0.130053
    86  H    0.129228
    87  H    0.133850
    88  H    0.132890
    89  H    0.129056
    90  H    0.129953
    91  H    0.147983
    92  H    0.140620
    93  H    0.141297
    94  H    0.142341
    95  H    0.130650
    96  H    0.135445
    97  H    0.145852
    98  H    0.144489
    99  H    0.131720
 Sum of Mulliken charges =  -0.00000

 Dipole moment (field-independent basis, Debye):
    X=              0.7188    Y=             -0.1257    Z=             -0.0476  Tot=              0.7313
 Quadrupole moment (field-independent basis, Debye-Ang):
   XX=           -306.5715   YY=           -311.6716   ZZ=           -328.7322
   XY=             -1.1634   XZ=              2.1471   YZ=             -4.5995

 Normal termination of Gaussian 16 at Sat Nov  5 10:38:45 2022.
