 Gaussian 16, Revision B.01,
 Gaussian 16:  ES64L-G16RevB.01 20-Dec-2017

 -----------------------------
 #p b3lyp/6-31g(d) opt SCF=XQC
 -----------------------------

 ------------------------------
 Gaussian input prepared by ASE
 ------------------------------
 Symbolic Z-matrix:
 Charge =  0 Multiplicity = 1

 SCF Done:  E(RB3LYP) =  -2502.96241553     A.U. after   14 cycles
 SCF Done:  E(RB3LYP) =  -2502.97478863     A.U. after   12 cycles
 SCF Done:  E(RB3LYP) =  -2502.97518419     A.U. after   12 cycles
 SCF Done:  E(RB3LYP) =  -2502.97524069     A.U. after   11 cycles
 SCF Done:  E(RB3LYP) =  -2502.97526147     A.U. after   10 cycles
 SCF Done:  E(RB3LYP) =  -2502.97526943     A.U. after   10 cycles
 SCF Done:  E(RB3LYP) =  -2502.97527192     A.U. after    9 cycles
 SCF Done:  E(RB3LYP) =  -2502.97527268     A.U. after    8 cycles
 SCF Done:  E(RB3LYP) =  -2502.97527274     A.U. after    6 cycles
 SCF Done:  E(RB3LYP) =  -2502.97527276     A.U. after    6 cycles
 Optimization completed.
    -- Stationary point found.

                         Standard orientation:
 ---------------------------------------------------------------------
 Center     Atomic      Atomic             Coordinates (Angstroms)
 Number     Number       Type             X           Y           Z
 ---------------------------------------------------------------------
      1          6           0      -11.138728   -0.997440   -1.471410
      2          6           0       -9.913330   -1.046888   -2.139476
      3          6           0       -8.839568   -0.269323   -1.709916
      4          6           0       -8.971764    0.561244   -0.585419
      5          7           0       -7.876980    1.352057   -0.137815
      6          6           0       -8.098031    2.698558    0.265103
      7          6           0       -7.476433    3.210742    1.415365
      8          6           0       -7.691651    4.532478    1.801102
      9          6           0       -8.540972    5.359099    1.062393
     10          6           0       -9.168186    4.849300   -0.076422
     11          6           0       -8.944717    3.534433   -0.480535
     12          6           0       -6.572069    0.800056   -0.091356
     13          6           0       -6.365304   -0.527191    0.320529
     14          6           0       -5.084068   -1.065449    0.356691
     15          6           0       -3.954867   -0.306095    0.003621
     16          6           0       -2.590730   -0.882441    0.055216
     17          6           0       -1.482818   -0.100895    0.425144
     18          6           0       -0.200798   -0.643994    0.471110
     19          6           0        0.040717   -1.993514    0.156256
     20         14           0        1.769230   -2.752612    0.278467
     21          6           0        1.997608   -3.971667   -1.152990
     22          6           0        1.505673   -3.675967   -2.439560
     23          6           0        1.707750   -4.546162   -3.512308
     24          6           0        2.405019   -5.740429   -3.320716
     25          6           0        2.895483   -6.058430   -2.053320
     26          6           0        2.692388   -5.183393   -0.984551
     27          6           0        1.966240   -3.654051    1.932569
     28          6           0        0.849967   -4.098197    2.664733
     29          6           0        0.999653   -4.800682    3.861921
     30          6           0        2.275349   -5.075147    4.357118
     31          6           0        3.398916   -4.640515    3.651529
     32          6           0        3.243229   -3.936771    2.455981
     33          6           0        3.079557   -1.388797    0.177110
     34          6           0        3.416363   -0.617088    1.305141
     35          6           0        4.348299    0.417724    1.229787
     36          6           0        4.992006    0.722696    0.020355
     37          6           0        5.944985    1.866534   -0.057261
     38          6           0        5.514719    3.106588    0.327493
     39          6           0        6.339643    4.272750    0.247337
     40          6           0        5.839702    5.536502    0.641359
     41          6           0        6.621246    6.670590    0.549341
     42          6           0        7.934498    6.568900    0.052962
     43          6           0        8.442702    5.343209   -0.338286
     44          6           0        7.668463    4.162209   -0.252433
     45          6           0        8.163216    2.847122   -0.639086
     46          6           0        9.484077    2.651955   -1.106994
     47          6           0        9.960666    1.398228   -1.440205
     48          6           0        9.129348    0.273623   -1.306128
     49          6           0        7.831913    0.429191   -0.858041
     50          6           0        7.308905    1.704479   -0.531777
     51          6           0        4.666016   -0.044970   -1.109883
     52          6           0        3.731022   -1.075712   -1.029933
     53          6           0       -1.073191   -2.769535   -0.219099
     54          6           0       -2.356744   -2.230389   -0.268454
     55          6           0       -4.173968    1.022864   -0.399254
     56          6           0       -5.452257    1.566309   -0.455861
     57          6           0      -10.202352    0.602525    0.089463
     58          6           0      -11.275898   -0.164790   -0.358726
     59          1           0      -11.975639   -1.599485   -1.813585
     60          1           0       -9.793260   -1.683934   -3.011931
     61          1           0       -7.893748   -0.300078   -2.241479
     62          1           0       -6.827033    2.568010    2.001230
     63          1           0       -7.202443    4.912168    2.694374
     64          1           0       -8.711976    6.386677    1.370293
     65          1           0       -9.826647    5.482211   -0.665713
     66          1           0       -9.423829    3.146960   -1.374045
     67          1           0       -7.214694   -1.131216    0.622838
     68          1           0       -4.953987   -2.085546    0.707274
     69          1           0       -1.631465    0.939137    0.702997
     70          1           0        0.627076   -0.001893    0.761469
     71          1           0        0.945897   -2.758222   -2.605976
     72          1           0        1.317123   -4.294422   -4.495204
     73          1           0        2.560830   -6.421354   -4.153703
     74          1           0        3.433163   -6.990086   -1.895338
     75          1           0        3.074835   -5.452214   -0.003069
     76          1           0       -0.151765   -3.886714    2.299105
     77          1           0        0.120235   -5.130057    4.409780
     78          1           0        2.393777   -5.620424    5.290090
     79          1           0        4.395848   -4.844851    4.034188
     80          1           0        4.130988   -3.593209    1.929531
     81          1           0        2.956812   -0.834517    2.266780
     82          1           0        4.597161    0.988612    2.120595
     83          1           0        4.492944    3.229740    0.678352
     84          1           0        4.821602    5.598462    1.018701
     85          1           0        6.226753    7.635616    0.855404
     86          1           0        8.554743    7.457755   -0.025031
     87          1           0        9.457865    5.301371   -0.717472
     88          1           0       10.151027    3.501596   -1.202470
     89          1           0       10.981510    1.284394   -1.794874
     90          1           0        9.505409   -0.716837   -1.547553
     91          1           0        7.198345   -0.442673   -0.741520
     92          1           0        5.139938    0.178626   -2.061889
     93          1           0        3.506479   -1.646622   -1.927429
     94          1           0       -0.936387   -3.811639   -0.499440
     95          1           0       -3.185443   -2.854081   -0.592895
     96          1           0       -3.331306    1.631684   -0.714865
     97          1           0       -5.591361    2.588019   -0.794191
     98          1           0      -10.309875    1.237795    0.962910
     99          1           0      -12.221203   -0.120508    0.175923
 ---------------------------------------------------------------------

 The electronic state is 1-A.
 Alpha  occ. eigenvalues --  -66.12438 -14.36503 -10.22995 -10.22937 -10.22935
 Alpha  occ. eigenvalues --  -10.19989 -10.19945 -10.19925 -10.19889 -10.19875
 Alpha  occ. eigenvalues --  -10.19805 -10.19577 -10.19422 -10.19076 -10.19071
 Alpha  occ. eigenvalues --  -10.19071 -10.19065 -10.18988 -10.18987 -10.18977
 Alpha  occ. eigenvalues --  -10.18951 -10.18947 -10.18940 -10.18930 -10.18904
 Alpha  occ. eigenvalues --  -10.18875 -10.18872 -10.18828 -10.18819 -10.18814
 Alpha  occ. eigenvalues --  -10.18810 -10.18798 -10.18780 -10.18777 -10.18774
 Alpha  occ. eigenvalues --  -10.18769 -10.18763 -10.18742 -10.18742 -10.18739
 Alpha  occ. eigenvalues --  -10.18737 -10.18718 -10.18716 -10.18699 -10.18689
 Alpha  occ. eigenvalues --  -10.18685 -10.18684 -10.18656 -10.18650 -10.18632
 Alpha  occ. eigenvalues --  -10.18626 -10.18569 -10.18525 -10.18496 -10.17597
 Alpha  occ. eigenvalues --  -10.17528 -10.17525 -10.17421  -5.26850  -3.62737
 Alpha  occ. eigenvalues --   -3.62734  -3.62717  -0.96414  -0.88055  -0.86305
 Alpha  occ. eigenvalues --   -0.85334  -0.85316  -0.84651  -0.84471  -0.84364
 Alpha  occ. eigenvalues --   -0.84277  -0.83135  -0.80833  -0.77488  -0.77284
 Alpha  occ. eigenvalues --   -0.75857  -0.75673  -0.74713  -0.74535  -0.74431
 Alpha  occ. eigenvalues --   -0.74273  -0.74173  -0.73934  -0.73874  -0.73783
 Alpha  occ. eigenvalues --   -0.73569  -0.73273  -0.72840  -0.71986  -0.70602
 Alpha  occ. eigenvalues --   -0.69774  -0.63323  -0.62879  -0.62762  -0.62707
 Alpha  occ. eigenvalues --   -0.61367  -0.61165  -0.60603  -0.60221  -0.60129
 Alpha  occ. eigenvalues --   -0.59904  -0.59626  -0.59549  -0.58809  -0.58705
 Alpha  occ. eigenvalues --   -0.58285  -0.58133  -0.57482  -0.56547  -0.53554
 Alpha  occ. eigenvalues --   -0.53230  -0.53214  -0.52904  -0.52653  -0.51180
 Alpha  occ. eigenvalues --   -0.50903  -0.50487  -0.49295  -0.48418  -0.48139
 Alpha  occ. eigenvalues --   -0.47874  -0.47464  -0.46619  -0.46121  -0.45397
 Alpha  occ. eigenvalues --   -0.45272  -0.44998  -0.44720  -0.44599  -0.44476
 Alpha  occ. eigenvalues --   -0.44173  -0.43902  -0.43836  -0.43752  -0.43711
 Alpha  occ. eigenvalues --   -0.43286  -0.43122  -0.42649  -0.42572  -0.42214
 Alpha  occ. eigenvalues --   -0.42040  -0.41994  -0.41962  -0.41755  -0.41557
 Alpha  occ. eigenvalues --   -0.41486  -0.41421  -0.41181  -0.41111  -0.39897
 Alpha  occ. eigenvalues --   -0.39516  -0.39120  -0.38731  -0.37386  -0.37265
 Alpha  occ. eigenvalues --   -0.37163  -0.36586  -0.36423  -0.36302  -0.35949
 Alpha  occ. eigenvalues --   -0.35921  -0.35853  -0.35836  -0.35654  -0.35609
 Alpha  occ. eigenvalues --   -0.35414  -0.35090  -0.34889  -0.34371  -0.34142
 Alpha  occ. eigenvalues --   -0.33910  -0.33736  -0.33640  -0.33038  -0.32848
 Alpha  occ. eigenvalues --   -0.32146  -0.30987  -0.30690  -0.29794  -0.29753
 Alpha  occ. eigenvalues --   -0.29534  -0.28056  -0.27036  -0.26083  -0.25803
 Alpha  occ. eigenvalues --   -0.25649  -0.25142  -0.24993  -0.24871  -0.24725
 Alpha  occ. eigenvalues --   -0.24643  -0.24565  -0.24515  -0.24292  -0.24239
 Alpha  occ. eigenvalues --   -0.22986  -0.22097  -0.20590  -0.18166
 Alpha virt. eigenvalues --   -0.04193  -0.03448  -0.03046  -0.01800  -0.01368
 Alpha virt. eigenvalues --   -0.01246  -0.01094  -0.00652  -0.00380   0.00135
 Alpha virt. eigenvalues --    0.00429   0.00514   0.00703   0.00776   0.00974

 Mulliken charges:
               1
     1  C   -0.128181
     2  C   -0.140305
     3  C   -0.161625
     4  C    0.273966
     5  N   -0.653153
     6  C    0.274166
     7  C   -0.161783
     8  C   -0.140303
     9  C   -0.128187
    10  C   -0.140068
    11  C   -0.161958
    12  C    0.291083
    13  C   -0.172555
    14  C   -0.188284
    15  C    0.096141
    16  C    0.089053
    17  C   -0.170381
    18  C   -0.179759
    19  C   -0.062960
    20  Si   0.513201
    21  C   -0.063846
    22  C   -0.182225
    23  C   -0.124018
    24  C   -0.131815
    25  C   -0.122270
    26  C   -0.176018
    27  C   -0.063769
    28  C   -0.175588
    29  C   -0.122060
    30  C   -0.131800
    31  C   -0.123877
    32  C   -0.181839
    33  C   -0.061502
    34  C   -0.187444
    35  C   -0.159184
    36  C    0.051766
    37  C    0.037180
    38  C   -0.263845
    39  C    0.151128
    40  C   -0.204506
    41  C   -0.130324
    42  C   -0.137492
    43  C   -0.191606
    44  C    0.069277
    45  C    0.049532
    46  C   -0.190203
    47  C   -0.135582
    48  C   -0.128429
    49  C   -0.219140
    50  C    0.102205
    51  C   -0.161366
    52  C   -0.180666
    53  C   -0.187223
    54  C   -0.172364
    55  C   -0.188618
    56  C   -0.172526
    57  C   -0.161941
    58  C   -0.140097
    59  H    0.127974
    60  H    0.131809
    61  H    0.144584
    62  H    0.144636
    63  H    0.131775
    64  H    0.127949
    65  H    0.131727
    66  H    0.144478
    67  H    0.145693
    68  H    0.134371
    69  H    0.129957
    70  H    0.137927
    71  H    0.143014
    72  H    0.129834
    73  H    0.130248
    74  H    0.129296
    75  H    0.139692
    76  H    0.139651
    77  H    0.129457
    78  H    0.130342
    79  H    0.129687
    80  H    0.141628
    81  H    0.144052
    82  H    0.134489
    83  H    0.133937
    84  H    0.130351
    85  H    0.130054
    86  H    0.129228
    87  H    0.133850
    88  H    0.132890
    89  H    0.129056
    90  H    0.129953
    91  H    0.147983
    92  H    0.140620
    93  H    0.141297
    94  H    0.142341
    95  H    0.130650
    96  H    0.135445
    97  H    0.145852
    98  H    0.144490
    99  H    0.131720
 Sum of Mulliken charges =  -0.00000

 Dipole moment (field-independent basis, Debye):
    X=             -0.7162    Y=              0.1397    Z=             -0.0480  Tot=              0.7312
 Quadrupole moment (field-independent basis, Debye-Ang):
   XX=           -306.4738   YY=           -311.6195   ZZ=           -328.7404
   XY=             -1.2907   XZ=             -2.0798   YZ=              4.6463

 Normal termination of Gaussian 16 at Sat Nov  5 00:58:40 2022.
