 Gaussian 16, Revision B.01,
 Gaussian 16:  ES64L-G16RevB.01 20-Dec-2017

 -------------------------------------------------------------------
 #p b3lyp/6-31g(d) 6D 10F nosymm GFInput td=(50-50,nstate=2) SCF=XQC
 -------------------------------------------------------------------

 ------------------------------
 Gaussian input prepared by ASE
 ------------------------------
 Symbolic Z-matrix:
 Charge =  0 Multiplicity = 1

                          Input orientation:
 ---------------------------------------------------------------------
 Center     Atomic      Atomic             Coordinates (Angstroms)
 Number     Number       Type             X           Y           Z
 ---------------------------------------------------------------------
      1          6           0       11.720779   -0.874347    3.775438
      2          6           0       11.418655   -2.167510    3.344071
      3          6           0       10.562437   -2.367203    2.261437
      4          6           0       10.017414   -1.265745    1.589292
      5          7           0        9.151544   -1.464093    0.479871
      6          6           0        9.450915   -2.199801   -0.673674
      7          6           0       10.631430   -2.861024   -1.023441
      8          6           0       10.670524   -3.508884   -2.256396
      9          6           0        9.566478   -3.497464   -3.126164
     10          6           0        8.398328   -2.825600   -2.777962
     11          6           0        8.332524   -2.165909   -1.545309
     12          6           0        7.312889   -1.373722   -0.888605
     13          6           0        6.010614   -1.005943   -1.235713
     14          6           0        5.238923   -0.235659   -0.356514
     15          6           0        3.855031    0.167355   -0.712037
     16          6           0        3.514323    0.524690   -2.027005
     17          6           0        2.213168    0.893333   -2.358809
     18          6           0        1.193841    0.932090   -1.397535
     19          6           0       -0.194165    1.407642   -1.789938
     20          6           0       -1.398130    0.747220   -1.063292
     21          6           0       -1.476101   -0.771962   -1.213504
     22          6           0       -0.887326   -1.421786   -2.308270
     23          6           0       -0.946241   -2.806915   -2.476203
     24          6           0       -1.598376   -3.601742   -1.534813
     25          6           0       -2.186949   -2.980619   -0.441977
     26          6           0       -2.147238   -1.580223   -0.268425
     27          6           0       -2.871628   -1.260783    0.986133
     28          6           0       -3.164587   -0.052737    1.633280
     29          6           0       -3.867672   -0.070996    2.840812
     30          6           0       -4.292644   -1.274966    3.407590
     31          6           0       -4.020023   -2.484792    2.763253
     32          6           0       -3.316979   -2.468185    1.565582
     33          6           0       -2.931372   -3.665211    0.702433
     34          6           0       -2.096518   -4.719193    1.437192
     35          6           0       -0.873828   -4.563367    2.078926
     36          6           0       -0.285384   -5.675200    2.691390
     37          6           0       -0.917164   -6.923427    2.658537
     38          6           0       -2.145657   -7.082270    2.013560
     39          6           0       -2.734530   -5.973796    1.401317
     40          6           0       -3.996523   -5.838131    0.660405
     41          6           0       -4.982094   -6.777112    0.348369
     42          6           0       -6.099070   -6.365536   -0.381987
     43          6           0       -6.230206   -5.034804   -0.794750
     44          6           0       -5.244094   -4.092398   -0.483161
     45          6           0       -4.131791   -4.500382    0.243082
     46          6           0       -2.686993    1.458027   -1.498910
     47          6           0       -3.483336    0.906199   -2.512821
     48          6           0       -4.652510    1.523326   -2.960409
     49          6           0       -5.078565    2.722226   -2.389116
     50          6           0       -4.303616    3.287341   -1.386192
     51          6           0       -3.103977    2.687964   -0.943071
     52          6           0       -2.526649    3.560165    0.110027
     53          6           0       -1.345855    3.490748    0.863453
     54          6           0       -1.068829    4.484242    1.806684
     55          6           0       -1.948586    5.550086    2.006085
     56          6           0       -3.121986    5.638079    1.251406
     57          6           0       -3.398803    4.651386    0.314567
     58          6           0       -4.605505    4.570281   -0.615361
     59          6           0       -5.949012    4.535761    0.122766
     60          6           0       -6.396191    3.618885    1.066563
     61          6           0       -7.672044    3.784394    1.616529
     62          6           0       -8.484128    4.853958    1.222942
     63          6           0       -8.037473    5.774093    0.272049
     64          6           0       -6.764673    5.610607   -0.278908
     65          6           0       -6.040816    6.399344   -1.285867
     66          6           0       -6.410240    7.547391   -1.990005
     67          6           0       -5.510756    8.095107   -2.907300
     68          6           0       -4.259717    7.504771   -3.118563
     69          6           0       -3.887407    6.354928   -2.413660
     70          6           0       -4.781108    5.808288   -1.500671
     71          6           0        1.532682    0.575222   -0.085276
     72          6           0        2.832238    0.200181    0.249852
     73          6           0        5.803719    0.148954    0.882262
     74          6           0        7.096909   -0.203289    1.253505
     75          6           0        7.852944   -0.960465    0.354994
     76          6           0       10.327743    0.032191    2.014788
     77          6           0       11.168976    0.222608    3.110780
     78          1           0       12.381876   -0.722457    4.623944
     79          1           0       11.838975   -3.026706    3.859585
     80          1           0       10.303136   -3.370544    1.938250
     81          1           0       11.491226   -2.866665   -0.361719
     82          1           0       11.577087   -4.031276   -2.549893
     83          1           0        9.628898   -4.014579   -4.079402
     84          1           0        7.548478   -2.809474   -3.455401
     85          1           0        5.583082   -1.343471   -2.175838
     86          1           0        4.283542    0.534333   -2.794541
     87          1           0        1.986207    1.171399   -3.386271
     88          1           0       -0.322749    1.302698   -2.873530
     89          1           0       -0.264451    2.487701   -1.602336
     90          1           0       -1.267218    0.940341    0.004045
     91          1           0       -0.352815   -0.837444   -3.048912
     92          1           0       -0.471436   -3.262834   -3.340756
     93          1           0       -1.641971   -4.681428   -1.647989
     94          1           0       -2.874360    0.902297    1.216424
     95          1           0       -4.085118    0.869181    3.341135
     96          1           0       -4.839576   -1.271723    4.346596
     97          1           0       -4.353109   -3.426770    3.190910
     98          1           0       -0.380905   -3.595154    2.104046
     99          1           0        0.671061   -5.568014    3.195933
    100          1           0       -0.447102   -7.777580    3.138783
    101          1           0       -2.631811   -8.054359    1.990375
    102          1           0       -4.885272   -7.812071    0.666692
    103          1           0       -6.873793   -7.085640   -0.631886
    104          1           0       -7.105588   -4.730003   -1.361958
    105          1           0       -5.347666   -3.059065   -0.803605
    106          1           0       -3.185462   -0.039393   -2.953995
    107          1           0       -5.236726    1.057505   -3.749519
    108          1           0       -5.996735    3.202650   -2.715600
    109          1           0       -0.627596    2.691952    0.726059
    110          1           0       -0.151690    4.424109    2.386441
    111          1           0       -1.718382    6.315334    2.742291
    112          1           0       -3.808484    6.468792    1.391732
    113          1           0       -5.770364    2.783400    1.369556
    114          1           0       -8.035678    3.074442    2.354463
    115          1           0       -9.472744    4.968427    1.659590
    116          1           0       -8.673630    6.601331   -0.032550
    117          1           0       -7.381007    8.009818   -1.830192
    118          1           0       -5.785289    8.988156   -3.462474
    119          1           0       -3.571057    7.942689   -3.836074
    120          1           0       -2.915227    5.897994   -2.578755
    121          1           0        0.773285    0.564049    0.692106
    122          1           0        3.049958   -0.101047    1.270947
    123          1           0        5.215267    0.761838    1.558841
    124          1           0        7.502167    0.107443    2.210788
    125          1           0        9.916987    0.881569    1.477866
    126          1           0       11.403809    1.232356    3.436193
 ---------------------------------------------------------------------

 SCF Done:  E(RB3LYP) =  -2980.45729247     A.U. after   16 cycles

 Excitation energies and oscillator strengths:

 Excited state symmetry could not be determined.
 Excited State   1:      Triplet-?Sym    3.0246 eV  409.92 nm  f=0.0000  <S**2>=2.000
     252 -> 258       -0.14156
     252 -> 259       -0.35825
     255 -> 257       -0.10687
     255 -> 258       -0.17395
     255 -> 259       -0.42301
     255 -> 268        0.11476
 This state for optimization and/or second-order correction.
 Total Energy, E(TD-HF/TD-DFT) =  -2980.34614007
 Copying the excited state density for this state as the 1-particle RhoCI density.

 Excited state symmetry could not be determined.
 Excited State   2:      Triplet-?Sym    3.0301 eV  409.18 nm  f=0.0000  <S**2>=2.000
     240 -> 264       -0.10262
     251 -> 257       -0.41041
     254 -> 257        0.43111
     254 -> 264       -0.12565

 Excited state symmetry could not be determined.
 Excited State   3:      Singlet-?Sym    3.8792 eV  319.61 nm  f=0.0199  <S**2>=0.000
     253 -> 262       -0.10039
     256 -> 257        0.11284
     256 -> 261        0.66310

 Excited state symmetry could not be determined.
 Excited State   4:      Singlet-?Sym    4.0068 eV  309.44 nm  f=0.2662  <S**2>=0.000
     256 -> 257        0.60436
     256 -> 259        0.12249
     256 -> 261       -0.10466
     256 -> 262       -0.29729

 Alpha  occ. eigenvalues --  -14.38235 -10.24048 -10.22366 -10.22359 -10.21144
 Alpha  occ. eigenvalues --  -10.20847 -10.20219 -10.20214 -10.20200 -10.20121
 Alpha  occ. eigenvalues --  -10.20118 -10.19971 -10.19826 -10.19795 -10.19588
 Alpha  occ. eigenvalues --  -10.19532 -10.19395 -10.19312 -10.19291 -10.19285
 Alpha  occ. eigenvalues --  -10.19255 -10.19251 -10.19244 -10.19210 -10.19198
 Alpha  occ. eigenvalues --  -10.19137 -10.19101 -10.19075 -10.19060 -10.19024
 Alpha  occ. eigenvalues --  -10.19018 -10.18993 -10.18992 -10.18989 -10.18974
 Alpha  occ. eigenvalues --  -10.18961 -10.18953 -10.18939 -10.18910 -10.18906
 Alpha  occ. eigenvalues --  -10.18856 -10.18849 -10.18843 -10.18841 -10.18797
 Alpha  occ. eigenvalues --  -10.18785 -10.18765 -10.18760 -10.18757 -10.18750
 Alpha  occ. eigenvalues --  -10.18746 -10.18727 -10.18687 -10.18685 -10.18674
 Alpha  occ. eigenvalues --  -10.18670 -10.18653 -10.18640 -10.18614 -10.18596
 Alpha  occ. eigenvalues --  -10.18593 -10.18539 -10.18533 -10.18511 -10.18459
 Alpha  occ. eigenvalues --  -10.18446 -10.18437 -10.18397 -10.18389 -10.18346
 Alpha  occ. eigenvalues --  -10.18318 -10.18289 -10.18266 -10.18260 -10.18209
 Alpha  occ. eigenvalues --  -10.18174 -10.18081  -0.98949  -0.90040  -0.89727
 Alpha  occ. eigenvalues --   -0.87268  -0.87143  -0.86744  -0.85880  -0.84767
 Alpha  occ. eigenvalues --   -0.84102  -0.84094  -0.83946  -0.83885  -0.83757
 Alpha  occ. eigenvalues --   -0.81644  -0.80398  -0.79604  -0.78640  -0.78133
 Alpha  occ. eigenvalues --   -0.77861  -0.76913  -0.76410  -0.75950  -0.75692
 Alpha  occ. eigenvalues --   -0.75343  -0.74318  -0.74201  -0.74006  -0.73880
 Alpha  occ. eigenvalues --   -0.73814  -0.73788  -0.73571  -0.72058  -0.71427
 Alpha  occ. eigenvalues --   -0.71323  -0.71163  -0.71020  -0.70948  -0.69411
 Alpha  occ. eigenvalues --   -0.67986  -0.67680  -0.65633  -0.64249  -0.63483
 Alpha  occ. eigenvalues --   -0.63066  -0.62587  -0.62237  -0.61934  -0.61342
 Alpha  occ. eigenvalues --   -0.60605  -0.60349  -0.60064  -0.59757  -0.58272
 Alpha  occ. eigenvalues --   -0.58171  -0.58009  -0.57953  -0.57732  -0.57369
 Alpha  occ. eigenvalues --   -0.57288  -0.57070  -0.56952  -0.56926  -0.56518
 Alpha  occ. eigenvalues --   -0.55806  -0.54064  -0.53808  -0.51950  -0.51690
 Alpha  occ. eigenvalues --   -0.51457  -0.51378  -0.50397  -0.50106  -0.49933
 Alpha  occ. eigenvalues --   -0.49131  -0.49075  -0.48909  -0.48818  -0.48043
 Alpha  occ. eigenvalues --   -0.47651  -0.47623  -0.46928  -0.46679  -0.46582
 Alpha  occ. eigenvalues --   -0.46240  -0.45559  -0.45392  -0.45140  -0.44789
 Alpha  occ. eigenvalues --   -0.44649  -0.44219  -0.44023  -0.43895  -0.43833
 Alpha  occ. eigenvalues --   -0.43754  -0.43622  -0.43413  -0.43272  -0.43215
 Alpha  occ. eigenvalues --   -0.42945  -0.42896  -0.42757  -0.42694  -0.42361
 Alpha  occ. eigenvalues --   -0.41892  -0.41772  -0.41666  -0.41586  -0.41496
 Alpha  occ. eigenvalues --   -0.41440  -0.41273  -0.41194  -0.41079  -0.40963
 Alpha  occ. eigenvalues --   -0.40859  -0.40424  -0.39714  -0.39250  -0.38972
 Alpha  occ. eigenvalues --   -0.38306  -0.38068  -0.37706  -0.37578  -0.37539
 Alpha  occ. eigenvalues --   -0.37399  -0.36915  -0.36697  -0.36422  -0.36298
 Alpha  occ. eigenvalues --   -0.36115  -0.35850  -0.35797  -0.35605  -0.35582
 Alpha  occ. eigenvalues --   -0.35107  -0.34937  -0.34809  -0.34757  -0.34611
 Alpha  occ. eigenvalues --   -0.34474  -0.34378  -0.34280  -0.34133  -0.34056
 Alpha  occ. eigenvalues --   -0.33686  -0.33498  -0.33386  -0.33203  -0.32937
 Alpha  occ. eigenvalues --   -0.32877  -0.32706  -0.32456  -0.32099  -0.31978
 Alpha  occ. eigenvalues --   -0.31640  -0.31116  -0.27978  -0.27962  -0.27863
 Alpha  occ. eigenvalues --   -0.27746  -0.27661  -0.26388  -0.26189  -0.26067
 Alpha  occ. eigenvalues --   -0.25834  -0.25621  -0.24476  -0.24326  -0.24116
 Alpha  occ. eigenvalues --   -0.24090  -0.23821  -0.23444  -0.23360  -0.22746
 Alpha  occ. eigenvalues --   -0.21727  -0.21444  -0.21001  -0.20764  -0.20463
 Alpha  occ. eigenvalues --   -0.19149
 Alpha virt. eigenvalues --   -0.03255  -0.02930  -0.02814  -0.02701  -0.02632
 Alpha virt. eigenvalues --   -0.01986  -0.01287  -0.01230  -0.01197  -0.01192
 Alpha virt. eigenvalues --   -0.00964  -0.00745   0.00136   0.00284   0.00709

 Mulliken charges:
               1
     1  C   -0.121256
     2  C   -0.142802
     3  C   -0.149091
     4  C    0.264034
     5  N   -0.736540
     6  C    0.311487
     7  C   -0.176530
     8  C   -0.141660
     9  C   -0.145183
    10  C   -0.196340
    11  C    0.057788
    12  C    0.066131
    13  C   -0.258514
    14  C    0.084852
    15  C    0.090687
    16  C   -0.173010
    17  C   -0.198192
    18  C    0.196195
    19  C   -0.374826
    20  C   -0.283180
    21  C    0.120468
    22  C   -0.196324
    23  C   -0.134918
    24  C   -0.187026
    25  C    0.123649
    26  C    0.003835
    27  C    0.066341
    28  C   -0.196181
    29  C   -0.147484
    30  C   -0.135586
    31  C   -0.186548
    32  C    0.123623
    33  C   -0.270650
    34  C    0.124351
    35  C   -0.186422
    36  C   -0.136003
    37  C   -0.135162
    38  C   -0.190773
    39  C    0.065434
    40  C    0.065764
    41  C   -0.190677
    42  C   -0.135293
    43  C   -0.136270
    44  C   -0.188650
    45  C    0.125117
    46  C    0.132216
    47  C   -0.202840
    48  C   -0.134235
    49  C   -0.187085
    50  C    0.125476
    51  C   -0.006567
    52  C    0.060751
    53  C   -0.201924
    54  C   -0.140569
    55  C   -0.135841
    56  C   -0.185915
    57  C    0.124393
    58  C   -0.271453
    59  C    0.125468
    60  C   -0.191107
    61  C   -0.136470
    62  C   -0.135045
    63  C   -0.190509
    64  C    0.066199
    65  C    0.065402
    66  C   -0.190715
    67  C   -0.135066
    68  C   -0.136219
    69  C   -0.186941
    70  C    0.124047
    71  C   -0.192973
    72  C   -0.180680
    73  C   -0.193300
    74  C   -0.178233
    75  C    0.317884
    76  C   -0.149451
    77  C   -0.142800
    78  H    0.135533
    79  H    0.138772
    80  H    0.152866
    81  H    0.139560
    82  H    0.126860
    83  H    0.124400
    84  H    0.130601
    85  H    0.134000
    86  H    0.129367
    87  H    0.120744
    88  H    0.149244
    89  H    0.168817
    90  H    0.145608
    91  H    0.128303
    92  H    0.128912
    93  H    0.138352
    94  H    0.150333
    95  H    0.130711
    96  H    0.128052
    97  H    0.138046
    98  H    0.139220
    99  H    0.129497
   100  H    0.127877
   101  H    0.128368
   102  H    0.128424
   103  H    0.127694
   104  H    0.128752
   105  H    0.141461
   106  H    0.140088
   107  H    0.129744
   108  H    0.138410
   109  H    0.145569
   110  H    0.130908
   111  H    0.130694
   112  H    0.140375
   113  H    0.142768
   114  H    0.130136
   115  H    0.128540
   116  H    0.128949
   117  H    0.129269
   118  H    0.128704
   119  H    0.129419
   120  H    0.137902
   121  H    0.131791
   122  H    0.129996
   123  H    0.129715
   124  H    0.140502
   125  H    0.152719
   126  H    0.138865
 Sum of Mulliken charges =  -0.00000

 Dipole moment (field-independent basis, Debye):
    X=              1.4820    Y=              0.3637    Z=              1.3079  Tot=              2.0098
 Quadrupole moment (field-independent basis, Debye-Ang):
   XX=           -386.1315   YY=           -410.4385   ZZ=           -413.0945
   XY=             -8.4080   XZ=             19.9039   YZ=             -0.9500

 Normal termination of Gaussian 16 at Sat Nov  5 12:11:16 2022.
