 Gaussian 16, Revision B.01,
 Gaussian 16:  ES64L-G16RevB.01 20-Dec-2017

 -----------------------------
 #p b3lyp/6-31g(d) opt SCF=XQC
 -----------------------------

 ------------------------------
 Gaussian input prepared by ASE
 ------------------------------
 Symbolic Z-matrix:
 Charge =  0 Multiplicity = 1

 SCF Done:  E(RB3LYP) =  -2980.43796103     A.U. after   15 cycles
 SCF Done:  E(RB3LYP) =  -2980.45521419     A.U. after   13 cycles
 SCF Done:  E(RB3LYP) =  -2980.45618476     A.U. after   13 cycles
 SCF Done:  E(RB3LYP) =  -2980.45681377     A.U. after   12 cycles
 SCF Done:  E(RB3LYP) =  -2980.45715472     A.U. after   12 cycles
 SCF Done:  E(RB3LYP) =  -2980.45719517     A.U. after   11 cycles
 SCF Done:  E(RB3LYP) =  -2980.45724593     A.U. after   11 cycles
 SCF Done:  E(RB3LYP) =  -2980.45725987     A.U. after   10 cycles
 SCF Done:  E(RB3LYP) =  -2980.45726716     A.U. after   10 cycles
 SCF Done:  E(RB3LYP) =  -2980.45727102     A.U. after   10 cycles
 SCF Done:  E(RB3LYP) =  -2980.45727515     A.U. after   10 cycles
 SCF Done:  E(RB3LYP) =  -2980.45727984     A.U. after   11 cycles
 SCF Done:  E(RB3LYP) =  -2980.45728518     A.U. after   11 cycles
 SCF Done:  E(RB3LYP) =  -2980.45728951     A.U. after   11 cycles
 SCF Done:  E(RB3LYP) =  -2980.45729336     A.U. after   10 cycles
 SCF Done:  E(RB3LYP) =  -2980.45729444     A.U. after   10 cycles
 SCF Done:  E(RB3LYP) =  -2980.45729460     A.U. after    7 cycles
 SCF Done:  E(RB3LYP) =  -2980.45729483     A.U. after    9 cycles
 SCF Done:  E(RB3LYP) =  -2980.45729476     A.U. after    9 cycles
 Optimization completed on the basis of negligible forces.
    -- Stationary point found.

                         Standard orientation:
 ---------------------------------------------------------------------
 Center     Atomic      Atomic             Coordinates (Angstroms)
 Number     Number       Type             X           Y           Z
 ---------------------------------------------------------------------
      1          6           0      -11.578634   -2.495977    3.584609
      2          6           0      -11.685896   -1.244196    2.975373
      3          6           0      -10.886300   -0.923434    1.878631
      4          6           0       -9.984429   -1.867650    1.371557
      5          7           0       -9.173945   -1.548578    0.248528
      6          6           0       -9.635757   -1.109940   -0.998822
      7          6           0      -10.947052   -0.919945   -1.443316
      8          6           0      -11.130563   -0.489739   -2.755824
      9          6           0      -10.039424   -0.258044   -3.610970
     10          6           0       -8.736337   -0.462222   -3.166563
     11          6           0       -8.523752   -0.894888   -1.852575
     12          6           0       -7.337880   -1.218910   -1.086288
     13          6           0       -5.970917   -1.187220   -1.372770
     14          6           0       -5.037635   -1.541553   -0.390289
     15          6           0       -3.581756   -1.517516   -0.679793
     16          6           0       -3.079782   -1.916501   -1.929491
     17          6           0       -1.714360   -1.883950   -2.200705
     18          6           0       -0.785331   -1.461938   -1.239773
     19          6           0        0.699514   -1.509407   -1.555482
     20          6           0        1.590756   -0.403875   -0.925253
     21          6           0        1.185089    1.024277   -1.289082
     22          6           0        0.474124    1.296448   -2.467171
     23          6           0        0.094271    2.590514   -2.829605
     24          6           0        0.409789    3.671533   -2.007965
     25          6           0        1.111459    3.425920   -0.835858
     26          6           0        1.514094    2.124529   -0.465623
     27          6           0        2.239545    2.227005    0.824307
     28          6           0        2.871759    1.276591    1.637337
     29          6           0        3.471161    1.682190    2.832746
     30          6           0        3.459233    3.022947    3.224677
     31          6           0        2.845548    3.981997    2.414253
     32          6           0        2.245168    3.579269    1.228372
     33          6           0        1.539547    4.460607    0.202733
     34          6           0        0.375621    5.274699    0.777416
     35          6           0       -0.762853    4.817581    1.430099
     36          6           0       -1.706166    5.749501    1.876459
     37          6           0       -1.506933    7.119064    1.669335
     38          6           0       -0.363775    7.580458    1.013035
     39          6           0        0.578856    6.651852    0.566420
     40          6           0        1.852840    6.835526   -0.142953
     41          6           0        2.499687    7.993068   -0.581234
     42          6           0        3.724392    7.872708   -1.241583
     43          6           0        4.295367    6.614028   -1.460962
     44          6           0        3.649129    5.453045   -1.022639
     45          6           0        2.430200    5.571008   -0.365834
     46          6           0        3.059352   -0.709573   -1.250756
     47          6           0        3.686050   -0.069289   -2.329633
     48          6           0        5.011996   -0.327650   -2.680726
     49          6           0        5.770941   -1.236423   -1.943572
     50          6           0        5.169283   -1.883674   -0.873604
     51          6           0        3.820428   -1.652410   -0.524533
     52          6           0        3.501640   -2.516521    0.639402
     53          6           0        2.325078   -2.734248    1.370866
     54          6           0        2.334679   -3.629186    2.444389
     55          6           0        3.498593   -4.315655    2.796272
     56          6           0        4.674177   -4.117889    2.066173
     57          6           0        4.666241   -3.228538    0.999942
     58          6           0        5.827818   -2.884895    0.072514
     59          6           0        7.051081   -2.318796    0.803399
     60          6           0        7.133486   -1.189608    1.609334
     61          6           0        8.366180   -0.857802    2.182069
     62          6           0        9.496654   -1.648520    1.947230
     63          6           0        9.416141   -2.781532    1.134736
     64          6           0        8.187033   -3.114377    0.561318
     65          6           0        7.804965   -4.221664   -0.326365
     66          6           0        8.557243   -5.270708   -0.859171
     67          6           0        7.927355   -6.197291   -1.692944
     68          6           0        6.565202   -6.078145   -1.990551
     69          6           0        5.809580   -5.028253   -1.457254
     70          6           0        6.434556   -4.105126   -0.627613
     71          6           0       -1.285255   -1.063146    0.007316
     72          6           0       -2.651380   -1.088744    0.280919
     73          6           0       -5.510032   -1.920254    0.888349
     74          6           0       -6.864618   -1.960339    1.200959
     75          6           0       -7.777932   -1.615774    0.201280
     76          6           0       -9.883108   -3.127341    1.975627
     77          6           0      -10.672164   -3.432781    3.084334
     78          1           0      -12.197372   -2.739817    4.443555
     79          1           0      -12.384400   -0.507261    3.362230
     80          1           0      -10.946548    0.057398    1.417418
     81          1           0      -11.794980   -1.105505   -0.792363
     82          1           0      -12.141007   -0.333458   -3.123887
     83          1           0      -10.216960    0.079326   -4.628137
     84          1           0       -7.893678   -0.291797   -3.831626
     85          1           0       -5.628076   -0.857429   -2.349623
     86          1           0       -3.766308   -2.276989   -2.690827
     87          1           0       -1.359636   -2.207360   -3.177480
     88          1           0        0.841212   -1.513460   -2.642507
     89          1           0        1.102843   -2.473242   -1.216347
     90          1           0        1.475921   -0.485323    0.158178
     91          1           0        0.192469    0.477391   -3.119494
     92          1           0       -0.458148    2.748636   -3.751877
     93          1           0        0.110619    4.681838   -2.272940
     94          1           0        2.923942    0.232605    1.359023
     95          1           0        3.953372    0.938654    3.462163
     96          1           0        3.931118    3.322079    4.156729
     97          1           0        2.837557    5.029089    2.705272
     98          1           0       -0.920089    3.754273    1.590389
     99          1           0       -2.601573    5.406037    2.387456
    100          1           0       -2.249128    7.830458    2.021807
    101          1           0       -0.214280    8.645458    0.854087
    102          1           0        2.060639    8.973307   -0.413267
    103          1           0        4.238852    8.765142   -1.588120
    104          1           0        5.249231    6.537018   -1.975875
    105          1           0        4.094146    4.476235   -1.192911
    106          1           0        3.123092    0.661101   -2.901574
    107          1           0        5.454456    0.193177   -3.525687
    108          1           0        6.809636   -1.432045   -2.195127
    109          1           0        1.396445   -2.237282    1.118848
    110          1           0        1.419104   -3.793200    3.006261
    111          1           0        3.489596   -5.009159    3.632674
    112          1           0        5.582849   -4.654658    2.325498
    113          1           0        6.258709   -0.569769    1.788398
    114          1           0        8.446071    0.023130    2.813247
    115          1           0       10.446893   -1.377114    2.399462
    116          1           0       10.298126   -3.390512    0.952951
    117          1           0        9.615828   -5.367777   -0.631699
    118          1           0        8.500766   -7.018478   -2.114815
    119          1           0        6.089656   -6.806975   -2.641329
    120          1           0        4.751681   -4.937488   -1.689181
    121          1           0       -0.608999   -0.703101    0.778145
    122          1           0       -3.004470   -0.741491    1.248142
    123          1           0       -4.790489   -2.213520    1.647239
    124          1           0       -7.195827   -2.255530    2.191081
    125          1           0       -9.195736   -3.861029    1.566150
    126          1           0      -10.586827   -4.411384    3.548753
 ---------------------------------------------------------------------

 The electronic state is 1-A.
 Alpha  occ. eigenvalues --  -14.38235 -10.24048 -10.22366 -10.22359 -10.21144
 Alpha  occ. eigenvalues --  -10.20847 -10.20219 -10.20214 -10.20200 -10.20121
 Alpha  occ. eigenvalues --  -10.20118 -10.19971 -10.19826 -10.19795 -10.19588
 Alpha  occ. eigenvalues --  -10.19532 -10.19396 -10.19313 -10.19291 -10.19285
 Alpha  occ. eigenvalues --  -10.19255 -10.19251 -10.19244 -10.19210 -10.19198
 Alpha  occ. eigenvalues --  -10.19137 -10.19101 -10.19075 -10.19060 -10.19024
 Alpha  occ. eigenvalues --  -10.19019 -10.18993 -10.18992 -10.18989 -10.18974
 Alpha  occ. eigenvalues --  -10.18961 -10.18953 -10.18939 -10.18910 -10.18906
 Alpha  occ. eigenvalues --  -10.18856 -10.18849 -10.18843 -10.18841 -10.18797
 Alpha  occ. eigenvalues --  -10.18785 -10.18765 -10.18760 -10.18757 -10.18750
 Alpha  occ. eigenvalues --  -10.18746 -10.18727 -10.18688 -10.18685 -10.18674
 Alpha  occ. eigenvalues --  -10.18670 -10.18653 -10.18640 -10.18614 -10.18596
 Alpha  occ. eigenvalues --  -10.18593 -10.18539 -10.18533 -10.18511 -10.18459
 Alpha  occ. eigenvalues --  -10.18446 -10.18437 -10.18397 -10.18389 -10.18346
 Alpha  occ. eigenvalues --  -10.18319 -10.18289 -10.18266 -10.18260 -10.18209
 Alpha  occ. eigenvalues --  -10.18174 -10.18081  -0.98949  -0.90040  -0.89727
 Alpha  occ. eigenvalues --   -0.87268  -0.87143  -0.86744  -0.85880  -0.84767
 Alpha  occ. eigenvalues --   -0.84102  -0.84094  -0.83946  -0.83885  -0.83757
 Alpha  occ. eigenvalues --   -0.81644  -0.80398  -0.79604  -0.78640  -0.78133
 Alpha  occ. eigenvalues --   -0.77861  -0.76914  -0.76410  -0.75950  -0.75692
 Alpha  occ. eigenvalues --   -0.75343  -0.74318  -0.74201  -0.74006  -0.73880
 Alpha  occ. eigenvalues --   -0.73814  -0.73788  -0.73571  -0.72058  -0.71427
 Alpha  occ. eigenvalues --   -0.71323  -0.71163  -0.71020  -0.70948  -0.69411
 Alpha  occ. eigenvalues --   -0.67986  -0.67680  -0.65633  -0.64249  -0.63483
 Alpha  occ. eigenvalues --   -0.63066  -0.62587  -0.62237  -0.61934  -0.61342
 Alpha  occ. eigenvalues --   -0.60605  -0.60349  -0.60064  -0.59757  -0.58272
 Alpha  occ. eigenvalues --   -0.58171  -0.58009  -0.57953  -0.57732  -0.57369
 Alpha  occ. eigenvalues --   -0.57288  -0.57070  -0.56952  -0.56926  -0.56518
 Alpha  occ. eigenvalues --   -0.55806  -0.54064  -0.53808  -0.51950  -0.51690
 Alpha  occ. eigenvalues --   -0.51457  -0.51378  -0.50397  -0.50106  -0.49933
 Alpha  occ. eigenvalues --   -0.49131  -0.49075  -0.48909  -0.48818  -0.48043
 Alpha  occ. eigenvalues --   -0.47651  -0.47623  -0.46928  -0.46679  -0.46582
 Alpha  occ. eigenvalues --   -0.46240  -0.45559  -0.45392  -0.45140  -0.44789
 Alpha  occ. eigenvalues --   -0.44649  -0.44219  -0.44023  -0.43895  -0.43833
 Alpha  occ. eigenvalues --   -0.43754  -0.43622  -0.43413  -0.43272  -0.43215
 Alpha  occ. eigenvalues --   -0.42945  -0.42896  -0.42757  -0.42694  -0.42361
 Alpha  occ. eigenvalues --   -0.41892  -0.41772  -0.41666  -0.41586  -0.41496
 Alpha  occ. eigenvalues --   -0.41440  -0.41273  -0.41194  -0.41079  -0.40963
 Alpha  occ. eigenvalues --   -0.40859  -0.40424  -0.39714  -0.39250  -0.38972
 Alpha  occ. eigenvalues --   -0.38306  -0.38068  -0.37706  -0.37578  -0.37539
 Alpha  occ. eigenvalues --   -0.37399  -0.36915  -0.36697  -0.36422  -0.36298
 Alpha  occ. eigenvalues --   -0.36115  -0.35850  -0.35798  -0.35605  -0.35582
 Alpha  occ. eigenvalues --   -0.35106  -0.34937  -0.34809  -0.34757  -0.34611
 Alpha  occ. eigenvalues --   -0.34474  -0.34378  -0.34280  -0.34133  -0.34056
 Alpha  occ. eigenvalues --   -0.33686  -0.33498  -0.33386  -0.33203  -0.32937
 Alpha  occ. eigenvalues --   -0.32877  -0.32706  -0.32456  -0.32099  -0.31978
 Alpha  occ. eigenvalues --   -0.31640  -0.31116  -0.27978  -0.27962  -0.27863
 Alpha  occ. eigenvalues --   -0.27746  -0.27661  -0.26388  -0.26189  -0.26067
 Alpha  occ. eigenvalues --   -0.25834  -0.25621  -0.24476  -0.24326  -0.24116
 Alpha  occ. eigenvalues --   -0.24090  -0.23821  -0.23444  -0.23360  -0.22746
 Alpha  occ. eigenvalues --   -0.21727  -0.21444  -0.21001  -0.20764  -0.20463
 Alpha  occ. eigenvalues --   -0.19149
 Alpha virt. eigenvalues --   -0.03255  -0.02930  -0.02814  -0.02701  -0.02632
 Alpha virt. eigenvalues --   -0.01986  -0.01287  -0.01230  -0.01197  -0.01192
 Alpha virt. eigenvalues --   -0.00964  -0.00745   0.00136   0.00284   0.00709

 Mulliken charges:
               1
     1  C   -0.121256
     2  C   -0.142801
     3  C   -0.149093
     4  C    0.264037
     5  N   -0.736558
     6  C    0.311496
     7  C   -0.176522
     8  C   -0.141654
     9  C   -0.145182
    10  C   -0.196356
    11  C    0.057792
    12  C    0.066117
    13  C   -0.258504
    14  C    0.084855
    15  C    0.090688
    16  C   -0.173009
    17  C   -0.198196
    18  C    0.196193
    19  C   -0.374839
    20  C   -0.283152
    21  C    0.120488
    22  C   -0.196326
    23  C   -0.134922
    24  C   -0.187039
    25  C    0.123665
    26  C    0.003823
    27  C    0.066338
    28  C   -0.196162
    29  C   -0.147494
    30  C   -0.135583
    31  C   -0.186544
    32  C    0.123613
    33  C   -0.270648
    34  C    0.124362
    35  C   -0.186423
    36  C   -0.136003
    37  C   -0.135156
    38  C   -0.190768
    39  C    0.065419
    40  C    0.065752
    41  C   -0.190677
    42  C   -0.135291
    43  C   -0.136267
    44  C   -0.188657
    45  C    0.125121
    46  C    0.132210
    47  C   -0.202840
    48  C   -0.134241
    49  C   -0.187072
    50  C    0.125480
    51  C   -0.006594
    52  C    0.060762
    53  C   -0.201914
    54  C   -0.140578
    55  C   -0.135849
    56  C   -0.185887
    57  C    0.124390
    58  C   -0.271489
    59  C    0.125481
    60  C   -0.191116
    61  C   -0.136461
    62  C   -0.135049
    63  C   -0.190507
    64  C    0.066194
    65  C    0.065410
    66  C   -0.190713
    67  C   -0.135070
    68  C   -0.136215
    69  C   -0.186948
    70  C    0.124046
    71  C   -0.192975
    72  C   -0.180676
    73  C   -0.193306
    74  C   -0.178235
    75  C    0.317894
    76  C   -0.149452
    77  C   -0.142796
    78  H    0.135533
    79  H    0.138772
    80  H    0.152867
    81  H    0.139561
    82  H    0.126858
    83  H    0.124400
    84  H    0.130602
    85  H    0.133999
    86  H    0.129368
    87  H    0.120746
    88  H    0.149247
    89  H    0.168815
    90  H    0.145603
    91  H    0.128306
    92  H    0.128912
    93  H    0.138354
    94  H    0.150329
    95  H    0.130714
    96  H    0.128052
    97  H    0.138046
    98  H    0.139217
    99  H    0.129496
   100  H    0.127875
   101  H    0.128367
   102  H    0.128423
   103  H    0.127694
   104  H    0.128752
   105  H    0.141466
   106  H    0.140090
   107  H    0.129745
   108  H    0.138410
   109  H    0.145567
   110  H    0.130908
   111  H    0.130695
   112  H    0.140374
   113  H    0.142767
   114  H    0.130136
   115  H    0.128540
   116  H    0.128949
   117  H    0.129270
   118  H    0.128704
   119  H    0.129419
   120  H    0.137907
   121  H    0.131789
   122  H    0.129996
   123  H    0.129717
   124  H    0.140502
   125  H    0.152719
   126  H    0.138864
 Sum of Mulliken charges =  -0.00000

 Dipole moment (field-independent basis, Debye):
    X=             -1.3502    Y=             -0.6475    Z=              1.3405  Tot=              2.0098
 Quadrupole moment (field-independent basis, Debye-Ang):
   XX=           -381.6346   YY=           -414.4951   ZZ=           -413.4055
   XY=             -1.3323   XZ=            -17.6266   YZ=             -5.5309

 1\1\GINC-NODE42\FOpt\RB3LYP\6-31G(d)\C76H49N1\WYKGROUP\05-Nov-2022\0\\
 #p b3lyp/6-31g(d) opt SCF=XQC\\Gaussian input prepared by ASE\\0,1\C,1
 1.7207794162,-0.874346502,3.7754381114\C,11.4186552283,-2.1675103695,3
 .3440708551\C,10.5624369722,-2.3672032009,2.2614369876\C,10.0174135096
 ,-1.2657450751,1.5892919482\N,9.1515441783,-1.4640934705,0.4798714487\
 C,9.4509153161,-2.1998009742,-0.673674129\C,10.6314303381,-2.861024259
 2,-1.0234406922\C,10.6705235088,-3.5088840452,-2.2563960235\C,9.566478
 2084,-3.4974643001,-3.1261641125\C,8.3983279851,-2.8256002809,-2.77796

 Normal termination of Gaussian 16 at Sat Nov  5 03:07:15 2022.
