 Gaussian 16, Revision B.01,
 Gaussian 16:  ES64L-G16RevB.01 20-Dec-2017

 -------------------------------------------------------------------
 #p b3lyp/6-31g(d) 6D 10F nosymm GFInput td=(50-50,nstate=2) SCF=XQC
 -------------------------------------------------------------------

 ------------------------------
 Gaussian input prepared by ASE
 ------------------------------
 Symbolic Z-matrix:
 Charge =  0 Multiplicity = 1

                          Input orientation:
 ---------------------------------------------------------------------
 Center     Atomic      Atomic             Coordinates (Angstroms)
 Number     Number       Type             X           Y           Z
 ---------------------------------------------------------------------
      1          6           0       -5.199716   -2.095563    1.371520
      2          6           0       -4.002386   -1.422169    2.068302
      3          6           0       -2.712077   -1.008352    1.304712
      4          6           0       -1.890178   -2.170866    0.750003
      5          6           0       -2.182765   -3.530508    0.894634
      6          6           0       -1.245398   -4.510370    0.554196
      7          6           0        0.013977   -4.143556    0.080520
      8          6           0        0.334975   -2.796303   -0.080596
      9          6           0       -0.618922   -1.829545    0.245974
     10          7           0       -0.407808   -0.451364    0.074561
     11          6           0        0.752001    0.284256    0.092931
     12          7           0        1.942302   -0.082156    0.506843
     13          6           0        2.896687    0.900539    0.448041
     14          6           0        4.279634    0.519565    0.912080
     15          6           0        4.941492   -0.551353    0.009638
     16          6           0        6.304790   -0.975126    0.510711
     17          6           0        6.431496   -1.980171    1.480097
     18          6           0        7.683610   -2.350077    1.971973
     19          6           0        8.836487   -1.718980    1.500344
     20          6           0        8.725759   -0.717758    0.534135
     21          6           0        7.470465   -0.351393    0.046072
     22          6           0        2.598907    2.164156   -0.031578
     23          7           0        1.360687    2.528623   -0.478655
     24          6           0        0.460116    1.581389   -0.414134
     25          7           0       -0.878319    1.624869   -0.822265
     26          6           0       -1.340239    2.518220   -1.827088
     27          6           0       -2.151161    2.084118   -2.887267
     28          6           0       -2.586293    2.985526   -3.859041
     29          6           0       -2.212559    4.327523   -3.802934
     30          6           0       -1.396478    4.759265   -2.756071
     31          6           0       -0.966614    3.872702   -1.770821
     32          6           0       -1.511368    0.313020   -0.536499
     33          6           0       -2.798369    0.299533    0.382527
     34          6           0       -4.066046    0.351718   -0.509563
     35          6           0       -4.271654   -0.787631   -1.522297
     36          6           0       -2.781607    1.500375    1.386463
     37          6           0       -3.386424    2.845176    0.960648
     38          1           0       -5.762912   -1.410405    0.734588
     39          1           0       -5.892183   -2.461722    2.138985
     40          1           0       -4.915595   -2.953065    0.756088
     41          1           0       -3.663791   -2.095669    2.866550
     42          1           0       -4.380189   -0.535542    2.591546
     43          1           0       -2.060255   -0.651811    2.117587
     44          1           0       -3.133227   -3.842737    1.310881
     45          1           0       -1.497122   -5.559812    0.679988
     46          1           0        0.748387   -4.904235   -0.169609
     47          1           0        1.311407   -2.488864   -0.436121
     48          1           0        4.916876    1.410909    0.949130
     49          1           0        4.221389    0.125442    1.934852
     50          1           0        5.023487   -0.153285   -1.009472
     51          1           0        4.269968   -1.416198   -0.038785
     52          1           0        5.537828   -2.479957    1.848552
     53          1           0        7.759502   -3.134925    2.720412
     54          1           0        9.813031   -2.008154    1.879741
     55          1           0        9.617408   -0.223708    0.156282
     56          1           0        7.392730    0.426528   -0.710966
     57          1           0        3.362532    2.935899   -0.074461
     58          1           0       -2.438597    1.043398   -2.973492
     59          1           0       -3.214003    2.625593   -4.670009
     60          1           0       -2.551647    5.025877   -4.562622
     61          1           0       -1.093793    5.801274   -2.695172
     62          1           0       -0.329942    4.214126   -0.965885
     63          1           0       -1.762426   -0.184846   -1.480053
     64          1           0       -4.066489    1.300337   -1.057521
     65          1           0       -4.937372    0.404481    0.152062
     66          1           0       -4.137773   -1.777040   -1.079446
     67          1           0       -5.286295   -0.740363   -1.934316
     68          1           0       -3.585121   -0.723045   -2.373405
     69          1           0       -3.314801    1.185173    2.290739
     70          1           0       -1.742215    1.657267    1.701638
     71          1           0       -3.252863    3.570347    1.772143
     72          1           0       -2.920079    3.264857    0.067412
     73          1           0       -4.462862    2.766546    0.774045
 ---------------------------------------------------------------------

 SCF Done:  E(RB3LYP) =  -1498.19798528     A.U. after   15 cycles

 Excitation energies and oscillator strengths:

 Excited state symmetry could not be determined.
 Excited State   1:      Triplet-?Sym    2.6870 eV  461.42 nm  f=0.0000  <S**2>=2.000
     131 ->132         0.68633
     131 ->138         0.11083
 This state for optimization and/or second-order correction.
 Total Energy, E(TD-HF/TD-DFT) =  -1498.09923848
 Copying the excited state density for this state as the 1-particle RhoCI density.

 Excited state symmetry could not be determined.
 Excited State   2:      Triplet-?Sym    3.2130 eV  385.89 nm  f=0.0000  <S**2>=2.000
     130 ->132         0.23165
     131 ->133         0.56175
     131 ->139        -0.23416

 Excited state symmetry could not be determined.
 Excited State   3:      Singlet-?Sym    3.6645 eV  338.33 nm  f=0.3086  <S**2>=0.000
     131 ->132         0.69753

 Excited state symmetry could not be determined.
 Excited State   4:      Singlet-?Sym    4.1400 eV  299.48 nm  f=0.2656  <S**2>=0.000
     131 ->133         0.69647

 Alpha  occ. eigenvalues --  -14.37747 -14.37562 -14.33072 -14.32791 -10.27353
 Alpha  occ. eigenvalues --  -10.26102 -10.25831 -10.23544 -10.22825 -10.21520
 Alpha  occ. eigenvalues --  -10.21225 -10.20632 -10.20464 -10.19800 -10.19279
 Alpha  occ. eigenvalues --  -10.19235 -10.19213 -10.18984 -10.18976 -10.18923
 Alpha  occ. eigenvalues --  -10.18803 -10.18745 -10.18698 -10.18667 -10.18622
 Alpha  occ. eigenvalues --  -10.18451 -10.18348 -10.18272 -10.18263 -10.18249
 Alpha  occ. eigenvalues --  -10.18126 -10.18118 -10.18020 -10.18009 -10.17981
 Alpha  occ. eigenvalues --  -10.17971 -10.16933  -1.02857  -0.95468  -0.94616
 Alpha  occ. eigenvalues --   -0.88929  -0.85826  -0.84693  -0.84278  -0.83282
 Alpha  occ. eigenvalues --   -0.79409  -0.78234  -0.77076  -0.75515  -0.75292
 Alpha  occ. eigenvalues --   -0.74599  -0.74478  -0.73489  -0.73326  -0.72235
 Alpha  occ. eigenvalues --   -0.70515  -0.67985  -0.65938  -0.65236  -0.65051
 Alpha  occ. eigenvalues --   -0.62267  -0.61880  -0.61151  -0.60631  -0.59630
 Alpha  occ. eigenvalues --   -0.58571  -0.57824  -0.57507  -0.56868  -0.54389
 Alpha  occ. eigenvalues --   -0.53250  -0.52973  -0.51531  -0.50534  -0.50307
 Alpha  occ. eigenvalues --   -0.49829  -0.49615  -0.47368  -0.46744  -0.46295
 Alpha  occ. eigenvalues --   -0.45661  -0.45157  -0.45010  -0.44830  -0.44002
 Alpha  occ. eigenvalues --   -0.43835  -0.43273  -0.43019  -0.42915  -0.42225
 Alpha  occ. eigenvalues --   -0.41879  -0.41726  -0.41249  -0.40987  -0.40689
 Alpha  occ. eigenvalues --   -0.40444  -0.40332  -0.40023  -0.39002  -0.38216
 Alpha  occ. eigenvalues --   -0.37855  -0.37258  -0.36977  -0.36830  -0.36557
 Alpha  occ. eigenvalues --   -0.36284  -0.36062  -0.35252  -0.35125  -0.34793
 Alpha  occ. eigenvalues --   -0.34460  -0.34277  -0.33903  -0.33729  -0.33235
 Alpha  occ. eigenvalues --   -0.32856  -0.32699  -0.32306  -0.31381  -0.30872
 Alpha  occ. eigenvalues --   -0.29940  -0.29516  -0.28620  -0.25411  -0.25025
 Alpha  occ. eigenvalues --   -0.24505  -0.24204  -0.24139  -0.23194  -0.21953
 Alpha  occ. eigenvalues --   -0.18219
 Alpha virt. eigenvalues --   -0.03089  -0.00778  -0.00227  -0.00184   0.00661
 Alpha virt. eigenvalues --    0.00772   0.01124   0.02448   0.06995   0.08030
 Alpha virt. eigenvalues --    0.09395   0.09798   0.10365   0.10415   0.10788

 Mulliken charges:
               1
     1  C   -0.456885
     2  C   -0.280055
     3  C   -0.190696
     4  C    0.114880
     5  C   -0.220823
     6  C   -0.124026
     7  C   -0.150735
     8  C   -0.145262
     9  C    0.261811
    10  N   -0.673340
    11  C    0.566672
    12  N   -0.567164
    13  C    0.296029
    14  C   -0.329456
    15  C   -0.352780
    16  C    0.173287
    17  C   -0.181693
    18  C   -0.128199
    19  C   -0.131828
    20  C   -0.128050
    21  C   -0.182109
    22  C   -0.047834
    23  N   -0.509697
    24  C    0.502022
    25  N   -0.637120
    26  C    0.279749
    27  C   -0.163894
    28  C   -0.148847
    29  C   -0.125014
    30  C   -0.143541
    31  C   -0.140736
    32  C    0.199154
    33  C    0.122246
    34  C   -0.300530
    35  C   -0.470968
    36  C   -0.292884
    37  C   -0.465834
    38  H    0.155259
    39  H    0.144345
    40  H    0.154453
    41  H    0.145582
    42  H    0.141841
    43  H    0.165365
    44  H    0.131380
    45  H    0.126625
    46  H    0.131900
    47  H    0.158958
    48  H    0.143762
    49  H    0.156644
    50  H    0.140902
    51  H    0.161822
    52  H    0.126451
    53  H    0.126453
    54  H    0.125534
    55  H    0.126125
    56  H    0.121029
    57  H    0.133391
    58  H    0.134095
    59  H    0.130818
    60  H    0.128503
    61  H    0.133756
    62  H    0.166921
    63  H    0.155368
    64  H    0.159235
    65  H    0.142631
    66  H    0.166968
    67  H    0.146729
    68  H    0.147676
    69  H    0.140428
    70  H    0.145232
    71  H    0.142001
    72  H    0.173719
    73  H    0.142252
 Sum of Mulliken charges =  -0.00000

 Dipole moment (field-independent basis, Debye):
    X=             -2.7361    Y=             -0.6849    Z=             -0.1976  Tot=              2.8274
 Quadrupole moment (field-independent basis, Debye-Ang):
   XX=           -207.0965   YY=           -212.8107   ZZ=           -215.3451
   XY=              2.5155   XZ=              0.6357   YZ=             -4.0290

 Normal termination of Gaussian 16 at Sat Nov  5 10:25:03 2022.
