 Gaussian 16, Revision B.01,
 Gaussian 16:  ES64L-G16RevB.01 20-Dec-2017

 -----------------------------
 #p b3lyp/6-31g(d) opt SCF=XQC
 -----------------------------

 ------------------------------
 Gaussian input prepared by ASE
 ------------------------------
 Symbolic Z-matrix:
 Charge =  0 Multiplicity = 1

 SCF Done:  E(RB3LYP) =  -1498.18314379     A.U. after   16 cycles
 SCF Done:  E(RB3LYP) =  -1498.19084742     A.U. after   13 cycles
 SCF Done:  E(RB3LYP) =  -1498.19147772     A.U. after   12 cycles
 SCF Done:  E(RB3LYP) =  -1498.19377382     A.U. after   12 cycles
 SCF Done:  E(RB3LYP) =  -1498.19374402     A.U. after   12 cycles
 SCF Done:  E(RB3LYP) =  -1498.19475352     A.U. after   11 cycles
 SCF Done:  E(RB3LYP) =  -1498.19488188     A.U. after   12 cycles
 SCF Done:  E(RB3LYP) =  -1498.19515466     A.U. after   11 cycles
 SCF Done:  E(RB3LYP) =  -1498.19525760     A.U. after   12 cycles
 SCF Done:  E(RB3LYP) =  -1498.19552499     A.U. after   11 cycles
 SCF Done:  E(RB3LYP) =  -1498.19657870     A.U. after   13 cycles
 SCF Done:  E(RB3LYP) =  -1498.19792081     A.U. after   12 cycles
 SCF Done:  E(RB3LYP) =  -1498.19792990     A.U. after   10 cycles
 SCF Done:  E(RB3LYP) =  -1498.19794451     A.U. after   10 cycles
 SCF Done:  E(RB3LYP) =  -1498.19794675     A.U. after   11 cycles
 SCF Done:  E(RB3LYP) =  -1498.19798454     A.U. after   11 cycles
 SCF Done:  E(RB3LYP) =  -1498.19798584     A.U. after    9 cycles
 SCF Done:  E(RB3LYP) =  -1498.19799001     A.U. after    9 cycles
 SCF Done:  E(RB3LYP) =  -1498.19798571     A.U. after   10 cycles
 SCF Done:  E(RB3LYP) =  -1498.19799097     A.U. after    9 cycles
 Optimization completed.
    -- Stationary point found.

                         Standard orientation:
 ---------------------------------------------------------------------
 Center     Atomic      Atomic             Coordinates (Angstroms)
 Number     Number       Type             X           Y           Z
 ---------------------------------------------------------------------
      1          6           0       -4.795810   -3.706495    0.643637
      2          6           0       -3.648098   -3.139101    1.500016
      3          6           0       -2.572988   -2.172300    0.926739
      4          6           0       -1.647729   -2.786161   -0.122895
      5          6           0       -1.673519   -4.110230   -0.571591
      6          6           0       -0.637211   -4.626753   -1.355142
      7          6           0        0.457448   -3.828916   -1.686995
      8          6           0        0.510728   -2.502664   -1.260022
      9          6           0       -0.541363   -1.995565   -0.493772
     10          7           0       -0.602014   -0.661913   -0.056703
     11          6           0        0.401277    0.234548    0.219692
     12          7           0        1.684142    0.000824    0.368114
     13          6           0        2.432961    1.102196    0.694069
     14          6           0        3.913194    0.877135    0.870919
     15          6           0        4.616795    0.453637   -0.442442
     16          6           0        6.090690    0.171079   -0.249996
     17          6           0        6.528976   -1.091270    0.174573
     18          6           0        7.883805   -1.346936    0.388196
     19          6           0        8.828654   -0.340224    0.179306
     20          6           0        8.407056    0.920944   -0.244929
     21          6           0        7.050295    1.171200   -0.456506
     22          6           0        1.852669    2.351138    0.831327
     23          7           0        0.518730    2.586412    0.654818
     24          6           0       -0.183076    1.525781    0.346639
     25          7           0       -1.552750    1.439616    0.070163
     26          6           0       -2.303024    2.544439   -0.417248
     27          6           0       -3.168267    2.424436   -1.515871
     28          6           0       -3.889139    3.528501   -1.971507
     29          6           0       -3.752523    4.771287   -1.354579
     30          6           0       -2.883744    4.895887   -0.269218
     31          6           0       -2.168682    3.798149    0.205284
     32          6           0       -1.898384    0.024062   -0.212860
     33          6           0       -3.018294   -0.653541    0.674731
     34          6           0       -4.389737   -0.514988   -0.036252
     35          6           0       -4.534857   -1.143766   -1.432532
     36          6           0       -3.069167   -0.008393    2.099998
     37          6           0       -3.955086    1.222230    2.337329
     38          1           0       -5.555630   -2.960774    0.400969
     39          1           0       -5.296393   -4.501351    1.209505
     40          1           0       -4.456571   -4.144291   -0.298723
     41          1           0       -3.086044   -3.991099    1.904543
     42          1           0       -4.096873   -2.657840    2.377294
     43          1           0       -1.884453   -2.052768    1.777851
     44          1           0       -2.485061   -4.768049   -0.283840
     45          1           0       -0.680311   -5.660328   -1.687381
     46          1           0        1.270516   -4.234314   -2.282921
     47          1           0        1.357086   -1.868637   -1.496720
     48          1           0        4.382822    1.788247    1.259849
     49          1           0        4.071775    0.090840    1.620173
     50          1           0        4.481180    1.247112   -1.187943
     51          1           0        4.107500   -0.436904   -0.828187
     52          1           0        5.798830   -1.882165    0.334447
     53          1           0        8.202387   -2.334221    0.713280
     54          1           0        9.884822   -0.538462    0.341823
     55          1           0        9.134899    1.710247   -0.415639
     56          1           0        6.729905    2.155548   -0.792240
     57          1           0        2.454961    3.217814    1.089522
     58          1           0       -3.277984    1.478963   -2.032780
     59          1           0       -4.553319    3.410487   -2.823668
     60          1           0       -4.313908    5.629052   -1.713596
     61          1           0       -2.763019    5.856395    0.224705
     62          1           0       -1.493387    3.904318    1.043467
     63          1           0       -2.190432   -0.077588   -1.264322
     64          1           0       -4.634908    0.549916   -0.113764
     65          1           0       -5.153163   -0.935548    0.627111
     66          1           0       -4.167575   -2.171545   -1.474300
     67          1           0       -5.590356   -1.153742   -1.728020
     68          1           0       -3.999099   -0.581447   -2.204961
     69          1           0       -3.403997   -0.780211    2.802529
     70          1           0       -2.039218    0.227457    2.396420
     71          1           0       -3.836240    1.553542    3.375763
     72          1           0       -3.702124    2.066921    1.693909
     73          1           0       -5.016476    0.993751    2.192517
 ---------------------------------------------------------------------

 The electronic state is 1-A.
 Alpha  occ. eigenvalues --  -14.37747 -14.37562 -14.33072 -14.32791 -10.27353
 Alpha  occ. eigenvalues --  -10.26102 -10.25831 -10.23544 -10.22825 -10.21520
 Alpha  occ. eigenvalues --  -10.21225 -10.20632 -10.20464 -10.19800 -10.19279
 Alpha  occ. eigenvalues --  -10.19235 -10.19213 -10.18984 -10.18976 -10.18923
 Alpha  occ. eigenvalues --  -10.18803 -10.18745 -10.18698 -10.18667 -10.18622
 Alpha  occ. eigenvalues --  -10.18451 -10.18349 -10.18272 -10.18263 -10.18249
 Alpha  occ. eigenvalues --  -10.18126 -10.18118 -10.18020 -10.18009 -10.17981
 Alpha  occ. eigenvalues --  -10.17971 -10.16933  -1.02857  -0.95468  -0.94616
 Alpha  occ. eigenvalues --   -0.88929  -0.85826  -0.84693  -0.84278  -0.83282
 Alpha  occ. eigenvalues --   -0.79409  -0.78234  -0.77076  -0.75515  -0.75292
 Alpha  occ. eigenvalues --   -0.74599  -0.74478  -0.73489  -0.73326  -0.72235
 Alpha  occ. eigenvalues --   -0.70515  -0.67985  -0.65938  -0.65236  -0.65051
 Alpha  occ. eigenvalues --   -0.62267  -0.61880  -0.61151  -0.60631  -0.59630
 Alpha  occ. eigenvalues --   -0.58571  -0.57824  -0.57507  -0.56868  -0.54389
 Alpha  occ. eigenvalues --   -0.53250  -0.52973  -0.51531  -0.50534  -0.50307
 Alpha  occ. eigenvalues --   -0.49829  -0.49615  -0.47368  -0.46744  -0.46295
 Alpha  occ. eigenvalues --   -0.45661  -0.45157  -0.45010  -0.44830  -0.44002
 Alpha  occ. eigenvalues --   -0.43835  -0.43273  -0.43019  -0.42915  -0.42225
 Alpha  occ. eigenvalues --   -0.41879  -0.41726  -0.41249  -0.40987  -0.40689
 Alpha  occ. eigenvalues --   -0.40444  -0.40332  -0.40023  -0.39002  -0.38216
 Alpha  occ. eigenvalues --   -0.37855  -0.37258  -0.36977  -0.36830  -0.36557
 Alpha  occ. eigenvalues --   -0.36284  -0.36062  -0.35252  -0.35125  -0.34793
 Alpha  occ. eigenvalues --   -0.34460  -0.34277  -0.33903  -0.33729  -0.33235
 Alpha  occ. eigenvalues --   -0.32856  -0.32699  -0.32306  -0.31381  -0.30872
 Alpha  occ. eigenvalues --   -0.29940  -0.29516  -0.28620  -0.25411  -0.25025
 Alpha  occ. eigenvalues --   -0.24505  -0.24204  -0.24139  -0.23194  -0.21953
 Alpha  occ. eigenvalues --   -0.18219
 Alpha virt. eigenvalues --   -0.03089  -0.00778  -0.00227  -0.00184   0.00661
 Alpha virt. eigenvalues --    0.00772   0.01124   0.02448   0.06995   0.08030
 Alpha virt. eigenvalues --    0.09395   0.09798   0.10365   0.10415   0.10788

 Mulliken charges:
               1
     1  C   -0.456886
     2  C   -0.280045
     3  C   -0.190728
     4  C    0.114891
     5  C   -0.220829
     6  C   -0.124026
     7  C   -0.150734
     8  C   -0.145262
     9  C    0.261806
    10  N   -0.673321
    11  C    0.566648
    12  N   -0.567140
    13  C    0.296012
    14  C   -0.329451
    15  C   -0.352780
    16  C    0.173285
    17  C   -0.181691
    18  C   -0.128199
    19  C   -0.131827
    20  C   -0.128051
    21  C   -0.182110
    22  C   -0.047821
    23  N   -0.509699
    24  C    0.502031
    25  N   -0.637120
    26  C    0.279762
    27  C   -0.163901
    28  C   -0.148841
    29  C   -0.125023
    30  C   -0.143521
    31  C   -0.140750
    32  C    0.199143
    33  C    0.122260
    34  C   -0.300575
    35  C   -0.470951
    36  C   -0.292902
    37  C   -0.465811
    38  H    0.155261
    39  H    0.144346
    40  H    0.154453
    41  H    0.145583
    42  H    0.141839
    43  H    0.165367
    44  H    0.131381
    45  H    0.126625
    46  H    0.131899
    47  H    0.158959
    48  H    0.143761
    49  H    0.156643
    50  H    0.140902
    51  H    0.161821
    52  H    0.126452
    53  H    0.126453
    54  H    0.125534
    55  H    0.126125
    56  H    0.121030
    57  H    0.133390
    58  H    0.134096
    59  H    0.130817
    60  H    0.128502
    61  H    0.133755
    62  H    0.166923
    63  H    0.155367
    64  H    0.159242
    65  H    0.142638
    66  H    0.166967
    67  H    0.146728
    68  H    0.147677
    69  H    0.140432
    70  H    0.145233
    71  H    0.141998
    72  H    0.173713
    73  H    0.142248
 Sum of Mulliken charges =  -0.00000

 Dipole moment (field-independent basis, Debye):
    X=             -2.5731    Y=             -1.1238    Z=             -0.3315  Tot=              2.8273
 Quadrupole moment (field-independent basis, Debye-Ang):
   XX=           -206.4051   YY=           -208.8325   ZZ=           -218.2110
   XY=              3.0988   XZ=              1.3717   YZ=             -1.3252

 1\1\GINC-NODE40\FOpt\RB3LYP\6-31G(d)\C33H36N4\WYKGROUP\05-Nov-2022\0\\
 #p b3lyp/6-31g(d) opt SCF=XQC\\Gaussian input prepared by ASE\\0,1\C,-
 5.199715952,-2.095563372,1.3715195985\C,-4.0023862919,-1.4221694558,2.
 0683019832\C,-2.7120771913,-1.0083519799,1.3047118913\C,-1.8901775818,
 -2.1708658885,0.7500027285\C,-2.1827652406,-3.5305081149,0.8946335806\
 C,-1.2453981725,-4.5103700648,0.5541960461\C,0.013977469,-4.1435559201
 ,0.0805203678\C,0.3349747856,-2.7963025378,-0.0805957617\C,-0.61892157
 98,-1.829545452,0.2459739892\N,-0.4078075067,-0.4513642053,0.074560952

 Normal termination of Gaussian 16 at Sat Nov  5 01:59:23 2022.
