 Gaussian 16, Revision B.01,
 Gaussian 16:  ES64L-G16RevB.01 20-Dec-2017

 -------------------------------------------------------------------
 #p b3lyp/6-31g(d) 6D 10F nosymm GFInput td=(50-50,nstate=2) SCF=XQC
 -------------------------------------------------------------------

 ------------------------------
 Gaussian input prepared by ASE
 ------------------------------
 Symbolic Z-matrix:
 Charge =  0 Multiplicity = 1

                          Input orientation:
 ---------------------------------------------------------------------
 Center     Atomic      Atomic             Coordinates (Angstroms)
 Number     Number       Type             X           Y           Z
 ---------------------------------------------------------------------
      1          6           0        1.217061    3.414234    1.248734
      2          6           0        1.473360    2.538244    0.002311
      3          6           0        1.239192    3.360175   -1.284756
      4          6           0        0.588876    1.271674    0.020974
      5          6           0       -0.796621    1.190271    0.011154
      6          6           0       -1.375238   -0.085743    0.030333
      7          6           0       -0.589213   -1.270938    0.057275
      8          6           0        0.796281   -1.189528    0.067482
      9          6           0        1.374884    0.086517    0.050016
     10          6           0        2.742253    0.548118    0.052731
     11          8           0        3.942115   -0.099265    0.074075
     12          6           0        4.886252    0.915202    0.063523
     13          6           0        6.270510    0.719681    0.056719
     14          6           0        6.911866   -0.618938    0.073095
     15          6           0        8.076081   -0.852862   -0.678650
     16          6           0        8.708601   -2.094689   -0.653647
     17          6           0        8.188740   -3.131764    0.122572
     18          6           0        7.029815   -2.914937    0.870113
     19          6           0        6.396128   -1.673597    0.845778
     20          6           0        7.031595    1.901669    0.023795
     21          6           0        6.445008    3.175271   -0.003848
     22          6           0        5.063375    3.339247   -0.000798
     23          6           0        4.258075    2.190130    0.031459
     24          6           0        2.850722    1.904218    0.027704
     25          6           0       -1.473647   -2.537619    0.069845
     26          6           0       -1.218419   -3.405565   -1.182543
     27          6           0       -1.238311   -3.367804    1.351261
     28          6           0       -2.851049   -1.903503    0.049416
     29          6           0       -2.742603   -0.547354    0.027098
     30          8           0       -3.942460    0.100017    0.005088
     31          6           0       -4.886597   -0.914449    0.015643
     32          6           0       -6.270492   -0.719719   -0.021182
     33          6           0       -6.911630    0.618422   -0.063939
     34          6           0       -8.063155    0.824612   -0.842857
     35          6           0       -8.695630    2.066339   -0.873341
     36          6           0       -8.188394    3.131007   -0.126689
     37          6           0       -7.042084    2.941750    0.647322
     38          6           0       -6.408453    1.700533    0.678475
     39          6           0       -7.031283   -1.902353   -0.023878
     40          6           0       -6.444700   -3.175943    0.004358
     41          6           0       -5.063357   -3.339286    0.036245
     42          6           0       -4.258357   -2.189513    0.040199
     43          1           0        1.369837    2.842658    2.169483
     44          1           0        0.191111    3.799727    1.249207
     45          1           0        1.899673    4.271767    1.261037
     46          1           0        1.922265    4.216649   -1.321560
     47          1           0        0.213503    3.744669   -1.319876
     48          1           0        1.408015    2.749766   -2.177277
     49          1           0       -1.420672    2.079582   -0.012206
     50          1           0        1.420366   -2.078914    0.086701
     51          1           0        8.474340   -0.059347   -1.304657
     52          1           0        9.604341   -2.253852   -1.248383
     53          1           0        8.679921   -4.100964    0.141761
     54          1           0        6.617782   -3.714780    1.480019
     55          1           0        5.499890   -1.515469    1.435612
     56          1           0        8.113958    1.818977    0.046941
     57          1           0        7.088926    4.050322   -0.020189
     58          1           0        4.620054    4.330312   -0.022478
     59          1           0       -0.192404   -3.790770   -1.186701
     60          1           0       -1.372238   -2.827939   -2.099266
     61          1           0       -1.901045   -4.263015   -1.199616
     62          1           0       -0.212626   -3.752719    1.382708
     63          1           0       -1.406159   -2.763294    2.248040
     64          1           0       -1.921291   -4.224533    1.383302
     65          1           0       -8.451222    0.008822   -1.446223
     66          1           0       -9.581342    2.203585   -1.488217
     67          1           0       -8.679535    4.100119   -0.150765
     68          1           0       -6.639976    3.763284    1.234599
     69          1           0       -5.522162    1.564144    1.288424
     70          1           0       -8.113855   -1.819201   -0.021685
     71          1           0       -7.088522   -4.051205    0.009055
     72          1           0       -4.620035   -4.330353    0.057830
 ---------------------------------------------------------------------

 SCF Done:  E(RB3LYP) =  -1692.79606762     A.U. after   15 cycles

 Excitation energies and oscillator strengths:

 Excited state symmetry could not be determined.
 Excited State   1:      Triplet-?Sym    2.1200 eV  584.84 nm  f=0.0000  <S**2>=2.000
     142 ->145         0.11137
     143 ->144         0.66983
 This state for optimization and/or second-order correction.
 Total Energy, E(TD-HF/TD-DFT) =  -1692.71816075
 Copying the excited state density for this state as the 1-particle RhoCI density.

 Excited state symmetry could not be determined.
 Excited State   2:      Triplet-?Sym    2.8451 eV  435.78 nm  f=0.0000  <S**2>=2.000
     140 ->144         0.14607
     141 ->145         0.17973
     142 ->144         0.47295
     142 ->146        -0.11423
     143 ->145         0.36246
     143 ->150        -0.17894

 Excited state symmetry could not be determined.
 Excited State   3:      Singlet-?Sym    3.1976 eV  387.74 nm  f=1.2205  <S**2>=0.000
     143 ->144         0.70055

 Excited state symmetry could not be determined.
 Excited State   4:      Singlet-?Sym    3.7653 eV  329.28 nm  f=0.0000  <S**2>=0.000
     142 ->144        -0.34647
     143 ->145         0.60237

 Alpha  occ. eigenvalues --  -19.21373 -19.21373 -10.24514 -10.24514 -10.24023
 Alpha  occ. eigenvalues --  -10.24023 -10.21765 -10.21765 -10.20540 -10.20539
 Alpha  occ. eigenvalues --  -10.20328 -10.20328 -10.19977 -10.19977 -10.19975
 Alpha  occ. eigenvalues --  -10.19974 -10.19906 -10.19906 -10.19694 -10.19694
 Alpha  occ. eigenvalues --  -10.19160 -10.19160 -10.18883 -10.18883 -10.18809
 Alpha  occ. eigenvalues --  -10.18809 -10.18789 -10.18789 -10.18762 -10.18762
 Alpha  occ. eigenvalues --  -10.18722 -10.18722 -10.18702 -10.18702 -10.18561
 Alpha  occ. eigenvalues --  -10.18561 -10.18368 -10.18368 -10.18360 -10.18360
 Alpha  occ. eigenvalues --  -10.18327 -10.18327  -1.10689  -1.10686  -0.89439
 Alpha  occ. eigenvalues --   -0.87087  -0.86435  -0.86409  -0.84535  -0.84320
 Alpha  occ. eigenvalues --   -0.81360  -0.78992  -0.78362  -0.78099  -0.76027
 Alpha  occ. eigenvalues --   -0.75799  -0.74637  -0.74141  -0.73934  -0.73600
 Alpha  occ. eigenvalues --   -0.72199  -0.71896  -0.69671  -0.69039  -0.69035
 Alpha  occ. eigenvalues --   -0.65489  -0.64701  -0.63184  -0.62107  -0.61721
 Alpha  occ. eigenvalues --   -0.60255  -0.60223  -0.59117  -0.58666  -0.58040
 Alpha  occ. eigenvalues --   -0.57267  -0.56683  -0.54805  -0.54445  -0.52082
 Alpha  occ. eigenvalues --   -0.51639  -0.50870  -0.50089  -0.49557  -0.48127
 Alpha  occ. eigenvalues --   -0.47416  -0.47032  -0.46503  -0.46298  -0.45746
 Alpha  occ. eigenvalues --   -0.45678  -0.45358  -0.45000  -0.44528  -0.44166
 Alpha  occ. eigenvalues --   -0.43682  -0.43648  -0.43130  -0.42846  -0.42404
 Alpha  occ. eigenvalues --   -0.42306  -0.42065  -0.42062  -0.41509  -0.41507
 Alpha  occ. eigenvalues --   -0.41346  -0.41041  -0.39473  -0.39256  -0.39249
 Alpha  occ. eigenvalues --   -0.38415  -0.37514  -0.37306  -0.37148  -0.36857
 Alpha  occ. eigenvalues --   -0.36384  -0.36182  -0.36157  -0.35743  -0.35429
 Alpha  occ. eigenvalues --   -0.34952  -0.34906  -0.34384  -0.34033  -0.33769
 Alpha  occ. eigenvalues --   -0.33752  -0.33441  -0.33306  -0.32622  -0.32465
 Alpha  occ. eigenvalues --   -0.31973  -0.30318  -0.29083  -0.27767  -0.25461
 Alpha  occ. eigenvalues --   -0.25314  -0.24944  -0.24701  -0.24700  -0.23046
 Alpha  occ. eigenvalues --   -0.21990  -0.21257  -0.18290
 Alpha virt. eigenvalues --   -0.05482  -0.02795  -0.01801  -0.00809   0.00243
 Alpha virt. eigenvalues --    0.00270   0.00699   0.02093   0.02409   0.03844
 Alpha virt. eigenvalues --    0.05830   0.07459   0.07517   0.08998   0.09776

 Mulliken charges:
               1
     1  C   -0.437009
     2  C   -0.056391
     3  C   -0.437052
     4  C    0.072520
     5  C   -0.263225
     6  C    0.125324
     7  C    0.072518
     8  C   -0.263224
     9  C    0.125323
    10  C    0.222670
    11  O   -0.553507
    12  C    0.230303
    13  C    0.034471
    14  C    0.101209
    15  C   -0.170925
    16  C   -0.134989
    17  C   -0.125443
    18  C   -0.137489
    19  C   -0.158995
    20  C   -0.200052
    21  C   -0.143204
    22  C   -0.202093
    23  C    0.092366
    24  C    0.042112
    25  C   -0.056392
    26  C   -0.437055
    27  C   -0.437004
    28  C    0.042112
    29  C    0.222670
    30  O   -0.553508
    31  C    0.230300
    32  C    0.034471
    33  C    0.101210
    34  C   -0.170921
    35  C   -0.134990
    36  C   -0.125446
    37  C   -0.137482
    38  C   -0.158998
    39  C   -0.200051
    40  C   -0.143204
    41  C   -0.202093
    42  C    0.092367
    43  H    0.158484
    44  H    0.146345
    45  H    0.147649
    46  H    0.147384
    47  H    0.147099
    48  H    0.159659
    49  H    0.140197
    50  H    0.140196
    51  H    0.132886
    52  H    0.129490
    53  H    0.128602
    54  H    0.129050
    55  H    0.142071
    56  H    0.131621
    57  H    0.128550
    58  H    0.130315
    59  H    0.147100
    60  H    0.159659
    61  H    0.147385
    62  H    0.146345
    63  H    0.158484
    64  H    0.147647
    65  H    0.132885
    66  H    0.129490
    67  H    0.128603
    68  H    0.129049
    69  H    0.142070
    70  H    0.131620
    71  H    0.128549
    72  H    0.130315
 Sum of Mulliken charges =  -0.00000

 Dipole moment (field-independent basis, Debye):
    X=             -0.0002    Y=              0.0004    Z=              0.0204  Tot=              0.0204
 Quadrupole moment (field-independent basis, Debye-Ang):
   XX=           -228.7745   YY=           -215.4882   ZZ=           -244.4570
   XY=              0.3002   XZ=              0.1246   YZ=             -0.5226

 Normal termination of Gaussian 16 at Sat Nov  5 10:26:31 2022.
