 Gaussian 16, Revision B.01,
 Gaussian 16:  ES64L-G16RevB.01 20-Dec-2017

 -----------------------------
 #p b3lyp/6-31g(d) opt SCF=XQC
 -----------------------------

 ------------------------------
 Gaussian input prepared by ASE
 ------------------------------
 Symbolic Z-matrix:
 Charge =  0 Multiplicity = 1

 SCF Done:  E(RB3LYP) =  -1692.78679798     A.U. after   15 cycles
 SCF Done:  E(RB3LYP) =  -1692.79557281     A.U. after   12 cycles
 SCF Done:  E(RB3LYP) =  -1692.79600522     A.U. after   11 cycles
 SCF Done:  E(RB3LYP) =  -1692.79606109     A.U. after   10 cycles
 SCF Done:  E(RB3LYP) =  -1692.79606568     A.U. after    8 cycles
 SCF Done:  E(RB3LYP) =  -1692.79606637     A.U. after    7 cycles
 SCF Done:  E(RB3LYP) =  -1692.79606648     A.U. after    7 cycles
 Optimization completed.
    -- Stationary point found.

                         Standard orientation:
 ---------------------------------------------------------------------
 Center     Atomic      Atomic             Coordinates (Angstroms)
 Number     Number       Type             X           Y           Z
 ---------------------------------------------------------------------
      1          6           0       -1.230200    3.390496   -1.279251
      2          6           0       -1.475406    2.537051   -0.015081
      3          6           0       -1.231318    3.382342    1.254899
      4          6           0       -0.589992    1.270996   -0.018128
      5          6           0        0.795610    1.190795   -0.018321
      6          6           0        1.375171   -0.084934   -0.019177
      7          6           0        0.589992   -1.270996   -0.018128
      8          6           0       -0.795610   -1.190795   -0.018323
      9          6           0       -1.375171    0.084934   -0.019179
     10          6           0       -2.742921    0.545413   -0.018921
     11          8           0       -3.942349   -0.103126   -0.018587
     12          6           0       -4.887258    0.910676   -0.018588
     13          6           0       -6.271239    0.714301    0.003232
     14          6           0       -6.911531   -0.624862    0.016425
     15          6           0       -8.069280   -0.845974    0.781910
     16          6           0       -8.700893   -2.088511    0.784650
     17          6           0       -8.186560   -3.139103    0.023063
     18          6           0       -7.034053   -2.935013   -0.737865
     19          6           0       -6.401278   -1.692974   -0.741275
     20          6           0       -7.033066    1.896137    0.021046
     21          6           0       -6.447390    3.170457    0.020750
     22          6           0       -5.065974    3.335359    0.003276
     23          6           0       -4.259959    2.186434   -0.014833
     24          6           0       -2.852372    1.901664   -0.017566
     25          6           0        1.475406   -2.537051   -0.015081
     26          6           0        1.231314   -3.382345    1.254897
     27          6           0        1.230205   -3.390493   -1.279253
     28          6           0        2.852372   -1.901664   -0.017561
     29          6           0        2.742921   -0.545413   -0.018915
     30          8           0        3.942349    0.103126   -0.018584
     31          6           0        4.887258   -0.910676   -0.018586
     32          6           0        6.271239   -0.714301    0.003232
     33          6           0        6.911531    0.624862    0.016425
     34          6           0        8.069281    0.845974    0.781908
     35          6           0        8.700894    2.088511    0.784648
     36          6           0        8.186561    3.139103    0.023062
     37          6           0        7.034052    2.935014   -0.737864
     38          6           0        6.401277    1.692975   -0.741273
     39          6           0        7.033066   -1.896137    0.021044
     40          6           0        6.447390   -3.170457    0.020749
     41          6           0        5.065974   -3.335359    0.003277
     42          6           0        4.259959   -2.186434   -0.014831
     43          1           0       -1.390087    2.802216   -2.188196
     44          1           0       -0.204628    3.776665   -1.295212
     45          1           0       -1.913644    4.247167   -1.301427
     46          1           0       -1.914816    4.238844    1.281844
     47          1           0       -0.205712    3.768157    1.274545
     48          1           0       -1.392213    2.788084    2.159700
     49          1           0        1.419050    2.080838   -0.016249
     50          1           0       -1.419050   -2.080838   -0.016253
     51          1           0       -8.463043   -0.041536    1.396718
     52          1           0       -9.591540   -2.237524    1.389577
     53          1           0       -8.677031   -4.108849    0.025507
     54          1           0       -6.626377   -3.745476   -1.336576
     55          1           0       -5.510091   -1.544907   -1.341286
     56          1           0       -8.115510    1.812249    0.008375
     57          1           0       -7.091921    4.045191    0.026573
     58          1           0       -4.623361    4.326977    0.003323
     59          1           0        0.205708   -3.768160    1.274538
     60          1           0        1.392206   -2.788089    2.159700
     61          1           0        1.914811   -4.238847    1.281841
     62          1           0        0.204633   -3.776663   -1.295218
     63          1           0        1.390093   -2.802211   -2.188196
     64          1           0        1.913649   -4.247163   -1.301429
     65          1           0        8.463045    0.041535    1.396716
     66          1           0        9.591542    2.237523    1.389574
     67          1           0        8.677031    4.108849    0.025507
     68          1           0        6.626375    3.745477   -1.336573
     69          1           0        5.510089    1.544908   -1.341283
     70          1           0        8.115510   -1.812249    0.008372
     71          1           0        7.091921   -4.045191    0.026571
     72          1           0        4.623361   -4.326977    0.003325
 ---------------------------------------------------------------------

 The electronic state is 1-A.
 Alpha  occ. eigenvalues --  -19.21373 -19.21373 -10.24514 -10.24514 -10.24023
 Alpha  occ. eigenvalues --  -10.24023 -10.21765 -10.21765 -10.20540 -10.20539
 Alpha  occ. eigenvalues --  -10.20328 -10.20328 -10.19977 -10.19977 -10.19975
 Alpha  occ. eigenvalues --  -10.19974 -10.19906 -10.19906 -10.19694 -10.19694
 Alpha  occ. eigenvalues --  -10.19160 -10.19160 -10.18883 -10.18883 -10.18809
 Alpha  occ. eigenvalues --  -10.18809 -10.18789 -10.18789 -10.18762 -10.18762
 Alpha  occ. eigenvalues --  -10.18722 -10.18722 -10.18702 -10.18702 -10.18561
 Alpha  occ. eigenvalues --  -10.18561 -10.18368 -10.18368 -10.18360 -10.18360
 Alpha  occ. eigenvalues --  -10.18327 -10.18327  -1.10689  -1.10686  -0.89439
 Alpha  occ. eigenvalues --   -0.87087  -0.86435  -0.86409  -0.84535  -0.84320
 Alpha  occ. eigenvalues --   -0.81360  -0.78992  -0.78362  -0.78099  -0.76027
 Alpha  occ. eigenvalues --   -0.75799  -0.74637  -0.74141  -0.73934  -0.73600
 Alpha  occ. eigenvalues --   -0.72199  -0.71896  -0.69671  -0.69039  -0.69035
 Alpha  occ. eigenvalues --   -0.65489  -0.64701  -0.63184  -0.62107  -0.61721
 Alpha  occ. eigenvalues --   -0.60255  -0.60223  -0.59117  -0.58666  -0.58040
 Alpha  occ. eigenvalues --   -0.57267  -0.56683  -0.54805  -0.54445  -0.52082
 Alpha  occ. eigenvalues --   -0.51639  -0.50870  -0.50089  -0.49557  -0.48127
 Alpha  occ. eigenvalues --   -0.47416  -0.47032  -0.46503  -0.46298  -0.45746
 Alpha  occ. eigenvalues --   -0.45678  -0.45358  -0.45000  -0.44528  -0.44166
 Alpha  occ. eigenvalues --   -0.43682  -0.43648  -0.43130  -0.42846  -0.42404
 Alpha  occ. eigenvalues --   -0.42306  -0.42065  -0.42062  -0.41509  -0.41507
 Alpha  occ. eigenvalues --   -0.41346  -0.41041  -0.39473  -0.39256  -0.39249
 Alpha  occ. eigenvalues --   -0.38415  -0.37514  -0.37306  -0.37148  -0.36857
 Alpha  occ. eigenvalues --   -0.36384  -0.36182  -0.36157  -0.35743  -0.35429
 Alpha  occ. eigenvalues --   -0.34952  -0.34906  -0.34384  -0.34033  -0.33769
 Alpha  occ. eigenvalues --   -0.33752  -0.33441  -0.33306  -0.32622  -0.32465
 Alpha  occ. eigenvalues --   -0.31973  -0.30318  -0.29083  -0.27767  -0.25461
 Alpha  occ. eigenvalues --   -0.25314  -0.24944  -0.24701  -0.24700  -0.23046
 Alpha  occ. eigenvalues --   -0.21990  -0.21257  -0.18290
 Alpha virt. eigenvalues --   -0.05482  -0.02795  -0.01801  -0.00809   0.00243
 Alpha virt. eigenvalues --    0.00270   0.00699   0.02093   0.02409   0.03844
 Alpha virt. eigenvalues --    0.05830   0.07459   0.07517   0.08998   0.09776

 Mulliken charges:
               1
     1  C   -0.437006
     2  C   -0.056393
     3  C   -0.437053
     4  C    0.072517
     5  C   -0.263225
     6  C    0.125326
     7  C    0.072517
     8  C   -0.263225
     9  C    0.125326
    10  C    0.222670
    11  O   -0.553508
    12  C    0.230300
    13  C    0.034472
    14  C    0.101209
    15  C   -0.170923
    16  C   -0.134989
    17  C   -0.125444
    18  C   -0.137486
    19  C   -0.158996
    20  C   -0.200051
    21  C   -0.143205
    22  C   -0.202093
    23  C    0.092369
    24  C    0.042111
    25  C   -0.056393
    26  C   -0.437053
    27  C   -0.437006
    28  C    0.042111
    29  C    0.222670
    30  O   -0.553508
    31  C    0.230300
    32  C    0.034472
    33  C    0.101209
    34  C   -0.170923
    35  C   -0.134989
    36  C   -0.125444
    37  C   -0.137486
    38  C   -0.158996
    39  C   -0.200051
    40  C   -0.143205
    41  C   -0.202093
    42  C    0.092369
    43  H    0.158483
    44  H    0.146345
    45  H    0.147648
    46  H    0.147384
    47  H    0.147099
    48  H    0.159659
    49  H    0.140196
    50  H    0.140196
    51  H    0.132885
    52  H    0.129490
    53  H    0.128602
    54  H    0.129049
    55  H    0.142070
    56  H    0.131621
    57  H    0.128550
    58  H    0.130315
    59  H    0.147099
    60  H    0.159659
    61  H    0.147384
    62  H    0.146345
    63  H    0.158483
    64  H    0.147648
    65  H    0.132885
    66  H    0.129490
    67  H    0.128602
    68  H    0.129049
    69  H    0.142070
    70  H    0.131621
    71  H    0.128550
    72  H    0.130315
 Sum of Mulliken charges =  -0.00000

 Dipole moment (field-independent basis, Debye):
    X=             -0.0000    Y=             -0.0000    Z=             -0.0204  Tot=              0.0204
 Quadrupole moment (field-independent basis, Debye-Ang):
   XX=           -228.7730   YY=           -215.4792   ZZ=           -244.4683
   XY=             -0.3076   XZ=             -0.0000   YZ=              0.0000

 1\1\GINC-NODE07\FOpt\RB3LYP\6-31G(d)\C40H30O2\WYKGROUP\05-Nov-2022\0\\
 #p b3lyp/6-31g(d) opt SCF=XQC\\Gaussian input prepared by ASE\\0,1\C,1
 .217061336,3.4142337258,1.2487340721\C,1.4733603086,2.538244145,0.0023
 109245\C,1.239192316,3.3601752443,-1.2847557225\C,0.5888760229,1.27167
 39359,0.0209739705\C,-0.7966212273,1.1902706991,0.0111535283\C,-1.3752
 383706,-0.085743086,0.0303326188\C,-0.5892130227,-1.2709378866,0.05727
 53272\C,0.7962810223,-1.1895276482,0.0674823078\C,1.3748839673,0.08651
 71699,0.0500159219\C,2.7422526543,0.5481184139,0.0527306961\O,3.942115

 Normal termination of Gaussian 16 at Sat Nov  5 00:17:03 2022.
