 Gaussian 16, Revision B.01,
 Gaussian 16:  ES64L-G16RevB.01 20-Dec-2017

 -------------------------------------------------------------------
 #p b3lyp/6-31g(d) 6D 10F nosymm GFInput td=(50-50,nstate=2) SCF=XQC
 -------------------------------------------------------------------

 ------------------------------
 Gaussian input prepared by ASE
 ------------------------------
 Symbolic Z-matrix:
 Charge =  0 Multiplicity = 1

                          Input orientation:
 ---------------------------------------------------------------------
 Center     Atomic      Atomic             Coordinates (Angstroms)
 Number     Number       Type             X           Y           Z
 ---------------------------------------------------------------------
      1          6           0        4.240243    1.037196   -3.367368
      2          7           0        4.882012    0.669048   -2.123489
      3          6           0        4.223088    0.310147   -0.957726
      4          6           0        2.849807    0.257014   -0.717219
      5          6           0        2.398229   -0.134551    0.549655
      6          6           0        0.947261   -0.199687    0.844944
      7          6           0        0.045273    0.729755    0.297300
      8          6           0       -1.316379    0.676011    0.573577
      9          6           0       -1.836989   -0.328484    1.405448
     10          7           0       -3.227114   -0.392304    1.687888
     11          6           0       -3.668988   -0.693575    3.006463
     12          6           0       -4.735942   -1.582262    3.215034
     13          6           0       -5.170235   -1.867652    4.508107
     14          6           0       -4.540642   -1.290161    5.612840
     15          6           0       -3.473258   -0.413087    5.408530
     16          6           0       -3.043630   -0.107299    4.118567
     17          6           0       -4.175461   -0.153330    0.659204
     18          6           0       -5.340316    0.589134    0.912649
     19          6           0       -6.270479    0.812751   -0.096730
     20          6           0       -6.075037    0.324967   -1.400212
     21          6           0       -7.066586    0.575006   -2.475415
     22          6           0       -7.345165   -0.403260   -3.445951
     23          6           0       -8.275457   -0.168100   -4.457080
     24          6           0       -8.953064    1.050874   -4.520930
     25          6           0       -8.689053    2.032305   -3.563738
     26          6           0       -7.756316    1.797510   -2.554782
     27          6           0       -4.901738   -0.409593   -1.643172
     28          6           0       -3.973124   -0.654137   -0.637246
     29          6           0       -0.948134   -1.266666    1.954608
     30          6           0        0.413781   -1.194390    1.683610
     31          6           0        3.351524   -0.469788    1.540832
     32          6           0        4.716982   -0.424721    1.294491
     33          6           0        5.189212   -0.035134    0.030126
     34          6           0        6.488419    0.116979   -0.590887
     35          6           0        7.836035   -0.066980   -0.146150
     36          6           0        8.193994   -0.481072    1.162538
     37          6           0        9.515441   -0.640493    1.527202
     38          6           0       10.552252   -0.394747    0.601095
     39          6           0       10.239571    0.008752   -0.678953
     40          6           0        8.892836    0.183374   -1.087261
     41          6           0        8.582480    0.600602   -2.416386
     42          6           0        7.288108    0.778788   -2.838705
     43          6           0        6.246829    0.539573   -1.914025
     44          1           0        4.902818    1.684483   -3.946456
     45          1           0        3.325968    1.598428   -3.155657
     46          1           0        3.982390    0.159923   -3.975360
     47          1           0        2.135791    0.475649   -1.504902
     48          1           0        0.423357    1.537326   -0.323586
     49          1           0       -1.984306    1.422299    0.155194
     50          1           0       -5.219255   -2.044622    2.360211
     51          1           0       -5.997514   -2.557978    4.651128
     52          1           0       -4.877292   -1.520639    6.619572
     53          1           0       -2.977795    0.050000    6.257921
     54          1           0       -2.222685    0.585712    3.964273
     55          1           0       -5.517420    0.982040    1.908665
     56          1           0       -7.174317    1.368800    0.136183
     57          1           0       -6.845948   -1.366744   -3.390585
     58          1           0       -8.478561   -0.943639   -5.191172
     59          1           0       -9.679342    1.233985   -5.308197
     60          1           0       -9.203813    2.988707   -3.607479
     61          1           0       -7.539339    2.580059   -1.832897
     62          1           0       -4.705380   -0.788502   -2.642318
     63          1           0       -3.078548   -1.228991   -0.854255
     64          1           0       -1.333178   -2.059932    2.587468
     65          1           0        1.072599   -1.951511    2.099304
     66          1           0        3.003810   -0.743404    2.532353
     67          1           0        5.402256   -0.687757    2.092578
     68          1           0        7.417041   -0.675012    1.892291
     69          1           0        9.759348   -0.958396    2.537590
     70          1           0       11.589227   -0.523436    0.898698
     71          1           0       11.029197    0.201626   -1.402007
     72          1           0        9.404292    0.775715   -3.106225
     73          1           0        7.076330    1.087499   -3.857693
 ---------------------------------------------------------------------

 SCF Done:  E(RB3LYP) =  -1689.98995488     A.U. after   15 cycles

 Excitation energies and oscillator strengths:

 Excited state symmetry could not be determined.
 Excited State   1:      Triplet-?Sym    2.4575 eV  504.52 nm  f=0.0000  <S**2>=2.000
     143 ->146        -0.17495
     144 ->146        -0.39412
     144 ->147        -0.11414
     144 ->148         0.12480
     145 ->146         0.48256
 This state for optimization and/or second-order correction.
 Total Energy, E(TD-HF/TD-DFT) =  -1689.89964455
 Copying the excited state density for this state as the 1-particle RhoCI density.

 Excited state symmetry could not be determined.
 Excited State   2:      Triplet-?Sym    2.7982 eV  443.08 nm  f=0.0000  <S**2>=2.000
     142 ->147         0.14840
     143 ->146        -0.10519
     144 ->146        -0.25418
     145 ->146        -0.23638
     145 ->147         0.47196
     145 ->148        -0.15872

 Excited state symmetry could not be determined.
 Excited State   3:      Singlet-?Sym    3.2228 eV  384.71 nm  f=0.8708  <S**2>=0.000
     145 ->146         0.68870
     145 ->147        -0.10870

 Excited state symmetry could not be determined.
 Excited State   4:      Singlet-?Sym    3.5916 eV  345.21 nm  f=0.0131  <S**2>=0.000
     143 ->146        -0.26219
     144 ->146         0.56581
     145 ->147         0.25767

 Alpha  occ. eigenvalues --  -14.38028 -14.36518 -10.23456 -10.22948 -10.22900
 Alpha  occ. eigenvalues --  -10.22823 -10.22301 -10.22021 -10.19705 -10.19553
 Alpha  occ. eigenvalues --  -10.19477 -10.19461 -10.19342 -10.19299 -10.19036
 Alpha  occ. eigenvalues --  -10.19030 -10.19023 -10.18983 -10.18978 -10.18971
 Alpha  occ. eigenvalues --  -10.18859 -10.18851 -10.18838 -10.18800 -10.18774
 Alpha  occ. eigenvalues --  -10.18761 -10.18743 -10.18734 -10.18731 -10.18725
 Alpha  occ. eigenvalues --  -10.18709 -10.18685 -10.18683 -10.18667 -10.18666
 Alpha  occ. eigenvalues --  -10.18647 -10.18618 -10.18582 -10.18464 -10.18455
 Alpha  occ. eigenvalues --  -10.18196 -10.18186 -10.17898  -0.98777  -0.96398
 Alpha  occ. eigenvalues --   -0.86412  -0.86362  -0.86015  -0.84885  -0.84250
 Alpha  occ. eigenvalues --   -0.83136  -0.81546  -0.79327  -0.77403  -0.76139
 Alpha  occ. eigenvalues --   -0.75201  -0.74845  -0.74616  -0.74448  -0.74164
 Alpha  occ. eigenvalues --   -0.73958  -0.73588  -0.72909  -0.71037  -0.69111
 Alpha  occ. eigenvalues --   -0.68837  -0.64016  -0.63208  -0.62421  -0.61667
 Alpha  occ. eigenvalues --   -0.61117  -0.60642  -0.60219  -0.59584  -0.58902
 Alpha  occ. eigenvalues --   -0.58354  -0.57832  -0.57058  -0.56322  -0.53428
 Alpha  occ. eigenvalues --   -0.53352  -0.52506  -0.52163  -0.51589  -0.50689
 Alpha  occ. eigenvalues --   -0.48897  -0.48503  -0.47738  -0.47469  -0.47099
 Alpha  occ. eigenvalues --   -0.46689  -0.46086  -0.45314  -0.45203  -0.44821
 Alpha  occ. eigenvalues --   -0.44294  -0.44037  -0.43896  -0.43733  -0.43122
 Alpha  occ. eigenvalues --   -0.42691  -0.42304  -0.42209  -0.42008  -0.41895
 Alpha  occ. eigenvalues --   -0.41667  -0.41430  -0.41280  -0.40682  -0.40280
 Alpha  occ. eigenvalues --   -0.39880  -0.38843  -0.37941  -0.37856  -0.37230
 Alpha  occ. eigenvalues --   -0.36851  -0.36789  -0.36496  -0.36003  -0.35676
 Alpha  occ. eigenvalues --   -0.35596  -0.35274  -0.34726  -0.34417  -0.34232
 Alpha  occ. eigenvalues --   -0.33762  -0.33462  -0.33187  -0.33070  -0.31996
 Alpha  occ. eigenvalues --   -0.30795  -0.29855  -0.28813  -0.27201  -0.26168
 Alpha  occ. eigenvalues --   -0.25628  -0.24818  -0.24754  -0.24732  -0.24432
 Alpha  occ. eigenvalues --   -0.23833  -0.22850  -0.20287  -0.19345  -0.17646
 Alpha virt. eigenvalues --   -0.04381  -0.02812  -0.01717  -0.01364   0.00020
 Alpha virt. eigenvalues --    0.00105   0.00547   0.00687   0.00736   0.01623
 Alpha virt. eigenvalues --    0.03002   0.04486   0.06411   0.08253   0.09513

 Mulliken charges:
               1
     1  C   -0.327422
     2  N   -0.632426
     3  C    0.321235
     4  C   -0.249303
     5  C    0.095691
     6  C    0.091626
     7  C   -0.187712
     8  C   -0.170995
     9  C    0.284730
    10  N   -0.655735
    11  C    0.274065
    12  C   -0.161956
    13  C   -0.140126
    14  C   -0.128127
    15  C   -0.140229
    16  C   -0.161871
    17  C    0.287705
    18  C   -0.171266
    19  C   -0.188367
    20  C    0.094527
    21  C    0.089925
    22  C   -0.175153
    23  C   -0.133785
    24  C   -0.127797
    25  C   -0.133733
    26  C   -0.175132
    27  C   -0.188594
    28  C   -0.170914
    29  C   -0.171025
    30  C   -0.189304
    31  C   -0.199365
    32  C   -0.204403
    33  C    0.076155
    34  C   -0.064722
    35  C    0.078917
    36  C   -0.179861
    37  C   -0.145844
    38  C   -0.130601
    39  C   -0.209993
    40  C    0.147147
    41  C   -0.206010
    42  C   -0.179644
    43  C    0.330381
    44  H    0.173516
    45  H    0.173988
    46  H    0.171633
    47  H    0.129571
    48  H    0.129675
    49  H    0.144091
    50  H    0.144457
    51  H    0.131936
    52  H    0.128032
    53  H    0.131962
    54  H    0.145025
    55  H    0.145725
    56  H    0.134276
    57  H    0.130572
    58  H    0.129200
    59  H    0.128366
    60  H    0.129267
    61  H    0.130593
    62  H    0.133421
    63  H    0.145194
    64  H    0.144945
    65  H    0.135538
    66  H    0.125462
    67  H    0.141242
    68  H    0.135514
    69  H    0.126711
    70  H    0.125579
    71  H    0.125875
    72  H    0.128354
    73  H    0.129589
 Sum of Mulliken charges =  -0.00000

 Dipole moment (field-independent basis, Debye):
    X=             -0.7063    Y=              0.5237    Z=             -1.5985  Tot=              1.8244
 Quadrupole moment (field-independent basis, Debye-Ang):
   XX=           -238.0243   YY=           -244.2607   ZZ=           -219.0294
   XY=              0.9393   XZ=             -6.9016   YZ=             -6.9855

 Normal termination of Gaussian 16 at Sat Nov  5 10:24:44 2022.
