 Gaussian 16, Revision B.01,
 Gaussian 16:  ES64L-G16RevB.01 20-Dec-2017

 -----------------------------
 #p b3lyp/6-31g(d) opt SCF=XQC
 -----------------------------

 ------------------------------
 Gaussian input prepared by ASE
 ------------------------------
 Symbolic Z-matrix:
 Charge =  0 Multiplicity = 1

 SCF Done:  E(RB3LYP) =  -1689.98047606     A.U. after   15 cycles
 SCF Done:  E(RB3LYP) =  -1689.98954650     A.U. after   12 cycles
 SCF Done:  E(RB3LYP) =  -1689.98989760     A.U. after   11 cycles
 SCF Done:  E(RB3LYP) =  -1689.98993269     A.U. after   10 cycles
 SCF Done:  E(RB3LYP) =  -1689.98993997     A.U. after   10 cycles
 SCF Done:  E(RB3LYP) =  -1689.98994421     A.U. after    9 cycles
 SCF Done:  E(RB3LYP) =  -1689.98994689     A.U. after    9 cycles
 SCF Done:  E(RB3LYP) =  -1689.98994875     A.U. after    9 cycles
 SCF Done:  E(RB3LYP) =  -1689.98995012     A.U. after    9 cycles
 SCF Done:  E(RB3LYP) =  -1689.98995128     A.U. after    9 cycles
 SCF Done:  E(RB3LYP) =  -1689.98995260     A.U. after    9 cycles
 SCF Done:  E(RB3LYP) =  -1689.98995372     A.U. after    9 cycles
 SCF Done:  E(RB3LYP) =  -1689.98995443     A.U. after    9 cycles
 SCF Done:  E(RB3LYP) =  -1689.98995452     A.U. after    7 cycles
 Optimization completed.
    -- Stationary point found.

                         Standard orientation:
 ---------------------------------------------------------------------
 Center     Atomic      Atomic             Coordinates (Angstroms)
 Number     Number       Type             X           Y           Z
 ---------------------------------------------------------------------
      1          6           0       -4.106587   -3.546470    0.249919
      2          7           0       -4.755242   -2.254212    0.187051
      3          6           0       -4.102894   -1.033486    0.107905
      4          6           0       -2.730870   -0.780287    0.105289
      5          6           0       -2.286441    0.545340    0.019200
      6          6           0       -0.837009    0.855001    0.017341
      7          6           0        0.072892    0.109328    0.787672
      8          6           0        1.433153    0.397384    0.792910
      9          6           0        1.944293    1.444145    0.008638
     10          7           0        3.332939    1.740699    0.005372
     11          6           0        3.768051    3.095372    0.019231
     12          6           0        4.828540    3.511823   -0.801494
     13          6           0        5.256267    4.837944   -0.778133
     14          6           0        4.626333    5.773348    0.045591
     15          6           0        3.565325    5.363760    0.856028
     16          6           0        3.142382    4.035904    0.853201
     17          6           0        4.286551    0.689465   -0.008527
     18          6           0        5.455186    0.767708    0.766421
     19          6           0        6.390446   -0.261252    0.742217
     20          6           0        6.196667   -1.415061   -0.036480
     21          6           0        7.193720   -2.513893   -0.050757
     22          6           0        7.469599   -3.226676   -1.230749
     23          6           0        8.405069   -4.260041   -1.244144
     24          6           0        9.090672   -4.604402   -0.077743
     25          6           0        8.829429   -3.905258    1.102119
     26          6           0        7.891525   -2.874103    1.115372
     27          6           0        5.019600   -1.485007   -0.801241
     28          6           0        4.085768   -0.454492   -0.798198
     29          6           0        1.047463    2.193407   -0.769906
     30          6           0       -0.312962    1.906137   -0.755888
     31          6           0       -3.245477    1.582650   -0.069247
     32          6           0       -4.609709    1.325710   -0.075881
     33          6           0       -5.074811    0.002881    0.008983
     34          6           0       -6.370739   -0.643044    0.018228
     35          6           0       -7.721121   -0.174396   -0.049143
     36          6           0       -8.086503    1.193068   -0.143000
     37          6           0       -9.410267    1.578256   -0.205428
     38          6           0      -10.442092    0.615119   -0.178083
     39          6           0      -10.122159   -0.722249   -0.087568
     40          6           0       -8.772850   -1.153300   -0.020729
     41          6           0       -8.454975   -2.541607    0.071640
     42          6           0       -7.157954   -2.987378    0.138940
     43          6           0       -6.121615   -2.027136    0.117585
     44          1           0       -4.762893   -4.264485    0.746957
     45          1           0       -3.189530   -3.467584    0.840245
     46          1           0       -3.852116   -3.930590   -0.746798
     47          1           0       -2.012594   -1.593653    0.129366
     48          1           0       -0.297753   -0.685452    1.429207
     49          1           0        2.107358   -0.180885    1.416746
     50          1           0        5.312019    2.791638   -1.453932
     51          1           0        6.078594    5.142966   -1.420112
     52          1           0        4.957818    6.807745    0.055731
     53          1           0        3.069722    6.078431    1.507965
     54          1           0        2.326447    3.719326    1.495113
     55          1           0        5.631147    1.644767    1.380909
     56          1           0        7.296956   -0.160593    1.332529
     57          1           0        6.964043   -2.949546   -2.151725
     58          1           0        8.605904   -4.790869   -2.171231
     59          1           0        9.820981   -5.408975   -0.088168
     60          1           0        9.350440   -4.169349    2.018852
     61          1           0        7.676907   -2.356855    2.046487
     62          1           0        4.824486   -2.368487   -1.402753
     63          1           0        3.188341   -0.535234   -1.403113
     64          1           0        1.425117    2.996508   -1.394763
     65          1           0       -0.978116    2.484377   -1.390933
     66          1           0       -2.903148    2.612428   -0.104666
     67          1           0       -5.299565    2.159743   -0.140836
     68          1           0       -7.313480    1.951867   -0.164623
     69          1           0       -9.659895    2.633764   -0.276315
     70          1           0      -11.480949    0.929350   -0.227877
     71          1           0      -10.907885   -1.474350   -0.065343
     72          1           0       -9.273122   -3.257418    0.084557
     73          1           0       -6.940482   -4.049255    0.199046
 ---------------------------------------------------------------------

 The electronic state is 1-A.
 Alpha  occ. eigenvalues --  -14.38028 -14.36518 -10.23456 -10.22948 -10.22900
 Alpha  occ. eigenvalues --  -10.22823 -10.22301 -10.22021 -10.19705 -10.19553
 Alpha  occ. eigenvalues --  -10.19477 -10.19461 -10.19342 -10.19299 -10.19036
 Alpha  occ. eigenvalues --  -10.19030 -10.19023 -10.18983 -10.18978 -10.18971
 Alpha  occ. eigenvalues --  -10.18859 -10.18851 -10.18838 -10.18800 -10.18774
 Alpha  occ. eigenvalues --  -10.18761 -10.18743 -10.18734 -10.18731 -10.18726
 Alpha  occ. eigenvalues --  -10.18709 -10.18685 -10.18683 -10.18667 -10.18666
 Alpha  occ. eigenvalues --  -10.18647 -10.18618 -10.18582 -10.18464 -10.18455
 Alpha  occ. eigenvalues --  -10.18196 -10.18186 -10.17898  -0.98777  -0.96398
 Alpha  occ. eigenvalues --   -0.86412  -0.86362  -0.86015  -0.84885  -0.84250
 Alpha  occ. eigenvalues --   -0.83136  -0.81546  -0.79327  -0.77403  -0.76139
 Alpha  occ. eigenvalues --   -0.75201  -0.74845  -0.74616  -0.74448  -0.74164
 Alpha  occ. eigenvalues --   -0.73958  -0.73588  -0.72909  -0.71037  -0.69111
 Alpha  occ. eigenvalues --   -0.68837  -0.64016  -0.63208  -0.62421  -0.61667
 Alpha  occ. eigenvalues --   -0.61117  -0.60642  -0.60219  -0.59584  -0.58902
 Alpha  occ. eigenvalues --   -0.58354  -0.57832  -0.57058  -0.56322  -0.53428
 Alpha  occ. eigenvalues --   -0.53352  -0.52506  -0.52163  -0.51589  -0.50689
 Alpha  occ. eigenvalues --   -0.48897  -0.48503  -0.47738  -0.47469  -0.47099
 Alpha  occ. eigenvalues --   -0.46689  -0.46086  -0.45314  -0.45203  -0.44821
 Alpha  occ. eigenvalues --   -0.44294  -0.44037  -0.43896  -0.43733  -0.43122
 Alpha  occ. eigenvalues --   -0.42691  -0.42304  -0.42209  -0.42008  -0.41895
 Alpha  occ. eigenvalues --   -0.41667  -0.41430  -0.41280  -0.40682  -0.40280
 Alpha  occ. eigenvalues --   -0.39880  -0.38843  -0.37941  -0.37856  -0.37230
 Alpha  occ. eigenvalues --   -0.36851  -0.36789  -0.36496  -0.36003  -0.35676
 Alpha  occ. eigenvalues --   -0.35596  -0.35274  -0.34726  -0.34417  -0.34232
 Alpha  occ. eigenvalues --   -0.33762  -0.33462  -0.33187  -0.33070  -0.31996
 Alpha  occ. eigenvalues --   -0.30795  -0.29855  -0.28813  -0.27201  -0.26168
 Alpha  occ. eigenvalues --   -0.25628  -0.24818  -0.24754  -0.24732  -0.24432
 Alpha  occ. eigenvalues --   -0.23833  -0.22850  -0.20287  -0.19345  -0.17646
 Alpha virt. eigenvalues --   -0.04381  -0.02812  -0.01717  -0.01364   0.00020
 Alpha virt. eigenvalues --    0.00105   0.00547   0.00687   0.00736   0.01623
 Alpha virt. eigenvalues --    0.03002   0.04486   0.06411   0.08253   0.09513

 Mulliken charges:
               1
     1  C   -0.327417
     2  N   -0.632428
     3  C    0.321237
     4  C   -0.249309
     5  C    0.095699
     6  C    0.091595
     7  C   -0.187705
     8  C   -0.170971
     9  C    0.284704
    10  N   -0.655729
    11  C    0.274055
    12  C   -0.161956
    13  C   -0.140121
    14  C   -0.128133
    15  C   -0.140228
    16  C   -0.161870
    17  C    0.287697
    18  C   -0.171262
    19  C   -0.188367
    20  C    0.094529
    21  C    0.089927
    22  C   -0.175164
    23  C   -0.133783
    24  C   -0.127792
    25  C   -0.133744
    26  C   -0.175125
    27  C   -0.188583
    28  C   -0.170917
    29  C   -0.171009
    30  C   -0.189289
    31  C   -0.199367
    32  C   -0.204398
    33  C    0.076156
    34  C   -0.064742
    35  C    0.078925
    36  C   -0.179861
    37  C   -0.145846
    38  C   -0.130601
    39  C   -0.209990
    40  C    0.147137
    41  C   -0.206002
    42  C   -0.179653
    43  C    0.330397
    44  H    0.173515
    45  H    0.173986
    46  H    0.171634
    47  H    0.129573
    48  H    0.129674
    49  H    0.144088
    50  H    0.144458
    51  H    0.131937
    52  H    0.128032
    53  H    0.131962
    54  H    0.145027
    55  H    0.145723
    56  H    0.134275
    57  H    0.130573
    58  H    0.129200
    59  H    0.128366
    60  H    0.129268
    61  H    0.130592
    62  H    0.133422
    63  H    0.145191
    64  H    0.144944
    65  H    0.135538
    66  H    0.125462
    67  H    0.141242
    68  H    0.135515
    69  H    0.126711
    70  H    0.125579
    71  H    0.125874
    72  H    0.128354
    73  H    0.129589
 Sum of Mulliken charges =  -0.00000

 Dipole moment (field-independent basis, Debye):
    X=              0.7156    Y=             -1.6732    Z=              0.1306  Tot=              1.8244
 Quadrupole moment (field-independent basis, Debye-Ang):
   XX=           -237.9225   YY=           -217.1345   ZZ=           -246.0631
   XY=              6.6237   XZ=              0.6851   YZ=             -0.5166

 1\1\GINC-NODE48\FOpt\RB3LYP\6-31G(d)\C41H30N2\WYKGROUP\05-Nov-2022\0\\
 #p b3lyp/6-31g(d) opt SCF=XQC\\Gaussian input prepared by ASE\\0,1\C,4
 .2402426471,1.0371959144,-3.3673684078\N,4.882012038,0.6690476018,-2.1
 234887933\C,4.2230879977,0.3101474773,-0.9577260636\C,2.8498070592,0.2
 570142951,-0.717219451\C,2.3982293992,-0.1345510678,0.5496548333\C,0.9
 472614847,-0.1996874984,0.8449441026\C,0.0452734894,0.7297545514,0.297
 3001509\C,-1.3163788151,0.6760110912,0.5735769812\C,-1.8369891345,-0.3
 284840556,1.4054479793\N,-3.2271137017,-0.3923043325,1.6878883237\C,-3

 Normal termination of Gaussian 16 at Sat Nov  5 00:31:46 2022.
