 Gaussian 16, Revision B.01,
 Gaussian 16:  ES64L-G16RevB.01 20-Dec-2017

 -----------------------------
 #p b3lyp/6-31g(d) opt SCF=XQC
 -----------------------------

 ------------------------------
 Gaussian input prepared by ASE
 ------------------------------
 Symbolic Z-matrix:
 Charge =  0 Multiplicity = 1

 SCF Done:  E(RB3LYP) =  -2603.57577519     A.U. after   15 cycles
 SCF Done:  E(RB3LYP) =  -2603.58855759     A.U. after   12 cycles
 SCF Done:  E(RB3LYP) =  -2603.58918544     A.U. after   12 cycles
 SCF Done:  E(RB3LYP) =  -2603.58941426     A.U. after   12 cycles
 SCF Done:  E(RB3LYP) =  -2603.58945935     A.U. after   11 cycles
 SCF Done:  E(RB3LYP) =  -2603.58948808     A.U. after   11 cycles
 SCF Done:  E(RB3LYP) =  -2603.58949293     A.U. after   10 cycles
 SCF Done:  E(RB3LYP) =  -2603.58949376     A.U. after    7 cycles
 SCF Done:  E(RB3LYP) =  -2603.58949418     A.U. after    7 cycles
 SCF Done:  E(RB3LYP) =  -2603.58949426     A.U. after    6 cycles
 SCF Done:  E(RB3LYP) =  -2603.58949430     A.U. after    6 cycles
 Optimization completed.
    -- Stationary point found.

                         Standard orientation:
 ---------------------------------------------------------------------
 Center     Atomic      Atomic             Coordinates (Angstroms)
 Number     Number       Type             X           Y           Z
 ---------------------------------------------------------------------
      1          6           0       -9.409147   -3.888371   -2.859577
      2          6           0      -10.677338   -3.943955   -2.417791
      3          6           0      -11.015934   -3.459844   -1.027008
      4          6           0       -9.839217   -3.659021   -0.057890
      5          6           0       -8.529453   -3.204341   -0.684834
      6          7           0       -7.545500   -2.607914    0.141897
      7          6           0       -7.071061   -3.112640    1.359930
      8          6           0       -7.354920   -4.327754    1.991092
      9          6           0       -6.723569   -4.594060    3.204206
     10          6           0       -5.818764   -3.683784    3.776265
     11          6           0       -5.521480   -2.485626    3.134127
     12          6           0       -6.146038   -2.193136    1.916632
     13          6           0       -6.054895   -1.082154    0.993863
     14          6           0       -5.342767    0.120374    1.012982
     15          6           0       -5.494638    1.014958   -0.046819
     16          7           0       -4.765502    2.238734   -0.057798
     17          6           0       -5.323800    3.521762   -0.055271
     18          6           0       -6.667388    3.900631   -0.013508
     19          6           0       -6.956418    5.264358   -0.007018
     20          6           0       -5.934727    6.228438   -0.036994
     21          6           0       -4.596765    5.842916   -0.068744
     22          6           0       -4.278832    4.480159   -0.075803
     23          6           0       -3.030518    3.743967   -0.091386
     24          6           0       -1.689753    4.140519   -0.122580
     25          6           0       -0.712516    3.146031   -0.144744
     26          6           0       -1.103548    1.784026   -0.140359
     27          6           0       -2.414712    1.341814   -0.110469
     28          6           0       -3.375034    2.358972   -0.079381
     29          8           0       -0.008723    0.946521   -0.170082
     30          6           0        1.103384    1.761257   -0.192883
     31          6           0        2.405117    1.292157   -0.224839
     32          6           0        3.386223    2.289608   -0.247126
     33          6           0        3.070769    3.681400   -0.224380
     34          6           0        1.738511    4.105330   -0.190776
     35          6           0        0.740869    3.131042   -0.177566
     36          6           0        4.334429    4.391120   -0.232627
     37          6           0        4.681106    5.746909   -0.227477
     38          6           0        6.026935    6.104296   -0.253843
     39          6           0        7.028083    5.119035   -0.289744
     40          6           0        6.710333    3.761725   -0.294802
     41          6           0        5.359017    3.411057   -0.259624
     42          7           0        4.773378    2.140121   -0.268561
     43          6           0        5.475000    0.900371   -0.299395
     44          6           0        5.299768    0.029273   -1.393720
     45          6           0        5.964064   -1.191275   -1.459406
     46          6           0        6.835563   -1.520963   -0.417448
     47          6           0        7.021599   -0.655982    0.691954
     48          6           0        6.328275    0.556447    0.749735
     49          6           0        7.949605   -1.314752    1.586591
     50          6           0        8.520379   -0.964302    2.816009
     51          6           0        9.416572   -1.840625    3.419900
     52          6           0        9.751364   -3.058938    2.803076
     53          6           0        9.197476   -3.431975    1.580634
     54          6           0        8.288417   -2.553281    0.984847
     55          7           0        7.607441   -2.670252   -0.233003
     56          6           0        7.686495   -3.771906   -1.129637
     57          6           0        7.371159   -5.061892   -0.685160
     58          6           0        7.458271   -6.140419   -1.565147
     59          6           0        7.839584   -5.937947   -2.893037
     60          6           0        8.144360   -4.649727   -3.336944
     61          6           0        8.078982   -3.568403   -2.458370
     62          6           0       -6.369101    0.717083   -1.111206
     63          6           0       -7.099617   -0.466538   -1.138128
     64          6           0       -6.927053   -1.371123   -0.086658
     65          6           0       -8.338395   -3.367870   -2.010546
     66          1           0       -9.156283   -4.192943   -3.871983
     67          1           0      -11.481500   -4.278059   -3.068678
     68          1           0      -11.289756   -2.392125   -1.077942
     69          1           0      -11.897518   -3.980481   -0.636250
     70          1           0      -10.018279   -3.126168    0.880997
     71          1           0       -9.770433   -4.729089    0.191103
     72          1           0       -8.032506   -5.051138    1.552229
     73          1           0       -6.932427   -5.531287    3.712815
     74          1           0       -5.341888   -3.923176    4.722259
     75          1           0       -4.809647   -1.788413    3.568106
     76          1           0       -4.686374    0.370739    1.840920
     77          1           0       -7.458847    3.158755    0.016604
     78          1           0       -7.994300    5.585068    0.024478
     79          1           0       -6.192257    7.283844   -0.032278
     80          1           0       -3.808540    6.591391   -0.084439
     81          1           0       -1.420404    5.193193   -0.132734
     82          1           0       -2.667696    0.288311   -0.113540
     83          1           0        2.636446    0.233668   -0.228535
     84          1           0        1.490904    5.163207   -0.171699
     85          1           0        3.908824    6.511701   -0.206297
     86          1           0        6.306765    7.154010   -0.248903
     87          1           0        8.072616    5.417880   -0.315825
     88          1           0        7.485998    3.003459   -0.327659
     89          1           0        4.633937    0.326792   -2.197675
     90          1           0        5.811985   -1.859047   -2.300616
     91          1           0        6.436390    1.225769    1.597855
     92          1           0        8.269105   -0.018700    3.289231
     93          1           0        9.865580   -1.581436    4.374317
     94          1           0       10.459819   -3.725703    3.287074
     95          1           0        9.467324   -4.369910    1.106792
     96          1           0        7.050615   -5.208868    0.341549
     97          1           0        7.213778   -7.139082   -1.213915
     98          1           0        7.898750   -6.779083   -3.577863
     99          1           0        8.447442   -4.484967   -4.367209
    100          1           0        8.339915   -2.568334   -2.790615
    101          1           0       -6.462970    1.428589   -1.925543
    102          1           0       -7.775328   -0.679721   -1.958546
    103          1           0       -7.384068   -3.112208   -2.461735
 ---------------------------------------------------------------------

 The electronic state is 1-A.
 Alpha  occ. eigenvalues --  -19.19409 -14.38937 -14.38825 -14.37383 -14.37352
 Alpha  occ. eigenvalues --  -10.24460 -10.23823 -10.23715 -10.23709 -10.23212
 Alpha  occ. eigenvalues --  -10.23203 -10.22928 -10.22921 -10.22884 -10.22865
 Alpha  occ. eigenvalues --  -10.22184 -10.22158 -10.21558 -10.21539 -10.20583
 Alpha  occ. eigenvalues --  -10.20576 -10.20524 -10.20514 -10.20337 -10.20230
 Alpha  occ. eigenvalues --  -10.19995 -10.19796 -10.19766 -10.19762 -10.19725
 Alpha  occ. eigenvalues --  -10.19697 -10.19695 -10.19660 -10.19631 -10.19598
 Alpha  occ. eigenvalues --  -10.19534 -10.19402 -10.19400 -10.19364 -10.19309
 Alpha  occ. eigenvalues --  -10.19292 -10.19246 -10.19243 -10.19242 -10.19161
 Alpha  occ. eigenvalues --  -10.18738 -10.18731 -10.18630 -10.18542 -10.18425
 Alpha  occ. eigenvalues --  -10.18420 -10.18415 -10.18380 -10.18202 -10.18189
 Alpha  occ. eigenvalues --  -10.18086 -10.18060 -10.18052 -10.18012 -10.18012
 Alpha  occ. eigenvalues --  -10.17987 -10.17974 -10.17939 -10.17423 -10.17390
 Alpha  occ. eigenvalues --   -1.08941  -0.99593  -0.99425  -0.98169  -0.98148
 Alpha  occ. eigenvalues --   -0.87647  -0.86914  -0.85988  -0.85714  -0.84553
 Alpha  occ. eigenvalues --   -0.84359  -0.84036  -0.83817  -0.83278  -0.83102
 Alpha  occ. eigenvalues --   -0.79439  -0.79182  -0.77981  -0.77771  -0.76242
 Alpha  occ. eigenvalues --   -0.76149  -0.75993  -0.75814  -0.75604  -0.75173
 Alpha  occ. eigenvalues --   -0.74942  -0.73704  -0.73154  -0.72950  -0.72217
 Alpha  occ. eigenvalues --   -0.72200  -0.71376  -0.71318  -0.70032  -0.69464
 Alpha  occ. eigenvalues --   -0.66298  -0.65316  -0.64564  -0.63786  -0.63382
 Alpha  occ. eigenvalues --   -0.62587  -0.62377  -0.62115  -0.61274  -0.61144
 Alpha  occ. eigenvalues --   -0.60143  -0.58833  -0.58662  -0.58314  -0.57964
 Alpha  occ. eigenvalues --   -0.57679  -0.57611  -0.57319  -0.56496  -0.56338
 Alpha  occ. eigenvalues --   -0.54408  -0.53873  -0.53814  -0.52910  -0.52294
 Alpha  occ. eigenvalues --   -0.52130  -0.51975  -0.51128  -0.50907  -0.50594
 Alpha  occ. eigenvalues --   -0.49347  -0.48475  -0.48052  -0.47680  -0.47476
 Alpha  occ. eigenvalues --   -0.47329  -0.47210  -0.46871  -0.46419  -0.45405
 Alpha  occ. eigenvalues --   -0.45377  -0.45016  -0.44995  -0.44932  -0.44813
 Alpha  occ. eigenvalues --   -0.44512  -0.44167  -0.43789  -0.43703  -0.43667
 Alpha  occ. eigenvalues --   -0.43548  -0.43497  -0.43347  -0.43154  -0.43083
 Alpha  occ. eigenvalues --   -0.42833  -0.42644  -0.42522  -0.42129  -0.42056
 Alpha  occ. eigenvalues --   -0.42054  -0.41882  -0.40823  -0.40762  -0.40319
 Alpha  occ. eigenvalues --   -0.40117  -0.40081  -0.39743  -0.39579  -0.38403
 Alpha  occ. eigenvalues --   -0.38239  -0.37996  -0.37843  -0.37528  -0.37192
 Alpha  occ. eigenvalues --   -0.36799  -0.36291  -0.36209  -0.35977  -0.35762
 Alpha  occ. eigenvalues --   -0.35445  -0.35093  -0.34963  -0.34820  -0.34487
 Alpha  occ. eigenvalues --   -0.34317  -0.34234  -0.33884  -0.33811  -0.33530
 Alpha  occ. eigenvalues --   -0.33198  -0.33127  -0.33015  -0.32807  -0.32431
 Alpha  occ. eigenvalues --   -0.32045  -0.31280  -0.30612  -0.28532  -0.28480
 Alpha  occ. eigenvalues --   -0.27382  -0.26902  -0.26596  -0.26489  -0.25716
 Alpha  occ. eigenvalues --   -0.25650  -0.25214  -0.23664  -0.23344  -0.22068
 Alpha  occ. eigenvalues --   -0.21970  -0.21085  -0.20610  -0.20147  -0.19685
 Alpha  occ. eigenvalues --   -0.18652  -0.17408
 Alpha virt. eigenvalues --   -0.03988  -0.03397  -0.03378  -0.02541  -0.02125
 Alpha virt. eigenvalues --   -0.01768  -0.01661  -0.00365  -0.00292   0.00141
 Alpha virt. eigenvalues --    0.02058   0.02229   0.02667   0.03420   0.03590

 Mulliken charges:
               1
     1  C   -0.116672
     2  C   -0.126644
     3  C   -0.306225
     4  C   -0.332661
     5  C    0.269816
     6  N   -0.716700
     7  C    0.312987
     8  C   -0.170388
     9  C   -0.141400
    10  C   -0.145002
    11  C   -0.193774
    12  C    0.056154
    13  C    0.059183
    14  C   -0.233129
    15  C    0.251686
    16  N   -0.742050
    17  C    0.312290
    18  C   -0.178253
    19  C   -0.142889
    20  C   -0.145109
    21  C   -0.199178
    22  C    0.056417
    23  C    0.052165
    24  C   -0.270617
    25  C    0.078988
    26  C    0.327003
    27  C   -0.280688
    28  C    0.324367
    29  O   -0.569644
    30  C    0.326828
    31  C   -0.280256
    32  C    0.323493
    33  C    0.052081
    34  C   -0.270588
    35  C    0.078989
    36  C    0.056556
    37  C   -0.199136
    38  C   -0.145242
    39  C   -0.142950
    40  C   -0.178840
    41  C    0.313199
    42  N   -0.741365
    43  C    0.249566
    44  C   -0.164877
    45  C   -0.185682
    46  C    0.326792
    47  C    0.057152
    48  C   -0.231548
    49  C    0.057350
    50  C   -0.194410
    51  C   -0.145049
    52  C   -0.140668
    53  C   -0.175752
    54  C    0.313232
    55  N   -0.736996
    56  C    0.259277
    57  C   -0.147506
    58  C   -0.142560
    59  C   -0.120326
    60  C   -0.142473
    61  C   -0.148659
    62  C   -0.165054
    63  C   -0.183920
    64  C    0.322423
    65  C   -0.168965
    66  H    0.131945
    67  H    0.134836
    68  H    0.157661
    69  H    0.149526
    70  H    0.163340
    71  H    0.160435
    72  H    0.137530
    73  H    0.129570
    74  H    0.128655
    75  H    0.136008
    76  H    0.152045
    77  H    0.137002
    78  H    0.123279
    79  H    0.120964
    80  H    0.126449
    81  H    0.133670
    82  H    0.154329
    83  H    0.154250
    84  H    0.133628
    85  H    0.126292
    86  H    0.120895
    87  H    0.123682
    88  H    0.137450
    89  H    0.150304
    90  H    0.148076
    91  H    0.151482
    92  H    0.134702
    93  H    0.127653
    94  H    0.129561
    95  H    0.141594
    96  H    0.153792
    97  H    0.140681
    98  H    0.137559
    99  H    0.140952
   100  H    0.153040
   101  H    0.149445
   102  H    0.147035
   103  H    0.146533
 Sum of Mulliken charges =  -0.00000

 Dipole moment (field-independent basis, Debye):
    X=             -1.1414    Y=             -5.8622    Z=             -1.4275  Tot=              6.1405
 Quadrupole moment (field-independent basis, Debye-Ang):
   XX=           -297.8180   YY=           -337.2254   ZZ=           -354.6745
   XY=             -0.9556   XZ=              1.7850   YZ=              6.8488

 Normal termination of Gaussian 16 at Sat Nov  5 00:52:09 2022.
