 Gaussian 16, Revision B.01,
 Gaussian 16:  ES64L-G16RevB.01 20-Dec-2017

 -------------------------------------------------------------------
 #p b3lyp/6-31g(d) 6D 10F nosymm GFInput td=(50-50,nstate=2) SCF=XQC
 -------------------------------------------------------------------

 ------------------------------
 Gaussian input prepared by ASE
 ------------------------------
 Symbolic Z-matrix:
 Charge =  0 Multiplicity = 1

                          Input orientation:
 ---------------------------------------------------------------------
 Center     Atomic      Atomic             Coordinates (Angstroms)
 Number     Number       Type             X           Y           Z
 ---------------------------------------------------------------------
      1          6           0       -9.241263   -4.404355   -1.620512
      2          6           0      -10.517276   -4.294313   -1.212770
      3          6           0      -10.872491   -3.354698   -0.083950
      4          6           0       -9.714876   -3.212596    0.917678
      5          6           0       -8.388858   -3.013073    0.198555
      6          7           0       -7.410913   -2.173173    0.786402
      7          6           0       -6.963665   -2.226279    2.113277
      8          6           0       -7.274288   -3.144301    3.121340
      9          6           0       -6.666883   -2.976634    4.363965
     10          6           0       -5.759611   -1.930440    4.602425
     11          6           0       -5.435612   -1.032222    3.590234
     12          6           0       -6.035801   -1.176908    2.334544
     13          6           0       -5.914385   -0.456570    1.085359
     14          6           0       -5.186604    0.672766    0.700002
     15          6           0       -5.308766    1.144223   -0.607411
     16          7           0       -4.563195    2.282905   -1.028021
     17          6           0       -5.104193    3.490575   -1.482686
     18          6           0       -6.443086    3.869446   -1.602418
     19          6           0       -6.713861    5.152331   -2.075935
     20          6           0       -5.678969    6.038927   -2.418203
     21          6           0       -4.345957    5.657337   -2.286886
     22          6           0       -4.046263    4.374967   -1.813653
     23          6           0       -2.807853    3.670806   -1.547184
     24          6           0       -1.461553    4.022684   -1.686968
     25          6           0       -0.497514    3.075889   -1.342442
     26          6           0       -0.906804    1.803013   -0.873132
     27          6           0       -2.224099    1.407669   -0.718109
     28          6           0       -3.171072    2.378707   -1.061799
     29          8           0        0.177029    0.999986   -0.587841
     30          6           0        1.300193    1.748433   -0.869667
     31          6           0        2.595867    1.288651   -0.710246
     32          6           0        3.590503    2.209484   -1.057722
     33          6           0        3.293415    3.524514   -1.526285
     34          6           0        1.966590    3.942722   -1.669089
     35          6           0        0.955885    3.040565   -1.338505
     36          6           0        4.566446    4.178526   -1.754910
     37          6           0        4.931148    5.449188   -2.214021
     38          6           0        6.281904    5.765987   -2.335571
     39          6           0        7.270201    4.822908   -2.006644
     40          6           0        6.934398    3.550654   -1.546331
     41          6           0        5.578100    3.243255   -1.418965
     42          7           0        4.975692    2.052459   -0.997731
     43          6           0        5.661034    0.874556   -0.581729
     44          6           0        5.492402   -0.321380   -1.308616
     45          6           0        6.141265   -1.493138   -0.932716
     46          6           0        6.990767   -1.446018    0.176342
     47          6           0        7.169866   -0.250650    0.919707
     48          6           0        6.492004    0.910944    0.538628
     49          6           0        8.073902   -0.563675    2.006115
     50          6           0        8.628747    0.188358    3.048546
     51          6           0        9.502906   -0.429491    3.937306
     52          6           0        9.831562   -1.788479    3.789046
     53          6           0        9.293180   -2.559381    2.761346
     54          6           0        8.406053   -1.936404    1.879098
     55          7           0        7.743972   -2.464753    0.764170
     56          6           0        7.823179   -3.809878    0.307872
     57          6           0        7.483196   -4.862776    1.166288
     58          6           0        7.570491   -6.180485    0.717726
     59          6           0        7.976576   -6.454771   -0.589771
     60          6           0        8.305968   -5.403258   -1.447254
     61          6           0        8.240463   -4.083566   -1.000547
     62          6           0       -6.169277    0.500908   -1.519551
     63          6           0       -6.915057   -0.613289   -1.148451
     64          6           0       -6.772202   -1.097159    0.155046
     65          6           0       -8.177931   -3.628483   -0.983621
     66          1           0       -8.975661   -5.043533   -2.458712
     67          1           0      -11.314883   -4.828353   -1.723241
     68          1           0      -11.131075   -2.369420   -0.508166
     69          1           0      -11.767374   -3.701061    0.445353
     70          1           0       -9.902404   -2.385429    1.609150
     71          1           0       -9.664616   -4.129844    1.524229
     72          1           0       -7.954106   -3.970506    2.947441
     73          1           0       -6.896749   -3.677207    5.162124
     74          1           0       -5.301831   -1.829332    5.582138
     75          1           0       -4.721824   -0.232486    3.769340
     76          1           0       -4.540809    1.190831    1.402548
     77          1           0       -7.244819    3.189679   -1.332539
     78          1           0       -7.747727    5.471028   -2.178884
     79          1           0       -5.922358    7.031892   -2.785638
     80          1           0       -3.547608    6.348324   -2.545608
     81          1           0       -1.177974    5.004343   -2.056699
     82          1           0       -2.491108    0.420525   -0.360156
     83          1           0        2.813003    0.293328   -0.341316
     84          1           0        1.732915    4.942929   -2.023718
     85          1           0        4.168951    6.178880   -2.475516
     86          1           0        6.575671    6.750047   -2.689911
     87          1           0        8.318939    5.086960   -2.113706
     88          1           0        7.700259    2.823000   -1.297982
     89          1           0        4.844122   -0.317335   -2.179195
     90          1           0        5.994289   -2.410611   -1.492469
     91          1           0        6.594932    1.832572    1.103428
     92          1           0        8.382326    1.241166    3.158607
     93          1           0        9.939374    0.142217    4.751152
     94          1           0       10.522838   -2.250237    4.488800
     95          1           0        9.558283   -3.605341    2.648417
     96          1           0        7.143633   -4.641552    2.173381
     97          1           0        7.306797   -6.993120    1.388962
     98          1           0        8.035862   -7.481872   -0.938402
     99          1           0        8.628372   -5.608926   -2.464214
    100          1           0        8.520294   -3.263124   -1.654138
    101          1           0       -6.239999    0.885629   -2.532066
    102          1           0       -7.579792   -1.093747   -1.857256
    103          1           0       -7.212868   -3.552065   -1.476053
 ---------------------------------------------------------------------

 SCF Done:  E(RB3LYP) =  -2603.58948596     A.U. after   15 cycles

 Excitation energies and oscillator strengths:

 Excited state symmetry could not be determined.
 Excited State   1:      Triplet-?Sym    2.3122 eV  536.23 nm  f=0.0000  <S**2>=2.000
     209 -> 218       -0.36806
     212 -> 218       -0.10140
     213 -> 218       -0.21335
     214 -> 218        0.15844
     215 -> 218       -0.46278
     215 -> 220        0.10771
     216 -> 218       -0.13686
     217 -> 218        0.11053
 This state for optimization and/or second-order correction.
 Total Energy, E(TD-HF/TD-DFT) =  -2603.50451557
 Copying the excited state density for this state as the 1-particle RhoCI density.

 Excited state symmetry could not be determined.
 Excited State   2:      Triplet-?Sym    2.7982 eV  443.08 nm  f=0.0000  <S**2>=2.000
     208 -> 221        0.14616
     213 -> 221        0.11559
     216 -> 223        0.22396
     217 -> 221        0.56545
     217 -> 227       -0.16011

 Excited state symmetry could not be determined.
 Excited State   3:      Singlet-?Sym    3.3285 eV  372.49 nm  f=0.0779  <S**2>=0.000
     216 -> 218       -0.10805
     217 -> 218        0.64127
     217 -> 220        0.24441

 Excited state symmetry could not be determined.
 Excited State   4:      Singlet-?Sym    3.3866 eV  366.11 nm  f=0.0313  <S**2>=0.000
     216 -> 219        0.13706
     217 -> 219        0.65738
     217 -> 220       -0.16944

 Alpha  occ. eigenvalues --  -19.19409 -14.38937 -14.38825 -14.37383 -14.37352
 Alpha  occ. eigenvalues --  -10.24460 -10.23823 -10.23715 -10.23709 -10.23212
 Alpha  occ. eigenvalues --  -10.23203 -10.22928 -10.22921 -10.22884 -10.22865
 Alpha  occ. eigenvalues --  -10.22184 -10.22158 -10.21558 -10.21539 -10.20583
 Alpha  occ. eigenvalues --  -10.20576 -10.20524 -10.20514 -10.20337 -10.20230
 Alpha  occ. eigenvalues --  -10.19995 -10.19796 -10.19766 -10.19762 -10.19725
 Alpha  occ. eigenvalues --  -10.19697 -10.19695 -10.19660 -10.19631 -10.19598
 Alpha  occ. eigenvalues --  -10.19534 -10.19402 -10.19400 -10.19364 -10.19309
 Alpha  occ. eigenvalues --  -10.19292 -10.19246 -10.19243 -10.19242 -10.19161
 Alpha  occ. eigenvalues --  -10.18738 -10.18731 -10.18630 -10.18543 -10.18425
 Alpha  occ. eigenvalues --  -10.18420 -10.18415 -10.18380 -10.18202 -10.18189
 Alpha  occ. eigenvalues --  -10.18086 -10.18060 -10.18052 -10.18012 -10.18012
 Alpha  occ. eigenvalues --  -10.17987 -10.17974 -10.17939 -10.17423 -10.17390
 Alpha  occ. eigenvalues --   -1.08941  -0.99593  -0.99425  -0.98169  -0.98148
 Alpha  occ. eigenvalues --   -0.87647  -0.86914  -0.85988  -0.85714  -0.84553
 Alpha  occ. eigenvalues --   -0.84359  -0.84036  -0.83817  -0.83278  -0.83102
 Alpha  occ. eigenvalues --   -0.79439  -0.79182  -0.77981  -0.77771  -0.76242
 Alpha  occ. eigenvalues --   -0.76149  -0.75993  -0.75814  -0.75603  -0.75173
 Alpha  occ. eigenvalues --   -0.74942  -0.73704  -0.73154  -0.72950  -0.72217
 Alpha  occ. eigenvalues --   -0.72200  -0.71376  -0.71318  -0.70032  -0.69464
 Alpha  occ. eigenvalues --   -0.66298  -0.65316  -0.64564  -0.63786  -0.63382
 Alpha  occ. eigenvalues --   -0.62587  -0.62377  -0.62115  -0.61274  -0.61144
 Alpha  occ. eigenvalues --   -0.60143  -0.58833  -0.58662  -0.58314  -0.57964
 Alpha  occ. eigenvalues --   -0.57679  -0.57611  -0.57319  -0.56496  -0.56338
 Alpha  occ. eigenvalues --   -0.54408  -0.53873  -0.53814  -0.52910  -0.52294
 Alpha  occ. eigenvalues --   -0.52130  -0.51975  -0.51128  -0.50907  -0.50594
 Alpha  occ. eigenvalues --   -0.49347  -0.48475  -0.48052  -0.47680  -0.47476
 Alpha  occ. eigenvalues --   -0.47329  -0.47210  -0.46871  -0.46419  -0.45405
 Alpha  occ. eigenvalues --   -0.45377  -0.45016  -0.44995  -0.44932  -0.44813
 Alpha  occ. eigenvalues --   -0.44512  -0.44167  -0.43789  -0.43703  -0.43667
 Alpha  occ. eigenvalues --   -0.43548  -0.43497  -0.43347  -0.43154  -0.43083
 Alpha  occ. eigenvalues --   -0.42833  -0.42644  -0.42522  -0.42129  -0.42056
 Alpha  occ. eigenvalues --   -0.42054  -0.41882  -0.40823  -0.40762  -0.40319
 Alpha  occ. eigenvalues --   -0.40117  -0.40081  -0.39743  -0.39579  -0.38403
 Alpha  occ. eigenvalues --   -0.38239  -0.37996  -0.37843  -0.37528  -0.37192
 Alpha  occ. eigenvalues --   -0.36799  -0.36291  -0.36209  -0.35977  -0.35762
 Alpha  occ. eigenvalues --   -0.35445  -0.35093  -0.34963  -0.34820  -0.34487
 Alpha  occ. eigenvalues --   -0.34317  -0.34233  -0.33884  -0.33811  -0.33530
 Alpha  occ. eigenvalues --   -0.33198  -0.33127  -0.33015  -0.32807  -0.32431
 Alpha  occ. eigenvalues --   -0.32044  -0.31280  -0.30612  -0.28532  -0.28480
 Alpha  occ. eigenvalues --   -0.27382  -0.26902  -0.26596  -0.26489  -0.25716
 Alpha  occ. eigenvalues --   -0.25650  -0.25214  -0.23664  -0.23344  -0.22068
 Alpha  occ. eigenvalues --   -0.21970  -0.21085  -0.20610  -0.20147  -0.19685
 Alpha  occ. eigenvalues --   -0.18652  -0.17408
 Alpha virt. eigenvalues --   -0.03988  -0.03398  -0.03378  -0.02541  -0.02125
 Alpha virt. eigenvalues --   -0.01768  -0.01661  -0.00365  -0.00292   0.00141
 Alpha virt. eigenvalues --    0.02058   0.02229   0.02667   0.03420   0.03590

 Mulliken charges:
               1
     1  C   -0.116667
     2  C   -0.126660
     3  C   -0.306220
     4  C   -0.332666
     5  C    0.269823
     6  N   -0.716700
     7  C    0.312959
     8  C   -0.170379
     9  C   -0.141400
    10  C   -0.145002
    11  C   -0.193782
    12  C    0.056181
    13  C    0.059163
    14  C   -0.233127
    15  C    0.251705
    16  N   -0.742056
    17  C    0.312277
    18  C   -0.178238
    19  C   -0.142890
    20  C   -0.145113
    21  C   -0.199173
    22  C    0.056414
    23  C    0.052186
    24  C   -0.270623
    25  C    0.078980
    26  C    0.327016
    27  C   -0.280702
    28  C    0.324358
    29  O   -0.569647
    30  C    0.326843
    31  C   -0.280269
    32  C    0.323495
    33  C    0.052088
    34  C   -0.270597
    35  C    0.078980
    36  C    0.056568
    37  C   -0.199138
    38  C   -0.145243
    39  C   -0.142947
    40  C   -0.178827
    41  C    0.313184
    42  N   -0.741371
    43  C    0.249566
    44  C   -0.164870
    45  C   -0.185687
    46  C    0.326780
    47  C    0.057150
    48  C   -0.231531
    49  C    0.057383
    50  C   -0.194431
    51  C   -0.145052
    52  C   -0.140656
    53  C   -0.175756
    54  C    0.313219
    55  N   -0.736998
    56  C    0.259274
    57  C   -0.147503
    58  C   -0.142567
    59  C   -0.120321
    60  C   -0.142478
    61  C   -0.148654
    62  C   -0.165054
    63  C   -0.183929
    64  C    0.322429
    65  C   -0.168953
    66  H    0.131945
    67  H    0.134837
    68  H    0.157661
    69  H    0.149526
    70  H    0.163339
    71  H    0.160435
    72  H    0.137528
    73  H    0.129570
    74  H    0.128655
    75  H    0.136007
    76  H    0.152047
    77  H    0.137000
    78  H    0.123279
    79  H    0.120964
    80  H    0.126448
    81  H    0.133671
    82  H    0.154331
    83  H    0.154254
    84  H    0.133628
    85  H    0.126291
    86  H    0.120895
    87  H    0.123681
    88  H    0.137445
    89  H    0.150303
    90  H    0.148076
    91  H    0.151482
    92  H    0.134703
    93  H    0.127654
    94  H    0.129560
    95  H    0.141596
    96  H    0.153793
    97  H    0.140681
    98  H    0.137559
    99  H    0.140952
   100  H    0.153041
   101  H    0.149446
   102  H    0.147039
   103  H    0.146533
 Sum of Mulliken charges =  -0.00000

 Dipole moment (field-independent basis, Debye):
    X=             -1.1960    Y=             -5.9849    Z=              0.6750  Tot=              6.1405
 Quadrupole moment (field-independent basis, Debye-Ang):
   XX=           -298.3365   YY=           -336.9176   ZZ=           -357.0593
   XY=             -1.7405   XZ=              3.4366   YZ=              0.1938

 Normal termination of Gaussian 16 at Sat Nov  5 11:19:26 2022.
