 Gaussian 16, Revision B.01,
 Gaussian 16:  ES64L-G16RevB.01 20-Dec-2017

 -------------------------------------------------------------------
 #p b3lyp/6-31g(d) 6D 10F nosymm GFInput td=(50-50,nstate=2) SCF=XQC
 -------------------------------------------------------------------

 ------------------------------
 Gaussian input prepared by ASE
 ------------------------------
 Symbolic Z-matrix:
 Charge =  0 Multiplicity = 1

                          Input orientation:
 ---------------------------------------------------------------------
 Center     Atomic      Atomic             Coordinates (Angstroms)
 Number     Number       Type             X           Y           Z
 ---------------------------------------------------------------------
      1          6           0        2.233650    0.417950    3.898132
      2          6           0        0.927415    0.716422    3.517019
      3          6           0        0.503051    0.504510    2.193583
      4          6           0       -0.894451    0.788076    1.781059
      5          6           0       -1.600994    1.909611    2.322767
      6          6           0       -2.888028    2.182540    1.952048
      7          6           0       -3.588511    1.363266    1.008634
      8          6           0       -4.916508    1.638537    0.620345
      9          6           0       -5.646720    2.804414    1.218241
     10          6           0       -6.373054    2.631391    2.382590
     11          6           0       -7.076302    3.703061    2.981583
     12          6           0       -7.049934    4.953116    2.409674
     13          6           0       -6.319249    5.185233    1.214143
     14          6           0       -6.277477    6.468780    0.605236
     15          6           0       -5.565874    6.680771   -0.553061
     16          6           0       -4.860724    5.611901   -1.156530
     17          6           0       -4.879933    4.355674   -0.593101
     18          6           0       -5.604917    4.100147    0.603703
     19          6           0       -5.562779    0.803727   -0.318883
     20          6           0       -6.908183    1.049622   -0.744669
     21          6           0       -7.528254    0.237005   -1.656032
     22          6           0       -6.841309   -0.881263   -2.204622
     23          6           0       -5.553730   -1.154448   -1.827210
     24          6           0       -4.863538   -0.333232   -0.877184
     25          6           0       -3.535106   -0.609572   -0.485084
     26          6           0       -2.803320   -1.778206   -1.075748
     27          6           0       -2.020562   -1.596961   -2.201605
     28          6           0       -1.310029   -2.670331   -2.788945
     29          6           0       -1.387067   -3.930642   -2.244228
     30          6           0       -2.176202   -4.171243   -1.088002
     31          6           0       -2.270030   -5.465059   -0.507728
     32          6           0       -3.036222   -5.684932    0.613629
     33          6           0       -3.745764   -4.613677    1.207344
     34          6           0       -3.677445   -3.347603    0.670471
     35          6           0       -2.896695   -3.084154   -0.488833
     36          6           0       -2.888032    0.228755    0.450850
     37          6           0       -1.544950   -0.018680    0.873373
     38          6           0        1.433148    0.005758    1.270889
     39          6           0        2.754839   -0.280352    1.635516
     40          6           0        3.668119   -0.868536    0.608181
     41          7           0        3.135930   -1.819809   -0.117257
     42          6           0        3.896835   -2.482531   -1.049427
     43          6           0        3.251252   -3.494841   -1.796198
     44          6           0        3.952887   -4.239627   -2.722722
     45          6           0        5.324729   -3.992630   -2.922792
     46          6           0        5.976942   -3.002284   -2.209313
     47          6           0        5.279639   -2.215305   -1.261206
     48          6           0        5.857876   -1.124796   -0.503467
     49          6           0        5.037394   -0.411181    0.426725
     50          6           0        5.539315    0.734579    1.104510
     51          6           0        6.836062    1.172768    0.940333
     52          6           0        7.681272    0.458437    0.072454
     53          6           0        9.060075    0.604315   -0.346455
     54          6           0       10.109627    1.482871   -0.049184
     55          6           0       11.336338    1.289673   -0.680139
     56          6           0       11.525341    0.239277   -1.595627
     57          6           0       10.493683   -0.647665   -1.906558
     58          6           0        9.280669   -0.435101   -1.266422
     59          8           0        8.148266   -1.196235   -1.438500
     60          6           0        7.180760   -0.649594   -0.620455
     61          6           0        3.147357   -0.077825    2.967851
     62          1           0        2.539183    0.556598    4.931858
     63          1           0        0.221130    1.081912    4.257146
     64          1           0       -1.092062    2.569195    3.019924
     65          1           0       -3.397336    3.044368    2.369128
     66          1           0       -6.402467    1.648582    2.845272
     67          1           0       -7.636489    3.529196    3.896335
     68          1           0       -7.587849    5.781947    2.864016
     69          1           0       -6.821972    7.284619    1.075273
     70          1           0       -5.542845    7.667584   -1.007591
     71          1           0       -4.300495    5.785881   -2.071280
     72          1           0       -4.337299    3.540334   -1.060374
     73          1           0       -7.435537    1.900713   -0.328076
     74          1           0       -8.549460    0.445629   -1.963585
     75          1           0       -7.342698   -1.519839   -2.926982
     76          1           0       -5.032525   -2.006384   -2.249651
     77          1           0       -1.950875   -0.606308   -2.642724
     78          1           0       -0.704630   -2.489646   -3.672909
     79          1           0       -0.847316   -4.761984   -2.691945
     80          1           0       -1.719894   -6.282243   -0.968706
     81          1           0       -3.097733   -6.679464    1.047230
     82          1           0       -4.347646   -4.793416    2.094109
     83          1           0       -4.223228   -2.530411    1.130776
     84          1           0       -1.036319   -0.889415    0.475857
     85          1           0        1.136680   -0.158289    0.240711
     86          1           0        2.194758   -3.657192   -1.605795
     87          1           0        3.452246   -5.017835   -3.292583
     88          1           0        5.880381   -4.583071   -3.646406
     89          1           0        7.029436   -2.824455   -2.382277
     90          1           0        4.871440    1.288415    1.751944
     91          1           0        7.193291    2.055344    1.462622
     92          1           0        9.971971    2.296448    0.657435
     93          1           0       12.162484    1.960439   -0.462754
     94          1           0       12.493500    0.113919   -2.071854
     95          1           0       10.625033   -1.462285   -2.610879
     96          1           0        4.154568   -0.332761    3.283036
 ---------------------------------------------------------------------

 SCF Done:  E(RB3LYP) =  -2399.43703269     A.U. after   16 cycles

 Excitation energies and oscillator strengths:

 Excited state symmetry could not be determined.
 Excited State   1:      Triplet-?Sym    1.6919 eV  732.80 nm  f=0.0000  <S**2>=2.000
     202 ->203         0.68324
     202 ->204        -0.12043
     202 <-203         0.13314
 This state for optimization and/or second-order correction.
 Total Energy, E(TD-HF/TD-DFT) =  -2399.37485573
 Copying the excited state density for this state as the 1-particle RhoCI density.

 Excited state symmetry could not be determined.
 Excited State   2:      Triplet-?Sym    2.5890 eV  478.90 nm  f=0.0000  <S**2>=2.000
     196 ->209        -0.10844
     198 ->204         0.20631
     198 ->205         0.15664
     199 ->204         0.18303
     200 ->203        -0.10982
     200 ->204        -0.52326
     200 ->205         0.16362

 Excited state symmetry could not be determined.
 Excited State   3:      Singlet-?Sym    3.0381 eV  408.10 nm  f=0.1181  <S**2>=0.000
     202 ->203         0.69699

 Excited state symmetry could not be determined.
 Excited State   4:      Singlet-?Sym    3.1014 eV  399.77 nm  f=0.0011  <S**2>=0.000
     202 ->204         0.69941

 Alpha  occ. eigenvalues --  -19.21844 -14.32147 -10.25675 -10.25425 -10.23410
 Alpha  occ. eigenvalues --  -10.21802 -10.21719 -10.21011 -10.20765 -10.20529
 Alpha  occ. eigenvalues --  -10.20391 -10.20321 -10.20287 -10.20275 -10.20239
 Alpha  occ. eigenvalues --  -10.19830 -10.19762 -10.19751 -10.19732 -10.19727
 Alpha  occ. eigenvalues --  -10.19679 -10.19676 -10.19665 -10.19657 -10.19654
 Alpha  occ. eigenvalues --  -10.19636 -10.19626 -10.19625 -10.19619 -10.19555
 Alpha  occ. eigenvalues --  -10.19484 -10.19471 -10.19064 -10.18999 -10.18991
 Alpha  occ. eigenvalues --  -10.18971 -10.18947 -10.18944 -10.18940 -10.18904
 Alpha  occ. eigenvalues --  -10.18879 -10.18875 -10.18851 -10.18815 -10.18808
 Alpha  occ. eigenvalues --  -10.18756 -10.18728 -10.18673 -10.18656 -10.18613
 Alpha  occ. eigenvalues --  -10.18605 -10.18584 -10.18584 -10.18539 -10.18423
 Alpha  occ. eigenvalues --  -10.18410 -10.18387 -10.18337 -10.18315 -10.18295
 Alpha  occ. eigenvalues --  -10.18182  -1.11364  -0.94197  -0.88598  -0.87225
 Alpha  occ. eigenvalues --   -0.86897  -0.86564  -0.86303  -0.85999  -0.84617
 Alpha  occ. eigenvalues --   -0.83810  -0.82303  -0.81772  -0.80405  -0.80125
 Alpha  occ. eigenvalues --   -0.79841  -0.78197  -0.77075  -0.76450  -0.75845
 Alpha  occ. eigenvalues --   -0.75299  -0.75216  -0.74181  -0.73813  -0.73746
 Alpha  occ. eigenvalues --   -0.73541  -0.73063  -0.72626  -0.72265  -0.71786
 Alpha  occ. eigenvalues --   -0.71475  -0.68783  -0.66147  -0.64545  -0.64403
 Alpha  occ. eigenvalues --   -0.63674  -0.62825  -0.61975  -0.61873  -0.61281
 Alpha  occ. eigenvalues --   -0.60970  -0.60782  -0.60735  -0.60519  -0.60011
 Alpha  occ. eigenvalues --   -0.58749  -0.58318  -0.57772  -0.57618  -0.55571
 Alpha  occ. eigenvalues --   -0.55256  -0.53815  -0.53135  -0.52639  -0.51860
 Alpha  occ. eigenvalues --   -0.51333  -0.51026  -0.50803  -0.50642  -0.50187
 Alpha  occ. eigenvalues --   -0.49546  -0.49075  -0.48857  -0.48672  -0.48059
 Alpha  occ. eigenvalues --   -0.47344  -0.46851  -0.46798  -0.46088  -0.45812
 Alpha  occ. eigenvalues --   -0.45749  -0.45122  -0.44628  -0.44346  -0.44106
 Alpha  occ. eigenvalues --   -0.44014  -0.43881  -0.43547  -0.43066  -0.42837
 Alpha  occ. eigenvalues --   -0.42767  -0.42669  -0.42417  -0.42137  -0.41481
 Alpha  occ. eigenvalues --   -0.41269  -0.41189  -0.40976  -0.40700  -0.40499
 Alpha  occ. eigenvalues --   -0.40333  -0.39985  -0.39793  -0.39453  -0.39105
 Alpha  occ. eigenvalues --   -0.38576  -0.38353  -0.38126  -0.37918  -0.37766
 Alpha  occ. eigenvalues --   -0.37172  -0.37023  -0.36784  -0.36727  -0.36257
 Alpha  occ. eigenvalues --   -0.35935  -0.35812  -0.35426  -0.35154  -0.34806
 Alpha  occ. eigenvalues --   -0.34331  -0.34135  -0.33870  -0.33722  -0.33479
 Alpha  occ. eigenvalues --   -0.33346  -0.33019  -0.32776  -0.32740  -0.32198
 Alpha  occ. eigenvalues --   -0.31924  -0.30624  -0.29988  -0.29861  -0.28579
 Alpha  occ. eigenvalues --   -0.28049  -0.27881  -0.27635  -0.26146  -0.25739
 Alpha  occ. eigenvalues --   -0.25009  -0.24759  -0.24686  -0.24145  -0.23772
 Alpha  occ. eigenvalues --   -0.23629  -0.22485  -0.22262  -0.21200  -0.21095
 Alpha  occ. eigenvalues --   -0.21010  -0.18628
 Alpha virt. eigenvalues --   -0.06212  -0.06020  -0.03899  -0.03740  -0.03549
 Alpha virt. eigenvalues --   -0.02386  -0.01739  -0.00879  -0.00396   0.00285
 Alpha virt. eigenvalues --    0.00555   0.00786   0.01834   0.02277   0.03338

 Mulliken charges:
               1
     1  C   -0.141320
     2  C   -0.169291
     3  C    0.082098
     4  C    0.102011
     5  C   -0.178710
     6  C   -0.201730
     7  C    0.112613
     8  C   -0.098988
     9  C   -0.053004
    10  C   -0.163219
    11  C   -0.138922
    12  C   -0.185821
    13  C    0.128070
    14  C   -0.194859
    15  C   -0.131807
    16  C   -0.134254
    17  C   -0.190535
    18  C    0.116233
    19  C    0.108791
    20  C   -0.195056
    21  C   -0.134598
    22  C   -0.134890
    23  C   -0.193547
    24  C    0.104791
    25  C   -0.096397
    26  C   -0.053871
    27  C   -0.162566
    28  C   -0.136475
    29  C   -0.186122
    30  C    0.130033
    31  C   -0.193554
    32  C   -0.131122
    33  C   -0.133532
    34  C   -0.189635
    35  C    0.118278
    36  C    0.117871
    37  C   -0.276542
    38  C   -0.196417
    39  C    0.101958
    40  C    0.154257
    41  N   -0.561309
    42  C    0.230263
    43  C   -0.160947
    44  C   -0.131530
    45  C   -0.137878
    46  C   -0.199059
    47  C    0.110565
    48  C    0.044965
    49  C    0.087634
    50  C   -0.229433
    51  C   -0.195327
    52  C    0.123917
    53  C    0.055056
    54  C   -0.188564
    55  C   -0.143981
    56  C   -0.136575
    57  C   -0.199837
    58  C    0.344673
    59  O   -0.564744
    60  C    0.206908
    61  C   -0.175704
    62  H    0.131233
    63  H    0.133543
    64  H    0.130737
    65  H    0.147134
    66  H    0.137562
    67  H    0.131722
    68  H    0.129362
    69  H    0.129021
    70  H    0.129912
    71  H    0.131259
    72  H    0.146453
    73  H    0.146460
    74  H    0.129267
    75  H    0.129494
    76  H    0.147284
    77  H    0.137395
    78  H    0.133762
    79  H    0.128353
    80  H    0.128712
    81  H    0.129618
    82  H    0.130193
    83  H    0.144705
    84  H    0.162181
    85  H    0.150715
    86  H    0.147487
    87  H    0.129210
    88  H    0.130011
    89  H    0.163063
    90  H    0.155591
    91  H    0.139248
    92  H    0.138782
    93  H    0.133962
    94  H    0.137092
    95  H    0.149492
    96  H    0.140669
 Sum of Mulliken charges =  -0.00000

 Dipole moment (field-independent basis, Debye):
    X=              2.0045    Y=              1.2623    Z=              0.1407  Tot=              2.3730
 Quadrupole moment (field-independent basis, Debye-Ang):
   XX=           -294.2470   YY=           -320.3637   ZZ=           -324.6142
   XY=              1.5189   XZ=             -8.5673   YZ=             12.9493

 Normal termination of Gaussian 16 at Sat Nov  5 11:44:07 2022.
