 Gaussian 16, Revision B.01,
 Gaussian 16:  ES64L-G16RevB.01 20-Dec-2017

 -----------------------------
 #p b3lyp/6-31g(d) opt SCF=XQC
 -----------------------------

 ------------------------------
 Gaussian input prepared by ASE
 ------------------------------
 Symbolic Z-matrix:
 Charge =  0 Multiplicity = 1

 SCF Done:  E(RB3LYP) =  -2399.42377456     A.U. after   16 cycles
 SCF Done:  E(RB3LYP) =  -2399.43590786     A.U. after   13 cycles
 SCF Done:  E(RB3LYP) =  -2399.43671456     A.U. after   12 cycles
 SCF Done:  E(RB3LYP) =  -2399.43693044     A.U. after   12 cycles
 SCF Done:  E(RB3LYP) =  -2399.43699482     A.U. after   11 cycles
 SCF Done:  E(RB3LYP) =  -2399.43702312     A.U. after   11 cycles
 SCF Done:  E(RB3LYP) =  -2399.43703513     A.U. after   11 cycles
 SCF Done:  E(RB3LYP) =  -2399.43703672     A.U. after    9 cycles
 SCF Done:  E(RB3LYP) =  -2399.43703709     A.U. after    8 cycles
 SCF Done:  E(RB3LYP) =  -2399.43703718     A.U. after    7 cycles
 SCF Done:  E(RB3LYP) =  -2399.43703723     A.U. after    6 cycles
 SCF Done:  E(RB3LYP) =  -2399.43703725     A.U. after    6 cycles
 Optimization completed.
    -- Stationary point found.

                         Standard orientation:
 ---------------------------------------------------------------------
 Center     Atomic      Atomic             Coordinates (Angstroms)
 Number     Number       Type             X           Y           Z
 ---------------------------------------------------------------------
      1          6           0       -1.629467   -2.017046    3.603813
      2          6           0       -0.323961   -1.908359    3.130081
      3          6           0       -0.053601   -1.227813    1.929982
      4          6           0        1.335793   -1.076801    1.429606
      5          6           0        2.287076   -2.135117    1.589348
      6          6           0        3.569653   -2.009753    1.133650
      7          6           0        4.021557   -0.819069    0.477928
      8          6           0        5.343270   -0.682084    0.004189
      9          6           0        6.330709   -1.793498    0.203388
     10          6           0        7.098201   -1.827544    1.353607
     11          6           0        8.041040   -2.857180    1.583243
     12          6           0        8.213706   -3.856499    0.654824
     13          6           0        7.451016   -3.869109   -0.543182
     14          6           0        7.612244   -4.891814   -1.516878
     15          6           0        6.867206   -4.892787   -2.673549
     16          6           0        5.922703   -3.864822   -2.908277
     17          6           0        5.741175   -2.858724   -1.985921
     18          6           0        6.493837   -2.825882   -0.779414
     19          6           0        5.739472    0.510488   -0.641967
     20          6           0        7.069563    0.689648   -1.142597
     21          6           0        7.446639    1.847768   -1.768687
     22          6           0        6.514616    2.909190   -1.936271
     23          6           0        5.231981    2.781954   -1.474119
     24          6           0        4.791032    1.589642   -0.812857
     25          6           0        3.468984    1.452427   -0.335156
     26          6           0        2.480035    2.563925   -0.526604
     27          6           0        1.661977    2.567043   -1.641899
     28          6           0        0.712596    3.593267   -1.859819
     29          6           0        0.585355    4.620835   -0.954861
     30          6           0        1.400477    4.665282    0.207499
     31          6           0        1.285915    5.716969    1.156347
     32          6           0        2.079912    5.747706    2.279494
     33          6           0        3.028410    4.721345    2.504143
     34          6           0        3.165909    3.687893    1.604747
     35          6           0        2.363190    3.624837    0.432302
     36          6           0        3.072425    0.257393    0.306797
     37          6           0        1.744049    0.081126    0.804761
     38          6           0       -1.132108   -0.682721    1.219422
     39          6           0       -2.451610   -0.801240    1.673894
     40          6           0       -3.539240   -0.138148    0.891059
     41          7           0       -3.260538    1.075324    0.485820
     42          6           0       -4.206241    1.811329   -0.185790
     43          6           0       -3.830201    3.111713   -0.594215
     44          6           0       -4.733468    3.934859   -1.236074
     45          6           0       -6.042432    3.477646   -1.482156
     46          6           0       -6.431828    2.206256   -1.098547
     47          6           0       -5.522903    1.336474   -0.449076
     48          6           0       -5.817027   -0.025933   -0.055279
     49          6           0       -4.803328   -0.796294    0.597907
     50          6           0       -5.018330   -2.170374    0.897507
     51          6           0       -6.213880   -2.800656    0.625620
     52          6           0       -7.247030   -2.053371    0.032301
     53          6           0       -8.599559   -2.352633   -0.390749
     54          6           0       -9.431718   -3.478920   -0.362821
     55          6           0      -10.718039   -3.367378   -0.885492
     56          6           0      -11.178634   -2.155714   -1.430371
     57          6           0      -10.366670   -1.021285   -1.468449
     58          6           0       -9.089258   -1.156464   -0.942801
     59          8           0       -8.143474   -0.159534   -0.888990
     60          6           0       -7.027249   -0.710217   -0.293279
     61          6           0       -2.691962   -1.469038    2.884877
     62          1           0       -1.820511   -2.518163    4.549089
     63          1           0        0.495528   -2.321709    3.711277
     64          1           0        1.972178   -3.063626    2.057110
     65          1           0        4.267838   -2.830273    1.257671
     66          1           0        6.971957   -1.043938    2.095818
     67          1           0        8.626417   -2.850781    2.498722
     68          1           0        8.936356   -4.651413    0.824028
     69          1           0        8.340026   -5.677930   -1.328842
     70          1           0        7.001108   -5.681217   -3.409332
     71          1           0        5.337308   -3.871337   -3.823788
     72          1           0        5.015525   -2.073507   -2.171508
     73          1           0        7.783267   -0.116954   -1.016001
     74          1           0        8.461719    1.958623   -2.140574
     75          1           0        6.824257    3.824067   -2.434365
     76          1           0        4.523668    3.592373   -1.606109
     77          1           0        1.752051    1.761285   -2.365416
     78          1           0        0.086741    3.561888   -2.747438
     79          1           0       -0.139061    5.415730   -1.116962
     80          1           0        0.553063    6.500458    0.977426
     81          1           0        1.980501    6.557608    2.997174
     82          1           0        3.651229    4.750273    3.394189
     83          1           0        3.894455    2.903687    1.783089
     84          1           0        1.046321    0.904252    0.702083
     85          1           0       -0.954590   -0.160901    0.285471
     86          1           0       -2.813875    3.427044   -0.378721
     87          1           0       -4.439805    4.934177   -1.546102
     88          1           0       -6.757093    4.127080   -1.980636
     89          1           0       -7.439870    1.872149   -1.302272
     90          1           0       -4.207008   -2.739548    1.333121
     91          1           0       -6.350734   -3.853018    0.856150
     92          1           0       -9.083700   -4.418497    0.056994
     93          1           0      -11.378404   -4.229619   -0.872915
     94          1           0      -12.186867   -2.099420   -1.830541
     95          1           0      -10.708546   -0.080103   -1.885850
     96          1           0       -3.701767   -1.536109    3.278071
 ---------------------------------------------------------------------

 The electronic state is 1-A.
 Alpha  occ. eigenvalues --  -19.21844 -14.32147 -10.25675 -10.25425 -10.23410
 Alpha  occ. eigenvalues --  -10.21802 -10.21719 -10.21011 -10.20765 -10.20529
 Alpha  occ. eigenvalues --  -10.20391 -10.20321 -10.20287 -10.20275 -10.20239
 Alpha  occ. eigenvalues --  -10.19830 -10.19762 -10.19751 -10.19732 -10.19727
 Alpha  occ. eigenvalues --  -10.19679 -10.19676 -10.19665 -10.19657 -10.19654
 Alpha  occ. eigenvalues --  -10.19636 -10.19626 -10.19625 -10.19619 -10.19555
 Alpha  occ. eigenvalues --  -10.19484 -10.19471 -10.19064 -10.18998 -10.18991
 Alpha  occ. eigenvalues --  -10.18971 -10.18947 -10.18944 -10.18940 -10.18904
 Alpha  occ. eigenvalues --  -10.18879 -10.18875 -10.18851 -10.18815 -10.18808
 Alpha  occ. eigenvalues --  -10.18756 -10.18728 -10.18673 -10.18656 -10.18613
 Alpha  occ. eigenvalues --  -10.18605 -10.18584 -10.18584 -10.18539 -10.18423
 Alpha  occ. eigenvalues --  -10.18410 -10.18387 -10.18337 -10.18315 -10.18295
 Alpha  occ. eigenvalues --  -10.18182  -1.11364  -0.94198  -0.88598  -0.87225
 Alpha  occ. eigenvalues --   -0.86897  -0.86564  -0.86303  -0.85999  -0.84617
 Alpha  occ. eigenvalues --   -0.83810  -0.82303  -0.81772  -0.80405  -0.80125
 Alpha  occ. eigenvalues --   -0.79841  -0.78197  -0.77075  -0.76450  -0.75845
 Alpha  occ. eigenvalues --   -0.75299  -0.75216  -0.74181  -0.73813  -0.73746
 Alpha  occ. eigenvalues --   -0.73541  -0.73063  -0.72626  -0.72265  -0.71786
 Alpha  occ. eigenvalues --   -0.71475  -0.68783  -0.66147  -0.64545  -0.64403
 Alpha  occ. eigenvalues --   -0.63674  -0.62825  -0.61975  -0.61873  -0.61281
 Alpha  occ. eigenvalues --   -0.60970  -0.60782  -0.60735  -0.60519  -0.60011
 Alpha  occ. eigenvalues --   -0.58749  -0.58318  -0.57772  -0.57618  -0.55572
 Alpha  occ. eigenvalues --   -0.55256  -0.53815  -0.53135  -0.52639  -0.51860
 Alpha  occ. eigenvalues --   -0.51333  -0.51026  -0.50803  -0.50642  -0.50187
 Alpha  occ. eigenvalues --   -0.49546  -0.49075  -0.48857  -0.48672  -0.48059
 Alpha  occ. eigenvalues --   -0.47344  -0.46851  -0.46798  -0.46088  -0.45812
 Alpha  occ. eigenvalues --   -0.45749  -0.45122  -0.44628  -0.44346  -0.44106
 Alpha  occ. eigenvalues --   -0.44014  -0.43881  -0.43547  -0.43066  -0.42837
 Alpha  occ. eigenvalues --   -0.42767  -0.42669  -0.42417  -0.42137  -0.41481
 Alpha  occ. eigenvalues --   -0.41269  -0.41189  -0.40976  -0.40700  -0.40499
 Alpha  occ. eigenvalues --   -0.40333  -0.39985  -0.39793  -0.39453  -0.39105
 Alpha  occ. eigenvalues --   -0.38576  -0.38353  -0.38126  -0.37918  -0.37766
 Alpha  occ. eigenvalues --   -0.37172  -0.37023  -0.36784  -0.36727  -0.36257
 Alpha  occ. eigenvalues --   -0.35935  -0.35812  -0.35426  -0.35154  -0.34806
 Alpha  occ. eigenvalues --   -0.34331  -0.34135  -0.33870  -0.33722  -0.33479
 Alpha  occ. eigenvalues --   -0.33346  -0.33019  -0.32776  -0.32740  -0.32198
 Alpha  occ. eigenvalues --   -0.31924  -0.30624  -0.29988  -0.29861  -0.28579
 Alpha  occ. eigenvalues --   -0.28049  -0.27881  -0.27635  -0.26146  -0.25739
 Alpha  occ. eigenvalues --   -0.25009  -0.24759  -0.24686  -0.24145  -0.23772
 Alpha  occ. eigenvalues --   -0.23629  -0.22485  -0.22262  -0.21200  -0.21095
 Alpha  occ. eigenvalues --   -0.21010  -0.18628
 Alpha virt. eigenvalues --   -0.06212  -0.06020  -0.03899  -0.03740  -0.03549
 Alpha virt. eigenvalues --   -0.02386  -0.01739  -0.00879  -0.00396   0.00285
 Alpha virt. eigenvalues --    0.00555   0.00786   0.01834   0.02277   0.03338

 Mulliken charges:
               1
     1  C   -0.141313
     2  C   -0.169291
     3  C    0.082099
     4  C    0.101982
     5  C   -0.178703
     6  C   -0.201728
     7  C    0.112611
     8  C   -0.098983
     9  C   -0.053008
    10  C   -0.163223
    11  C   -0.138923
    12  C   -0.185813
    13  C    0.128070
    14  C   -0.194857
    15  C   -0.131808
    16  C   -0.134254
    17  C   -0.190527
    18  C    0.116217
    19  C    0.108799
    20  C   -0.195054
    21  C   -0.134604
    22  C   -0.134891
    23  C   -0.193543
    24  C    0.104787
    25  C   -0.096406
    26  C   -0.053879
    27  C   -0.162557
    28  C   -0.136489
    29  C   -0.186105
    30  C    0.130022
    31  C   -0.193548
    32  C   -0.131119
    33  C   -0.133538
    34  C   -0.189622
    35  C    0.118272
    36  C    0.117874
    37  C   -0.276526
    38  C   -0.196395
    39  C    0.101975
    40  C    0.154227
    41  N   -0.561317
    42  C    0.230294
    43  C   -0.160957
    44  C   -0.131536
    45  C   -0.137870
    46  C   -0.199036
    47  C    0.110544
    48  C    0.044949
    49  C    0.087666
    50  C   -0.229433
    51  C   -0.195324
    52  C    0.123901
    53  C    0.055068
    54  C   -0.188573
    55  C   -0.143981
    56  C   -0.136570
    57  C   -0.199841
    58  C    0.344675
    59  O   -0.564743
    60  C    0.206913
    61  C   -0.175726
    62  H    0.131233
    63  H    0.133542
    64  H    0.130739
    65  H    0.147134
    66  H    0.137563
    67  H    0.131723
    68  H    0.129361
    69  H    0.129021
    70  H    0.129912
    71  H    0.131258
    72  H    0.146454
    73  H    0.146460
    74  H    0.129268
    75  H    0.129494
    76  H    0.147283
    77  H    0.137398
    78  H    0.133765
    79  H    0.128349
    80  H    0.128712
    81  H    0.129618
    82  H    0.130194
    83  H    0.144704
    84  H    0.162179
    85  H    0.150696
    86  H    0.147502
    87  H    0.129210
    88  H    0.130008
    89  H    0.163054
    90  H    0.155591
    91  H    0.139248
    92  H    0.138783
    93  H    0.133962
    94  H    0.137091
    95  H    0.149494
    96  H    0.140670
 Sum of Mulliken charges =  -0.00000

 Dipole moment (field-independent basis, Debye):
    X=             -1.7035    Y=             -1.6367    Z=             -0.2250  Tot=              2.3730
 Quadrupole moment (field-independent basis, Debye-Ang):
   XX=           -294.8709   YY=           -312.8902   ZZ=           -332.0385
   XY=              2.4316   XZ=              9.7898   YZ=             -7.3283

 Normal termination of Gaussian 16 at Fri Nov  4 12:05:44 2022.
