 Gaussian 16, Revision B.01,
 Gaussian 16:  ES64L-G16RevB.01 20-Dec-2017

 -------------------------------------------------------------------
 #p b3lyp/6-31g(d) 6D 10F nosymm GFInput td=(50-50,nstate=2) SCF=XQC
 -------------------------------------------------------------------

 ------------------------------
 Gaussian input prepared by ASE
 ------------------------------
 Symbolic Z-matrix:
 Charge =  0 Multiplicity = 1

                          Input orientation:
 ---------------------------------------------------------------------
 Center     Atomic      Atomic             Coordinates (Angstroms)
 Number     Number       Type             X           Y           Z
 ---------------------------------------------------------------------
      1          6           0       -5.818838    3.208364   -5.751014
      2          6           0       -5.260644    1.932218   -5.641488
      3          6           0       -4.577515    1.564198   -4.485078
      4          6           0       -4.448104    2.472042   -3.421817
      5          6           0       -3.722529    2.080543   -2.190793
      6          7           0       -3.689826    2.951529   -1.172947
      7          6           0       -3.011852    2.559076   -0.081064
      8          6           0       -2.997006    3.485655    1.076715
      9          6           0       -4.062510    4.397056    1.174632
     10          6           0       -4.192086    5.287665    2.242184
     11          6           0       -3.237690    5.318769    3.256629
     12          6           0       -2.177538    4.433121    3.144184
     13          8           0       -1.149795    4.390335    4.050095
     14          6           0       -0.280084    3.435788    3.585958
     15          6           0        0.914282    3.103270    4.207850
     16          6           0        1.695787    2.132047    3.591353
     17          6           0        1.293354    1.500264    2.392326
     18          6           0        2.166768    0.472983    1.764804
     19          6           0        2.863694   -0.462429    2.565440
     20          6           0        3.705245   -1.428024    2.023693
     21          6           0        3.857942   -1.457957    0.635412
     22          6           0        3.159468   -0.548713   -0.196740
     23          6           0        2.322343    0.413365    0.374747
     24          6           0        3.518307   -0.871561   -1.562519
     25          6           0        3.170751   -0.330734   -2.805853
     26          6           0        3.718610   -0.879541   -3.962378
     27          6           0        4.616383   -1.958456   -3.885109
     28          6           0        4.979080   -2.515648   -2.660454
     29          6           0        4.415229   -1.969181   -1.504003
     30          7           0        4.617201   -2.320424   -0.163658
     31          6           0        5.465460   -3.358777    0.306644
     32          6           0        6.474295   -3.075361    1.236368
     33          6           0        7.298388   -4.099035    1.703056
     34          6           0        7.137232   -5.404205    1.233799
     35          6           0        6.137884   -5.683958    0.299784
     36          6           0        5.296505   -4.669779   -0.156960
     37          6           0        0.071250    1.853805    1.803577
     38          6           0       -0.734377    2.839940    2.392628
     39          6           0       -2.008626    3.498249    2.095852
     40          7           0       -2.394633    1.372891    0.029966
     41          6           0       -2.491311    0.561289   -1.035400
     42          6           0       -1.755451   -0.733169   -1.004519
     43          6           0       -0.984337   -1.009480   -2.140181
     44          6           0       -0.133965   -2.115806   -2.205893
     45          6           0       -0.051937   -2.988660   -1.129032
     46          6           0       -0.851988   -2.748707   -0.011438
     47         16           0       -0.894410   -3.801761    1.399197
     48          6           0       -2.142060   -2.803674    2.136089
     49          6           0       -2.752423   -3.073819    3.363167
     50          6           0       -3.765203   -2.230194    3.803892
     51          6           0       -4.162480   -1.137940    3.019443
     52          6           0       -3.545075   -0.869462    1.804097
     53          6           0       -2.503568   -1.692052    1.335580
     54          6           0       -1.728715   -1.637809    0.091513
     55          7           0       -3.136881    0.869759   -2.166962
     56          6           0       -5.011631    3.752706   -3.537854
     57          6           0       -5.691683    4.116987   -4.697095
     58          1           0       -6.350919    3.494075   -6.654664
     59          1           0       -5.358740    1.222843   -6.458723
     60          1           0       -4.140344    0.576926   -4.386443
     61          1           0       -4.808134    4.387218    0.388754
     62          1           0       -5.043019    5.961267    2.279172
     63          1           0       -3.299754    6.003199    4.096130
     64          1           0        1.224104    3.597667    5.122514
     65          1           0        2.653119    1.868665    4.031050
     66          1           0        2.714727   -0.445545    3.641194
     67          1           0        4.211189   -2.143383    2.663570
     68          1           0        1.804784    1.129215   -0.257446
     69          1           0        2.485137    0.510416   -2.865106
     70          1           0        3.457600   -0.466915   -4.932847
     71          1           0        5.042022   -2.366656   -4.797878
     72          1           0        5.681171   -3.341210   -2.608832
     73          1           0        6.612218   -2.054382    1.578230
     74          1           0        8.077493   -3.871405    2.425431
     75          1           0        7.785816   -6.197847    1.593691
     76          1           0        6.001352   -6.698000   -0.065920
     77          1           0        4.501159   -4.887205   -0.863011
     78          1           0       -0.273987    1.340315    0.917702
     79          1           0       -1.041035   -0.320598   -2.976110
     80          1           0        0.476613   -2.278896   -3.088353
     81          1           0        0.613999   -3.846007   -1.156151
     82          1           0       -2.445954   -3.932184    3.954043
     83          1           0       -4.253523   -2.424521    4.754825
     84          1           0       -4.962426   -0.488911    3.364187
     85          1           0       -3.866926   -0.016249    1.224791
     86          1           0       -4.903670    4.449518   -2.714262
     87          1           0       -6.122755    5.110997   -4.779957
 ---------------------------------------------------------------------

 SCF Done:  E(RB3LYP) =  -2654.01071658     A.U. after   16 cycles

 Excitation energies and oscillator strengths:

 Excited state symmetry could not be determined.
 Excited State   1:      Triplet-?Sym    2.6462 eV  468.54 nm  f=0.0000  <S**2>=2.000
     188 ->195         0.13269
     189 ->195        -0.21025
     190 ->195        -0.14202
     193 ->195         0.10752
     194 ->195         0.58809
     194 ->196        -0.11993
 This state for optimization and/or second-order correction.
 Total Energy, E(TD-HF/TD-DFT) =  -2653.91347182
 Copying the excited state density for this state as the 1-particle RhoCI density.

 Excited state symmetry could not be determined.
 Excited State   2:      Singlet-?Sym    2.8116 eV  440.97 nm  f=0.0169  <S**2>=0.000
     194 ->195         0.68952
     194 ->196        -0.13742

 Excited state symmetry could not be determined.
 Excited State   3:      Triplet-?Sym    2.8626 eV  433.11 nm  f=0.0000  <S**2>=2.000
     186 ->196         0.10279
     187 ->196        -0.11352
     190 ->195         0.11203
     190 ->196        -0.10183
     191 ->196        -0.29684
     191 ->197        -0.19892
     192 ->195        -0.13739
     192 ->196         0.35160
     192 ->197         0.10689
     194 ->195         0.16754
     194 ->196         0.23139

 Excited state symmetry could not be determined.
 Excited State   4:      Singlet-?Sym    2.9104 eV  426.00 nm  f=0.0003  <S**2>=0.000
     194 ->195         0.13649
     194 ->196         0.69082

 Alpha  occ. eigenvalues --  -88.89633 -19.20679 -14.38173 -14.33951 -14.33946
 Alpha  occ. eigenvalues --  -14.33914 -10.27903 -10.27852 -10.27738 -10.24934
 Alpha  occ. eigenvalues --  -10.24272 -10.24028 -10.22367 -10.22340 -10.22186
 Alpha  occ. eigenvalues --  -10.21980 -10.21036 -10.20992 -10.20913 -10.20782
 Alpha  occ. eigenvalues --  -10.20203 -10.20185 -10.20181 -10.20116 -10.20075
 Alpha  occ. eigenvalues --  -10.20074 -10.20070 -10.19935 -10.19900 -10.19874
 Alpha  occ. eigenvalues --  -10.19745 -10.19690 -10.19479 -10.19448 -10.19418
 Alpha  occ. eigenvalues --  -10.19369 -10.19294 -10.19266 -10.19246 -10.19240
 Alpha  occ. eigenvalues --  -10.19084 -10.19023 -10.18993 -10.18930 -10.18807
 Alpha  occ. eigenvalues --  -10.18783 -10.18778 -10.18729 -10.18693 -10.18676
 Alpha  occ. eigenvalues --  -10.18640 -10.18560 -10.18436 -10.18416 -10.18398
 Alpha  occ. eigenvalues --  -10.18261 -10.18164  -7.95772  -5.92220  -5.91873
 Alpha  occ. eigenvalues --   -5.91361  -1.10583  -1.02319  -0.98873  -0.90989
 Alpha  occ. eigenvalues --   -0.90836  -0.89105  -0.87098  -0.86103  -0.85783
 Alpha  occ. eigenvalues --   -0.85514  -0.84787  -0.84101  -0.83799  -0.80801
 Alpha  occ. eigenvalues --   -0.79233  -0.78206  -0.77667  -0.77178  -0.76441
 Alpha  occ. eigenvalues --   -0.75961  -0.75590  -0.75277  -0.75194  -0.74791
 Alpha  occ. eigenvalues --   -0.73398  -0.72676  -0.72184  -0.71335  -0.70648
 Alpha  occ. eigenvalues --   -0.70401  -0.68188  -0.67587  -0.65101  -0.64189
 Alpha  occ. eigenvalues --   -0.62827  -0.62722  -0.61806  -0.61559  -0.60935
 Alpha  occ. eigenvalues --   -0.60520  -0.59793  -0.59013  -0.58473  -0.58404
 Alpha  occ. eigenvalues --   -0.57782  -0.57484  -0.57255  -0.56320  -0.54783
 Alpha  occ. eigenvalues --   -0.53801  -0.53400  -0.52338  -0.51829  -0.51299
 Alpha  occ. eigenvalues --   -0.51277  -0.50221  -0.49875  -0.49532  -0.48377
 Alpha  occ. eigenvalues --   -0.48141  -0.47463  -0.46978  -0.46232  -0.46192
 Alpha  occ. eigenvalues --   -0.46001  -0.45830  -0.45621  -0.44954  -0.44779
 Alpha  occ. eigenvalues --   -0.44578  -0.44169  -0.43890  -0.43576  -0.43282
 Alpha  occ. eigenvalues --   -0.43200  -0.43047  -0.42748  -0.42699  -0.42403
 Alpha  occ. eigenvalues --   -0.42340  -0.42182  -0.41854  -0.41492  -0.41315
 Alpha  occ. eigenvalues --   -0.41172  -0.40587  -0.40471  -0.39034  -0.38550
 Alpha  occ. eigenvalues --   -0.37968  -0.37685  -0.37533  -0.37192  -0.37028
 Alpha  occ. eigenvalues --   -0.36655  -0.36576  -0.36259  -0.36117  -0.35915
 Alpha  occ. eigenvalues --   -0.35727  -0.35595  -0.35465  -0.34974  -0.34786
 Alpha  occ. eigenvalues --   -0.34634  -0.34439  -0.34307  -0.33732  -0.33480
 Alpha  occ. eigenvalues --   -0.33142  -0.32792  -0.32577  -0.32271  -0.31908
 Alpha  occ. eigenvalues --   -0.30550  -0.28563  -0.28292  -0.27642  -0.26487
 Alpha  occ. eigenvalues --   -0.26258  -0.26156  -0.26134  -0.25811  -0.25489
 Alpha  occ. eigenvalues --   -0.25266  -0.24823  -0.24517  -0.22340  -0.22100
 Alpha  occ. eigenvalues --   -0.22032  -0.20962  -0.20871  -0.18968
 Alpha virt. eigenvalues --   -0.07150  -0.06761  -0.03413  -0.02535  -0.01860
 Alpha virt. eigenvalues --   -0.01795  -0.01265  -0.00824  -0.00387  -0.00184
 Alpha virt. eigenvalues --    0.00419   0.01655   0.01977   0.02135   0.02792

 Mulliken charges:
               1
     1  C   -0.115985
     2  C   -0.138708
     3  C   -0.158920
     4  C    0.075915
     5  C    0.442244
     6  N   -0.524773
     7  C    0.411642
     8  C    0.031875
     9  C   -0.167431
    10  C   -0.145879
    11  C   -0.191033
    12  C    0.310423
    13  O   -0.546482
    14  C    0.315156
    15  C   -0.208359
    16  C   -0.182915
    17  C    0.075205
    18  C    0.085034
    19  C   -0.192762
    20  C   -0.178054
    21  C    0.316012
    22  C    0.068203
    23  C   -0.248912
    24  C    0.059522
    25  C   -0.199391
    26  C   -0.149763
    27  C   -0.143011
    28  C   -0.177925
    29  C    0.308980
    30  N   -0.737333
    31  C    0.266638
    32  C   -0.149078
    33  C   -0.142627
    34  C   -0.121411
    35  C   -0.142394
    36  C   -0.149714
    37  C   -0.235007
    38  C    0.080906
    39  C    0.044530
    40  N   -0.486202
    41  C    0.348805
    42  C    0.074494
    43  C   -0.173746
    44  C   -0.117607
    45  C   -0.166427
    46  C   -0.151140
    47  S    0.213276
    48  C   -0.142699
    49  C   -0.183511
    50  C   -0.112062
    51  C   -0.152415
    52  C   -0.141427
    53  C    0.112874
    54  C    0.075645
    55  N   -0.502537
    56  C   -0.158343
    57  C   -0.139049
    58  H    0.135015
    59  H    0.135598
    60  H    0.165030
    61  H    0.158292
    62  H    0.137621
    63  H    0.151161
    64  H    0.144456
    65  H    0.133597
    66  H    0.130383
    67  H    0.140472
    68  H    0.134243
    69  H    0.132413
    70  H    0.124054
    71  H    0.126604
    72  H    0.139560
    73  H    0.152945
    74  H    0.138767
    75  H    0.135444
    76  H    0.138315
    77  H    0.148611
    78  H    0.174466
    79  H    0.150311
    80  H    0.146339
    81  H    0.144442
    82  H    0.139208
    83  H    0.131387
    84  H    0.131474
    85  H    0.140588
    86  H    0.161869
    87  H    0.134982
 Sum of Mulliken charges =  -0.00000

 Dipole moment (field-independent basis, Debye):
    X=              0.7901    Y=             -1.0537    Z=             -0.4001  Tot=              1.3764
 Quadrupole moment (field-independent basis, Debye-Ang):
   XX=           -299.3055   YY=           -304.5293   ZZ=           -300.2516
   XY=            -29.8238   XZ=              9.1899   YZ=             -2.5694

 Normal termination of Gaussian 16 at Sat Nov  5 10:50:41 2022.
