 Gaussian 16, Revision B.01,
 Gaussian 16:  ES64L-G16RevB.01 20-Dec-2017

 -----------------------------
 #p b3lyp/6-31g(d) opt SCF=XQC
 -----------------------------

 ------------------------------
 Gaussian input prepared by ASE
 ------------------------------
 Symbolic Z-matrix:
 Charge =  0 Multiplicity = 1

 SCF Done:  E(RB3LYP) =  -2653.98080296     A.U. after   16 cycles
 SCF Done:  E(RB3LYP) =  -2653.99574595     A.U. after   14 cycles
 SCF Done:  E(RB3LYP) =  -2653.99559101     A.U. after   16 cycles
 SCF Done:  E(RB3LYP) =  -2654.00713643     A.U. after   13 cycles
 SCF Done:  E(RB3LYP) =  -2654.00877671     A.U. after   13 cycles
 SCF Done:  E(RB3LYP) =  -2654.00673463     A.U. after   15 cycles
 SCF Done:  E(RB3LYP) =  -2654.00861525     A.U. after   13 cycles
 SCF Done:  E(RB3LYP) =  -2654.00994149     A.U. after   11 cycles
 SCF Done:  E(RB3LYP) =  -2654.01029278     A.U. after   13 cycles
 SCF Done:  E(RB3LYP) =  -2654.01054166     A.U. after   12 cycles
 SCF Done:  E(RB3LYP) =  -2654.01064967     A.U. after   11 cycles
 SCF Done:  E(RB3LYP) =  -2654.01071121     A.U. after   12 cycles
 SCF Done:  E(RB3LYP) =  -2654.01071668     A.U. after   10 cycles
 SCF Done:  E(RB3LYP) =  -2654.01071943     A.U. after    8 cycles
 SCF Done:  E(RB3LYP) =  -2654.01071982     A.U. after    8 cycles
 SCF Done:  E(RB3LYP) =  -2654.01071990     A.U. after    7 cycles
 SCF Done:  E(RB3LYP) =  -2654.01071992     A.U. after    6 cycles
 SCF Done:  E(RB3LYP) =  -2654.01071992     A.U. after    6 cycles
 Optimization completed.
    -- Stationary point found.

                         Standard orientation:
 ---------------------------------------------------------------------
 Center     Atomic      Atomic             Coordinates (Angstroms)
 Number     Number       Type             X           Y           Z
 ---------------------------------------------------------------------
      1          6           0       -6.993031   -5.286032   -0.651502
      2          6           0       -5.804976   -5.450911    0.065063
      3          6           0       -4.935495   -4.376434    0.235026
      4          6           0       -5.248803   -3.121001   -0.310113
      5          6           0       -4.324707   -1.977233   -0.128468
      6          7           0       -4.700561   -0.780559   -0.600062
      7          6           0       -3.827156    0.225230   -0.422773
      8          6           0       -4.236822    1.569706   -0.895826
      9          6           0       -5.617306    1.817224   -0.988231
     10          6           0       -6.133100    3.056801   -1.371698
     11          6           0       -5.278628    4.105829   -1.703897
     12          6           0       -3.918342    3.850065   -1.632156
     13          8           0       -2.971440    4.780745   -1.972697
     14          6           0       -1.759310    4.156014   -1.819616
     15          6           0       -0.536911    4.752392   -2.091472
     16          6           0        0.598917    3.970618   -1.910322
     17          6           0        0.520439    2.632906   -1.459615
     18          6           0        1.762390    1.832680   -1.288912
     19          6           0        2.932372    2.427524   -0.760688
     20          6           0        4.120843    1.723216   -0.600816
     21          6           0        4.141806    0.380142   -0.984550
     22          6           0        2.982570   -0.251596   -1.498500
     23          6           0        1.802315    0.480961   -1.651238
     24          6           0        3.340040   -1.630282   -1.762672
     25          6           0        2.640880   -2.727063   -2.279794
     26          6           0        3.299324   -3.945430   -2.424444
     27          6           0        4.651980   -4.073552   -2.063982
     28          6           0        5.371173   -2.997857   -1.546843
     29          6           0        4.700916   -1.781103   -1.391281
     30          7           0        5.182042   -0.553899   -0.918864
     31          6           0        6.505492   -0.294495   -0.471546
     32          6           0        7.254836    0.736131   -1.053570
     33          6           0        8.549849    0.994060   -0.604963
     34          6           0        9.113252    0.217241    0.409322
     35          6           0        8.369252   -0.816085    0.982073
     36          6           0        7.066278   -1.067711    0.553080
     37          6           0       -0.733698    2.071973   -1.180962
     38          6           0       -1.900142    2.829237   -1.366535
     39          6           0       -3.343598    2.620937   -1.231616
     40          7           0       -2.641297    0.086949    0.189548
     41          6           0       -2.355625   -1.145495    0.639576
     42          6           0       -1.018269   -1.380062    1.251556
     43          6           0       -0.328550   -2.499330    0.769663
     44          6           0        0.988178   -2.775469    1.145671
     45          6           0        1.642244   -1.935722    2.037441
     46          6           0        0.947716   -0.844436    2.560318
     47         16           0        1.630495    0.268006    3.742222
     48          6           0        0.107387    1.144269    3.832356
     49          6           0       -0.133958    2.231268    4.675818
     50          6           0       -1.402963    2.798000    4.686205
     51          6           0       -2.414092    2.274746    3.867652
     52          6           0       -2.165001    1.199149    3.024218
     53          6           0       -0.886717    0.612280    2.974479
     54          6           0       -0.389973   -0.532734    2.204265
     55          7           0       -3.158496   -2.207833    0.501073
     56          6           0       -6.444353   -2.961676   -1.028724
     57          6           0       -7.309447   -4.039603   -1.198134
     58          1           0       -7.669988   -6.125998   -0.783824
     59          1           0       -5.556494   -6.418542    0.492445
     60          1           0       -4.010781   -4.490193    0.789570
     61          1           0       -6.292445    1.007581   -0.738587
     62          1           0       -7.208555    3.201561   -1.412143
     63          1           0       -5.642553    5.079242   -2.015483
     64          1           0       -0.481749    5.776001   -2.446731
     65          1           0        1.571809    4.392436   -2.144286
     66          1           0        2.894535    3.464857   -0.440953
     67          1           0        4.995812    2.203200   -0.175132
     68          1           0        0.918207    0.007828   -2.068938
     69          1           0        1.598150   -2.625341   -2.568719
     70          1           0        2.767401   -4.803153   -2.826397
     71          1           0        5.152029   -5.029577   -2.194014
     72          1           0        6.417962   -3.102233   -1.281353
     73          1           0        6.821641    1.320094   -1.859559
     74          1           0        9.123996    1.796319   -1.060356
     75          1           0       10.125034    0.415938    0.751183
     76          1           0        8.797591   -1.421408    1.776284
     77          1           0        6.474468   -1.852706    1.013404
     78          1           0       -0.804640    1.069521   -0.783858
     79          1           0       -0.836939   -3.148061    0.064511
     80          1           0        1.504334   -3.632144    0.723972
     81          1           0        2.670419   -2.126223    2.330386
     82          1           0        0.653709    2.617320    5.316436
     83          1           0       -1.611045    3.643031    5.336678
     84          1           0       -3.406942    2.714980    3.888755
     85          1           0       -2.961376    0.822132    2.399077
     86          1           0       -6.677091   -1.990286   -1.450314
     87          1           0       -8.231578   -3.908574   -1.757821
 ---------------------------------------------------------------------

 The electronic state is 1-A.
 Alpha  occ. eigenvalues --  -88.89633 -19.20679 -14.38173 -14.33951 -14.33946
 Alpha  occ. eigenvalues --  -14.33914 -10.27903 -10.27852 -10.27738 -10.24934
 Alpha  occ. eigenvalues --  -10.24272 -10.24028 -10.22367 -10.22340 -10.22186
 Alpha  occ. eigenvalues --  -10.21980 -10.21036 -10.20992 -10.20913 -10.20782
 Alpha  occ. eigenvalues --  -10.20203 -10.20185 -10.20181 -10.20116 -10.20075
 Alpha  occ. eigenvalues --  -10.20074 -10.20070 -10.19935 -10.19900 -10.19874
 Alpha  occ. eigenvalues --  -10.19745 -10.19690 -10.19479 -10.19448 -10.19418
 Alpha  occ. eigenvalues --  -10.19369 -10.19294 -10.19266 -10.19246 -10.19240
 Alpha  occ. eigenvalues --  -10.19084 -10.19023 -10.18993 -10.18930 -10.18807
 Alpha  occ. eigenvalues --  -10.18783 -10.18778 -10.18729 -10.18692 -10.18676
 Alpha  occ. eigenvalues --  -10.18640 -10.18560 -10.18436 -10.18416 -10.18398
 Alpha  occ. eigenvalues --  -10.18261 -10.18164  -7.95772  -5.92220  -5.91873
 Alpha  occ. eigenvalues --   -5.91361  -1.10583  -1.02319  -0.98873  -0.90989
 Alpha  occ. eigenvalues --   -0.90836  -0.89105  -0.87098  -0.86103  -0.85783
 Alpha  occ. eigenvalues --   -0.85514  -0.84787  -0.84101  -0.83799  -0.80801
 Alpha  occ. eigenvalues --   -0.79233  -0.78206  -0.77667  -0.77178  -0.76441
 Alpha  occ. eigenvalues --   -0.75961  -0.75590  -0.75277  -0.75194  -0.74791
 Alpha  occ. eigenvalues --   -0.73398  -0.72676  -0.72184  -0.71335  -0.70648
 Alpha  occ. eigenvalues --   -0.70401  -0.68188  -0.67587  -0.65101  -0.64189
 Alpha  occ. eigenvalues --   -0.62827  -0.62722  -0.61806  -0.61559  -0.60935
 Alpha  occ. eigenvalues --   -0.60520  -0.59793  -0.59013  -0.58473  -0.58404
 Alpha  occ. eigenvalues --   -0.57782  -0.57484  -0.57255  -0.56320  -0.54783
 Alpha  occ. eigenvalues --   -0.53801  -0.53400  -0.52338  -0.51829  -0.51299
 Alpha  occ. eigenvalues --   -0.51277  -0.50221  -0.49875  -0.49532  -0.48377
 Alpha  occ. eigenvalues --   -0.48141  -0.47463  -0.46978  -0.46232  -0.46192
 Alpha  occ. eigenvalues --   -0.46001  -0.45830  -0.45621  -0.44954  -0.44779
 Alpha  occ. eigenvalues --   -0.44578  -0.44169  -0.43890  -0.43576  -0.43282
 Alpha  occ. eigenvalues --   -0.43200  -0.43047  -0.42748  -0.42699  -0.42403
 Alpha  occ. eigenvalues --   -0.42340  -0.42182  -0.41854  -0.41492  -0.41315
 Alpha  occ. eigenvalues --   -0.41172  -0.40587  -0.40471  -0.39034  -0.38549
 Alpha  occ. eigenvalues --   -0.37968  -0.37685  -0.37533  -0.37192  -0.37028
 Alpha  occ. eigenvalues --   -0.36655  -0.36576  -0.36259  -0.36117  -0.35915
 Alpha  occ. eigenvalues --   -0.35727  -0.35595  -0.35465  -0.34974  -0.34786
 Alpha  occ. eigenvalues --   -0.34634  -0.34439  -0.34307  -0.33732  -0.33480
 Alpha  occ. eigenvalues --   -0.33142  -0.32792  -0.32577  -0.32271  -0.31908
 Alpha  occ. eigenvalues --   -0.30550  -0.28563  -0.28292  -0.27642  -0.26487
 Alpha  occ. eigenvalues --   -0.26258  -0.26156  -0.26134  -0.25811  -0.25489
 Alpha  occ. eigenvalues --   -0.25266  -0.24823  -0.24517  -0.22340  -0.22100
 Alpha  occ. eigenvalues --   -0.22032  -0.20962  -0.20871  -0.18968
 Alpha virt. eigenvalues --   -0.07150  -0.06761  -0.03413  -0.02535  -0.01860
 Alpha virt. eigenvalues --   -0.01795  -0.01265  -0.00824  -0.00387  -0.00184
 Alpha virt. eigenvalues --    0.00419   0.01655   0.01977   0.02135   0.02792

 Mulliken charges:
               1
     1  C   -0.115991
     2  C   -0.138693
     3  C   -0.158930
     4  C    0.075925
     5  C    0.442207
     6  N   -0.524761
     7  C    0.411674
     8  C    0.031864
     9  C   -0.167413
    10  C   -0.145899
    11  C   -0.191020
    12  C    0.310410
    13  O   -0.546484
    14  C    0.315146
    15  C   -0.208355
    16  C   -0.182900
    17  C    0.075176
    18  C    0.085007
    19  C   -0.192735
    20  C   -0.178045
    21  C    0.316005
    22  C    0.068181
    23  C   -0.248880
    24  C    0.059527
    25  C   -0.199383
    26  C   -0.149761
    27  C   -0.143014
    28  C   -0.177926
    29  C    0.308973
    30  N   -0.737335
    31  C    0.266667
    32  C   -0.149098
    33  C   -0.142623
    34  C   -0.121409
    35  C   -0.142391
    36  C   -0.149729
    37  C   -0.235011
    38  C    0.080917
    39  C    0.044529
    40  N   -0.486204
    41  C    0.348772
    42  C    0.074491
    43  C   -0.173755
    44  C   -0.117596
    45  C   -0.166434
    46  C   -0.151149
    47  S    0.213284
    48  C   -0.142694
    49  C   -0.183510
    50  C   -0.112064
    51  C   -0.152416
    52  C   -0.141453
    53  C    0.112904
    54  C    0.075653
    55  N   -0.502507
    56  C   -0.158345
    57  C   -0.139049
    58  H    0.135016
    59  H    0.135597
    60  H    0.165028
    61  H    0.158292
    62  H    0.137623
    63  H    0.151161
    64  H    0.144456
    65  H    0.133596
    66  H    0.130383
    67  H    0.140468
    68  H    0.134240
    69  H    0.132412
    70  H    0.124054
    71  H    0.126604
    72  H    0.139560
    73  H    0.152947
    74  H    0.138768
    75  H    0.135443
    76  H    0.138315
    77  H    0.148608
    78  H    0.174472
    79  H    0.150311
    80  H    0.146335
    81  H    0.144445
    82  H    0.139208
    83  H    0.131387
    84  H    0.131472
    85  H    0.140597
    86  H    0.161869
    87  H    0.134983
 Sum of Mulliken charges =  -0.00000

 Dipole moment (field-independent basis, Debye):
    X=              1.2083    Y=             -0.5912    Z=              0.2913  Tot=              1.3764
 Quadrupole moment (field-independent basis, Debye-Ang):
   XX=           -271.5365   YY=           -301.3203   ZZ=           -330.9034
   XY=              4.3065   XZ=              9.1492   YZ=              3.1896

 Normal termination of Gaussian 16 at Sat Nov  5 01:49:47 2022.
