 Gaussian 16, Revision B.01,
 Gaussian 16:  ES64L-G16RevB.01 20-Dec-2017

 -------------------------------------------------------------------
 #p b3lyp/6-31g(d) 6D 10F nosymm GFInput td=(50-50,nstate=2) SCF=XQC
 -------------------------------------------------------------------

 ------------------------------
 Gaussian input prepared by ASE
 ------------------------------
 Symbolic Z-matrix:
 Charge =  0 Multiplicity = 1

                          Input orientation:
 ---------------------------------------------------------------------
 Center     Atomic      Atomic             Coordinates (Angstroms)
 Number     Number       Type             X           Y           Z
 ---------------------------------------------------------------------
      1          6           0       -3.929945   -3.661042   -1.070231
      2          6           0       -3.758236   -3.656551    0.314670
      3          6           0       -3.105175   -2.589354    0.933774
      4          6           0       -2.613805   -1.518160    0.178565
      5          6           0       -1.843447   -0.398870    0.864424
      6          6           0       -0.299519   -0.570936    0.765681
      7          6           0        0.128789    0.688472    0.029084
      8          6           0        1.482025    1.024666   -0.435678
      9          6           0        1.636796    2.077980   -1.366284
     10          6           0        2.886897    2.454459   -1.845101
     11          6           0        4.042056    1.792264   -1.422301
     12          6           0        3.911805    0.749994   -0.506263
     13          6           0        2.646078    0.361667   -0.010378
     14          6           0        2.828715   -0.775809    0.984678
     15          6           0        4.326049   -1.000013    0.984824
     16          6           0        5.081695   -1.922243    1.700046
     17          6           0        6.470667   -1.936413    1.530867
     18          6           0        7.089252   -1.036334    0.655678
     19          6           0        6.333203   -0.109021   -0.063887
     20          6           0        4.946611   -0.094849    0.104049
     21          7           0       -0.869379    1.477442   -0.211125
     22          7           0       -2.035336    0.925053    0.235343
     23          6           0       -3.175955    1.722075    0.378393
     24          6           0       -4.348787    1.191722    0.945574
     25          6           0       -5.483304    1.991542    1.081282
     26          6           0       -5.479979    3.319898    0.658029
     27          6           0       -4.314096    3.843285    0.091539
     28          6           0       -3.170798    3.063885   -0.049086
     29          6           0       -2.791955   -1.528682   -1.210148
     30          6           0       -3.446742   -2.593048   -1.829743
     31          1           0       -4.442208   -4.488045   -1.554395
     32          1           0       -4.137092   -4.479511    0.915013
     33          1           0       -2.978500   -2.587466    2.014800
     34          1           0       -2.158054   -0.346000    1.914813
     35          1           0        0.162716   -0.645851    1.754754
     36          1           0       -0.036364   -1.478545    0.213273
     37          1           0        0.745740    2.591374   -1.710018
     38          1           0        2.960503    3.268241   -2.561624
     39          1           0        5.017876    2.084328   -1.800909
     40          1           0        2.286905   -1.684491    0.691906
     41          1           0        2.466066   -0.507719    1.986594
     42          1           0        4.606191   -2.623886    2.381727
     43          1           0        7.073736   -2.651948    2.083334
     44          1           0        8.169084   -1.059490    0.535037
     45          1           0        6.820417    0.587023   -0.741965
     46          1           0       -4.386529    0.155877    1.262373
     47          1           0       -6.379240    1.561219    1.521674
     48          1           0       -6.367463    3.936662    0.765557
     49          1           0       -4.289363    4.877547   -0.242851
     50          1           0       -2.266456    3.476029   -0.478760
     51          1           0       -2.428625   -0.692283   -1.800774
     52          1           0       -3.583525   -2.586141   -2.907877
 ---------------------------------------------------------------------

 SCF Done:  E(RB3LYP) =  -1189.72855928     A.U. after   15 cycles

 Excitation energies and oscillator strengths:

 Excited state symmetry could not be determined.
 Excited State   1:      Triplet-?Sym    2.1937 eV  565.18 nm  f=0.0000  <S**2>=2.000
      99 ->103         0.10756
     102 ->103         0.63764
     102 ->104         0.14999
     102 ->107         0.10300
 This state for optimization and/or second-order correction.
 Total Energy, E(TD-HF/TD-DFT) =  -1189.64794180
 Copying the excited state density for this state as the 1-particle RhoCI density.

 Excited state symmetry could not be determined.
 Excited State   2:      Triplet-?Sym    3.0921 eV  400.97 nm  f=0.0000  <S**2>=2.000
      98 ->107         0.12787
     101 ->103         0.47459
     101 ->104        -0.37201
     102 ->104         0.22609

 Excited state symmetry could not be determined.
 Excited State   3:      Singlet-?Sym    3.3344 eV  371.83 nm  f=0.4903  <S**2>=0.000
     102 ->103         0.70003

 Excited state symmetry could not be determined.
 Excited State   4:      Singlet-?Sym    3.7732 eV  328.59 nm  f=0.1029  <S**2>=0.000
     101 ->103        -0.19433
     102 ->104         0.66257

 Alpha  occ. eigenvalues --  -14.38664 -14.36304 -10.24277 -10.22586 -10.22419
 Alpha  occ. eigenvalues --  -10.20724 -10.20287 -10.20242 -10.20084 -10.19825
 Alpha  occ. eigenvalues --  -10.19625 -10.19568 -10.19457 -10.19385 -10.19341
 Alpha  occ. eigenvalues --  -10.19259 -10.19215 -10.19127 -10.19025 -10.18966
 Alpha  occ. eigenvalues --  -10.18932 -10.18880 -10.18836 -10.18732 -10.18429
 Alpha  occ. eigenvalues --  -10.18047 -10.17919 -10.17786 -10.17313 -10.17217
 Alpha  occ. eigenvalues --   -1.03176  -0.88746  -0.87196  -0.86087  -0.84241
 Alpha  occ. eigenvalues --   -0.82111  -0.80155  -0.79670  -0.76697  -0.74866
 Alpha  occ. eigenvalues --   -0.74694  -0.73857  -0.73321  -0.71662  -0.71052
 Alpha  occ. eigenvalues --   -0.69056  -0.65016  -0.63723  -0.61652  -0.61211
 Alpha  occ. eigenvalues --   -0.60217  -0.58510  -0.58379  -0.57775  -0.56907
 Alpha  occ. eigenvalues --   -0.54428  -0.53262  -0.52047  -0.50875  -0.48816
 Alpha  occ. eigenvalues --   -0.48745  -0.47930  -0.47635  -0.45786  -0.45307
 Alpha  occ. eigenvalues --   -0.45158  -0.44624  -0.44364  -0.44179  -0.42990
 Alpha  occ. eigenvalues --   -0.42499  -0.42416  -0.41788  -0.41327  -0.41010
 Alpha  occ. eigenvalues --   -0.40745  -0.40489  -0.39490  -0.39275  -0.39064
 Alpha  occ. eigenvalues --   -0.36741  -0.36259  -0.35680  -0.35367  -0.35151
 Alpha  occ. eigenvalues --   -0.34789  -0.34601  -0.34506  -0.34191  -0.33466
 Alpha  occ. eigenvalues --   -0.33293  -0.32959  -0.29016  -0.28543  -0.26967
 Alpha  occ. eigenvalues --   -0.25498  -0.24954  -0.24651  -0.24107  -0.23832
 Alpha  occ. eigenvalues --   -0.21443  -0.17912
 Alpha virt. eigenvalues --   -0.04343  -0.02131  -0.00855  -0.00748  -0.00157
 Alpha virt. eigenvalues --    0.01195   0.02327   0.03075   0.05850   0.08521
 Alpha virt. eigenvalues --    0.09163   0.09855   0.10109   0.10830   0.10982

 Mulliken charges:
               1
     1  C   -0.127758
     2  C   -0.129792
     3  C   -0.186763
     4  C    0.163669
     5  C   -0.045551
     6  C   -0.390938
     7  C    0.270475
     8  C    0.074242
     9  C   -0.178317
    10  C   -0.136212
    11  C   -0.190764
    12  C    0.079010
    13  C    0.019307
    14  C   -0.430068
    15  C    0.108439
    16  C   -0.202902
    17  C   -0.130881
    18  C   -0.136507
    19  C   -0.195334
    20  C    0.093464
    21  N   -0.310169
    22  N   -0.395874
    23  C    0.346149
    24  C   -0.182965
    25  C   -0.142152
    26  C   -0.131561
    27  C   -0.139853
    28  C   -0.168522
    29  C   -0.174284
    30  C   -0.128330
    31  H    0.132602
    32  H    0.132563
    33  H    0.125102
    34  H    0.152830
    35  H    0.169943
    36  H    0.179062
    37  H    0.152548
    38  H    0.130225
    39  H    0.129759
    40  H    0.172284
    41  H    0.172331
    42  H    0.123871
    43  H    0.127469
    44  H    0.128390
    45  H    0.129856
    46  H    0.133848
    47  H    0.124563
    48  H    0.120241
    49  H    0.125384
    50  H    0.152140
    51  H    0.150194
    52  H    0.135535
 Sum of Mulliken charges =  -0.00000

 Dipole moment (field-independent basis, Debye):
    X=              0.5406    Y=             -2.4998    Z=              0.8099  Tot=              2.6827
 Quadrupole moment (field-independent basis, Debye-Ang):
   XX=           -164.5476   YY=           -165.3238   ZZ=           -166.4552
   XY=              6.3203   XZ=             -1.8539   YZ=             -7.8450

 Normal termination of Gaussian 16 at Sat Nov  5 10:22:06 2022.
