 Gaussian 16, Revision B.01,
 Gaussian 16:  ES64L-G16RevB.01 20-Dec-2017

 -----------------------------
 #p b3lyp/6-31g(d) opt SCF=XQC
 -----------------------------

 ------------------------------
 Gaussian input prepared by ASE
 ------------------------------
 Symbolic Z-matrix:
 Charge =  0 Multiplicity = 1

 SCF Done:  E(RB3LYP) =  -1189.72116907     A.U. after   16 cycles
 SCF Done:  E(RB3LYP) =  -1189.72779346     A.U. after   12 cycles
 SCF Done:  E(RB3LYP) =  -1189.72819084     A.U. after   11 cycles
 SCF Done:  E(RB3LYP) =  -1189.72831334     A.U. after   11 cycles
 SCF Done:  E(RB3LYP) =  -1189.72834914     A.U. after   11 cycles
 SCF Done:  E(RB3LYP) =  -1189.72838870     A.U. after   11 cycles
 SCF Done:  E(RB3LYP) =  -1189.72841368     A.U. after   11 cycles
 SCF Done:  E(RB3LYP) =  -1189.72842177     A.U. after   10 cycles
 SCF Done:  E(RB3LYP) =  -1189.72842899     A.U. after   10 cycles
 SCF Done:  E(RB3LYP) =  -1189.72844359     A.U. after   10 cycles
 SCF Done:  E(RB3LYP) =  -1189.72855419     A.U. after   10 cycles
 SCF Done:  E(RB3LYP) =  -1189.72854906     A.U. after   11 cycles
 SCF Done:  E(RB3LYP) =  -1189.72855534     A.U. after   11 cycles
 SCF Done:  E(RB3LYP) =  -1189.72854967     A.U. after   11 cycles
 SCF Done:  E(RB3LYP) =  -1189.72855564     A.U. after   11 cycles
 SCF Done:  E(RB3LYP) =  -1189.72855597     A.U. after    8 cycles
 SCF Done:  E(RB3LYP) =  -1189.72855625     A.U. after    8 cycles
 SCF Done:  E(RB3LYP) =  -1189.72855653     A.U. after    8 cycles
 SCF Done:  E(RB3LYP) =  -1189.72855675     A.U. after    8 cycles
 SCF Done:  E(RB3LYP) =  -1189.72855679     A.U. after    7 cycles
 Optimization completed.
    -- Stationary point found.

                         Standard orientation:
 ---------------------------------------------------------------------
 Center     Atomic      Atomic             Coordinates (Angstroms)
 Number     Number       Type             X           Y           Z
 ---------------------------------------------------------------------
      1          6           0       -3.662543    3.956212    1.521875
      2          6           0       -3.469686    4.079898    0.145298
      3          6           0       -2.903918    3.028305   -0.577714
      4          6           0       -2.521612    1.844816    0.064499
      5          6           0       -1.842569    0.738007   -0.729564
      6          6           0       -0.291252    0.759537   -0.602974
      7          6           0        0.011866   -0.602794    0.000603
      8          6           0        1.322341   -1.105534    0.436706
      9          6           0        1.368184   -2.259260    1.252958
     10          6           0        2.572146   -2.794098    1.698128
     11          6           0        3.788090   -2.198091    1.354744
     12          6           0        3.765455   -1.059017    0.551990
     13          6           0        2.547253   -0.509269    0.090981
     14          6           0        2.845941    0.704198   -0.778287
     15          6           0        4.357062    0.791808   -0.744896
     16          6           0        5.202859    1.711589   -1.354553
     17          6           0        6.584724    1.583332   -1.175486
     18          6           0        7.106966    0.545478   -0.395188
     19          6           0        6.260247   -0.379752    0.218254
     20          6           0        4.880733   -0.251840    0.040439
     21          7           0       -1.056027   -1.319552    0.150187
     22          7           0       -2.161117   -0.621379   -0.243832
     23          6           0       -3.365440   -1.293589   -0.477194
     24          6           0       -4.477392   -0.604112   -0.993613
     25          6           0       -5.676003   -1.280405   -1.219925
     26          6           0       -5.797218   -2.640379   -0.938037
     27          6           0       -4.691559   -3.322259   -0.421622
     28          6           0       -3.486091   -2.667493   -0.192499
     29          6           0       -2.720410    1.727288    1.445454
     30          6           0       -3.288156    2.776180    2.168648
     31          1           0       -4.107205    4.771223    2.086495
     32          1           0       -3.764423    4.991339   -0.368133
     33          1           0       -2.760563    3.127115   -1.652122
     34          1           0       -2.143712    0.822776   -1.781808
     35          1           0        0.191629    0.894752   -1.575642
     36          1           0        0.042399    1.577669    0.043163
     37          1           0        0.429728   -2.723399    1.535062
     38          1           0        2.561822   -3.681075    2.326006
     39          1           0        4.727977   -2.614287    1.707251
     40          1           0        2.382164    1.622608   -0.395651
     41          1           0        2.477099    0.575072   -1.805177
     42          1           0        4.802420    2.519973   -1.962223
     43          1           0        7.257631    2.295205   -1.645949
     44          1           0        8.182523    0.458919   -0.265528
     45          1           0        6.672902   -1.183268    0.823005
     46          1           0       -4.418088    0.458172   -1.200486
     47          1           0       -6.523085   -0.728025   -1.618864
     48          1           0       -6.734029   -3.160454   -1.115500
     49          1           0       -4.763961   -4.383631   -0.197177
     50          1           0       -2.628853   -3.201508    0.197741
     51          1           0       -2.442171    0.804936    1.947711
     52          1           0       -3.442312    2.669867    3.239191
 ---------------------------------------------------------------------

 The electronic state is 1-A.
 Alpha  occ. eigenvalues --  -14.38664 -14.36304 -10.24277 -10.22586 -10.22419
 Alpha  occ. eigenvalues --  -10.20724 -10.20287 -10.20242 -10.20084 -10.19825
 Alpha  occ. eigenvalues --  -10.19625 -10.19567 -10.19457 -10.19385 -10.19341
 Alpha  occ. eigenvalues --  -10.19259 -10.19215 -10.19127 -10.19025 -10.18966
 Alpha  occ. eigenvalues --  -10.18932 -10.18880 -10.18836 -10.18732 -10.18429
 Alpha  occ. eigenvalues --  -10.18047 -10.17919 -10.17786 -10.17313 -10.17217
 Alpha  occ. eigenvalues --   -1.03176  -0.88746  -0.87195  -0.86087  -0.84241
 Alpha  occ. eigenvalues --   -0.82111  -0.80155  -0.79670  -0.76696  -0.74866
 Alpha  occ. eigenvalues --   -0.74694  -0.73857  -0.73321  -0.71662  -0.71052
 Alpha  occ. eigenvalues --   -0.69056  -0.65016  -0.63723  -0.61652  -0.61211
 Alpha  occ. eigenvalues --   -0.60217  -0.58510  -0.58379  -0.57775  -0.56907
 Alpha  occ. eigenvalues --   -0.54428  -0.53262  -0.52047  -0.50875  -0.48816
 Alpha  occ. eigenvalues --   -0.48745  -0.47930  -0.47635  -0.45786  -0.45307
 Alpha  occ. eigenvalues --   -0.45158  -0.44624  -0.44365  -0.44179  -0.42990
 Alpha  occ. eigenvalues --   -0.42499  -0.42416  -0.41788  -0.41327  -0.41010
 Alpha  occ. eigenvalues --   -0.40745  -0.40489  -0.39490  -0.39275  -0.39064
 Alpha  occ. eigenvalues --   -0.36741  -0.36259  -0.35680  -0.35367  -0.35151
 Alpha  occ. eigenvalues --   -0.34789  -0.34601  -0.34506  -0.34191  -0.33466
 Alpha  occ. eigenvalues --   -0.33293  -0.32959  -0.29016  -0.28543  -0.26967
 Alpha  occ. eigenvalues --   -0.25498  -0.24954  -0.24651  -0.24107  -0.23832
 Alpha  occ. eigenvalues --   -0.21443  -0.17912
 Alpha virt. eigenvalues --   -0.04343  -0.02131  -0.00855  -0.00748  -0.00157
 Alpha virt. eigenvalues --    0.01195   0.02327   0.03075   0.05850   0.08521
 Alpha virt. eigenvalues --    0.09163   0.09855   0.10109   0.10830   0.10982

 Mulliken charges:
               1
     1  C   -0.127763
     2  C   -0.129789
     3  C   -0.186756
     4  C    0.163658
     5  C   -0.045547
     6  C   -0.390934
     7  C    0.270475
     8  C    0.074258
     9  C   -0.178313
    10  C   -0.136213
    11  C   -0.190766
    12  C    0.079021
    13  C    0.019286
    14  C   -0.430069
    15  C    0.108439
    16  C   -0.202900
    17  C   -0.130882
    18  C   -0.136506
    19  C   -0.195335
    20  C    0.093458
    21  N   -0.310175
    22  N   -0.395880
    23  C    0.346158
    24  C   -0.182970
    25  C   -0.142148
    26  C   -0.131562
    27  C   -0.139851
    28  C   -0.168521
    29  C   -0.174284
    30  C   -0.128327
    31  H    0.132602
    32  H    0.132563
    33  H    0.125101
    34  H    0.152831
    35  H    0.169944
    36  H    0.179061
    37  H    0.152546
    38  H    0.130225
    39  H    0.129759
    40  H    0.172285
    41  H    0.172333
    42  H    0.123871
    43  H    0.127469
    44  H    0.128390
    45  H    0.129856
    46  H    0.133848
    47  H    0.124562
    48  H    0.120240
    49  H    0.125384
    50  H    0.152139
    51  H    0.150195
    52  H    0.135535
 Sum of Mulliken charges =  -0.00000

 Dipole moment (field-independent basis, Debye):
    X=              0.7730    Y=              2.5116    Z=             -0.5401  Tot=              2.6828
 Quadrupole moment (field-independent basis, Debye-Ang):
   XX=           -165.7931   YY=           -162.1189   ZZ=           -168.1690
   XY=             -6.3205   XZ=              0.6263   YZ=             -7.4706

 1\1\GINC-NODE13\FOpt\RB3LYP\6-31G(d)\C28H22N2\WYKGROUP\05-Nov-2022\0\\
 #p b3lyp/6-31g(d) opt SCF=XQC\\Gaussian input prepared by ASE\\0,1\C,-
 3.9299451438,-3.6610420972,-1.0702314896\C,-3.7582355111,-3.656551079,
 0.3146699343\C,-3.1051750343,-2.5893542286,0.933773736\C,-2.6138049125
 ,-1.5181599603,0.1785651932\C,-1.8434467861,-0.3988701064,0.864423895\
 C,-0.2995186045,-0.5709363838,0.7656805435\C,0.1287892903,0.6884721185
 ,0.0290837412\C,1.4820249092,1.0246655828,-0.4356777421\C,1.6367958839
 ,2.0779796457,-1.3662841135\C,2.8868966449,2.4544589699,-1.8451014256\

 Normal termination of Gaussian 16 at Sat Nov  5 00:49:27 2022.
