 Gaussian 16, Revision B.01,
 Gaussian 16:  ES64L-G16RevB.01 20-Dec-2017

 -------------------------------------------------------------------
 #p b3lyp/6-31g(d) 6D 10F nosymm GFInput td=(50-50,nstate=2) SCF=XQC
 -------------------------------------------------------------------

 ------------------------------
 Gaussian input prepared by ASE
 ------------------------------
 Symbolic Z-matrix:
 Charge =  0 Multiplicity = 1

                          Input orientation:
 ---------------------------------------------------------------------
 Center     Atomic      Atomic             Coordinates (Angstroms)
 Number     Number       Type             X           Y           Z
 ---------------------------------------------------------------------
      1          6           0       -5.976481    2.651327    4.447958
      2          6           0       -5.908411    3.307618    3.047021
      3          6           0       -6.668480    4.657104    3.030315
      4          6           0       -6.522164    2.379994    2.007848
      5          6           0       -7.831616    1.929513    1.936127
      6          6           0       -8.244960    1.115094    0.864407
      7          6           0       -9.641066    0.621535    0.773974
      8          6           0       -9.926996   -0.661939    0.278078
      9          6           0      -11.237522   -1.126081    0.190929
     10          6           0      -12.316572   -0.326917    0.597236
     11          6           0      -13.724947   -0.825432    0.502264
     12          6           0      -14.229300   -1.708855    1.482338
     13          6           0      -13.432646   -2.139198    2.593221
     14          6           0      -13.926323   -3.001487    3.535519
     15          6           0      -15.256526   -3.493962    3.430792
     16          6           0      -16.057931   -3.101820    2.392090
     17          6           0      -15.588310   -2.195680    1.386031
     18          6           0      -16.413916   -1.777861    0.319599
     19          6           0      -17.823348   -2.277370    0.223634
     20          6           0      -18.858620   -1.641106    0.925083
     21          6           0      -20.171783   -2.105839    0.835624
     22          6           0      -20.470642   -3.215526    0.043031
     23          6           0      -19.449084   -3.857328   -0.659433
     24          6           0      -18.136325   -3.391495   -0.569721
     25          6           0      -15.912119   -0.889811   -0.656631
     26          6           0      -16.720687   -0.436568   -1.749608
     27          6           0      -16.224698    0.414978   -2.700282
     28          6           0      -14.879393    0.870106   -2.623325
     29          6           0      -14.072122    0.468741   -1.592595
     30          6           0      -14.549218   -0.412525   -0.568055
     31          6           0      -12.034716    0.954429    1.094002
     32          6           0      -10.724383    1.419329    1.180019
     33          6           0       -7.301300    0.798744   -0.129287
     34          6           0       -5.982641    1.243410   -0.056338
     35          6           0       -5.572741    2.019462    1.032840
     36          6           0       -4.287527    2.636681    1.390203
     37          6           0       -4.467374    3.427593    2.530140
     38          6           0       -3.412918    4.223302    3.079565
     39          6           0       -3.536574    5.040932    4.238197
     40          6           0       -2.483540    5.802187    4.700932
     41          6           0       -1.237496    5.794045    4.035697
     42          6           0       -1.065853    5.012846    2.914411
     43          6           0       -2.133273    4.221992    2.424193
     44          6           0       -1.999567    3.377699    1.301338
     45          8           0       -0.811412    3.253048    0.626133
     46          6           0       -1.023426    2.299481   -0.335982
     47          6           0       -0.052690    1.868573   -1.224376
     48          6           0       -0.397037    0.855438   -2.131178
     49          6           0        0.594465    0.339931   -3.107541
     50          6           0        0.194346   -0.018996   -4.420895
     51          6           0        1.107494   -0.497786   -5.332515
     52          6           0        2.475068   -0.654717   -5.003017
     53          6           0        2.908868   -0.297443   -3.671668
     54          6           0        1.930845    0.192122   -2.765604
     55          6           0        4.287930   -0.456167   -3.319477
     56          6           0        5.215537   -0.941829   -4.238936
     57          6           0        4.767956   -1.278021   -5.525767
     58          8           0        5.576467   -1.766381   -6.521864
     59          6           0        4.754322   -1.963106   -7.606587
     60          6           0        5.175231   -2.451665   -8.834467
     61          6           0        4.200672   -2.586907   -9.823177
     62          6           0        2.863502   -2.240490   -9.570087
     63          6           0        2.463462   -1.751411   -8.328142
     64          6           0        3.421767   -1.604030   -7.312890
     65          6           0        3.443647   -1.150847   -5.929624
     66          6           0        6.544370   -1.005701   -3.639317
     67          6           0        7.775428   -1.422430   -4.150932
     68          6           0        8.895659   -1.370827   -3.323303
     69          6           0        8.813147   -0.912496   -1.994304
     70          6           0       10.020246   -0.866484   -1.131978
     71          6           0       11.002559   -1.869150   -1.200266
     72          6           0       12.135309   -1.825392   -0.390612
     73          6           0       12.332369   -0.778261    0.521959
     74          6           0       13.549472   -0.731421    1.392373
     75          6           0       13.616622   -1.529192    2.556167
     76          6           0       12.536102   -2.384979    2.948613
     77          6           0       12.611540   -3.161358    4.074096
     78          6           0       13.777955   -3.134382    4.887526
     79          6           0       14.831085   -2.323886    4.557436
     80          6           0       14.795433   -1.487923    3.393945
     81          6           0       15.872954   -0.640708    3.055104
     82          6           0       17.090680   -0.592949    3.926849
     83          6           0       17.127103    0.229855    5.062798
     84          6           0       18.261284    0.274881    5.875187
     85          6           0       19.377937   -0.503264    5.564528
     86          6           0       19.353777   -1.326112    4.437019
     87          6           0       18.219287   -1.370030    3.625005
     88          6           0       15.803477    0.161622    1.895332
     89          6           0       16.871853    1.040878    1.522102
     90          6           0       16.803867    1.807339    0.389466
     91          6           0       15.658783    1.743617   -0.451750
     92          6           0       14.610353    0.923407   -0.130478
     93          6           0       14.630461    0.110968    1.049965
     94          6           0       11.353403    0.223961    0.593419
     95          6           0       10.221195    0.181101   -0.217087
     96          6           0        7.560292   -0.497285   -1.498984
     97          6           0        6.440122   -0.544359   -2.315440
     98          6           0        4.997696   -0.157937   -1.985271
     99          6           0        4.475389   -1.043451   -0.827519
    100          6           0        4.936801    1.341155   -1.604348
    101          6           0       -1.705259    0.321886   -2.085213
    102          6           0       -2.665756    0.777105   -1.188622
    103          6           0       -2.346891    1.812041   -0.294335
    104          6           0       -2.997334    2.557776    0.777835
    105          1           0       -5.513026    3.277408    5.216022
    106          1           0       -5.464854    1.683592    4.446950
    107          1           0       -7.020183    2.483815    4.737426
    108          1           0       -7.718887    4.502945    3.301902
    109          1           0       -6.244362    5.376769    3.735842
    110          1           0       -6.638424    5.105241    2.032016
    111          1           0       -8.544509    2.189034    2.714624
    112          1           0       -9.110524   -1.313652   -0.020359
    113          1           0      -11.430316   -2.125363   -0.190292
    114          1           0      -12.418433   -1.765465    2.679196
    115          1           0      -13.301026   -3.311853    4.368441
    116          1           0      -15.636796   -4.182327    4.180863
    117          1           0      -17.072444   -3.477323    2.317466
    118          1           0      -18.628146   -0.776843    1.542366
    119          1           0      -20.961163   -1.599727    1.385341
    120          1           0      -21.492888   -3.577770   -0.026740
    121          1           0      -19.672789   -4.722480   -1.278241
    122          1           0      -17.342449   -3.892741   -1.117092
    123          1           0      -17.745981   -0.783665   -1.813603
    124          1           0      -16.858721    0.743884   -3.519362
    125          1           0      -14.492348    1.538727   -3.387666
    126          1           0      -13.046690    0.817187   -1.540320
    127          1           0      -12.854768    1.594922    1.407622
    128          1           0      -10.540708    2.426563    1.543568
    129          1           0       -7.615367    0.219769   -0.993052
    130          1           0       -5.308140    1.020815   -0.871972
    131          1           0       -4.475733    5.070056    4.775134
    132          1           0       -2.615237    6.414895    5.588692
    133          1           0       -0.417442    6.399632    4.411018
    134          1           0       -0.114440    4.986020    2.392767
    135          1           0        0.932976    2.321319   -1.222402
    136          1           0       -0.841902    0.113245   -4.717673
    137          1           0        0.771937   -0.751618   -6.331449
    138          1           0        2.230663    0.436267   -1.754862
    139          1           0        6.214307   -2.712548   -9.005972
    140          1           0        4.481988   -2.965546  -10.801546
    141          1           0        2.125269   -2.356049  -10.358559
    142          1           0        1.423051   -1.493122   -8.164470
    143          1           0        7.860709   -1.770833   -5.175097
    144          1           0        9.862358   -1.666417   -3.720772
    145          1           0       10.865464   -2.706545   -1.878740
    146          1           0       12.876295   -2.617473   -0.458641
    147          1           0       11.643843   -2.408329    2.332980
    148          1           0       11.777526   -3.801482    4.349310
    149          1           0       13.830194   -3.758924    5.775383
    150          1           0       15.717439   -2.304309    5.181759
    151          1           0       16.259056    0.836799    5.306154
    152          1           0       18.271840    0.919022    6.750652
    153          1           0       20.261111   -0.468659    6.196897
    154          1           0       20.218457   -1.935944    4.188229
    155          1           0       18.202362   -2.011662    2.748007
    156          1           0       17.747825    1.090494    2.159283
    157          1           0       17.627924    2.466149    0.128748
    158          1           0       15.618254    2.349097   -1.353317
    159          1           0       13.740645    0.877407   -0.776354
    160          1           0       11.487804    1.049572    1.287252
    161          1           0        9.493799    0.986002   -0.157580
    162          1           0        7.479120   -0.167148   -0.466434
    163          1           0        4.538239   -2.103804   -1.091823
    164          1           0        3.434680   -0.818182   -0.577151
    165          1           0        5.078909   -0.881516    0.072688
    166          1           0        5.543252    1.528232   -0.710970
    167          1           0        5.325747    1.964375   -2.415873
    168          1           0        3.914935    1.665957   -1.387766
    169          1           0       -1.959835   -0.497357   -2.750744
    170          1           0       -3.633117    0.293195   -1.167319
 ---------------------------------------------------------------------

 SCF Done:  E(RB3LYP) =  -4077.22551737     A.U. after   15 cycles

 Excitation energies and oscillator strengths:

 Excited state symmetry could not be determined.
 Excited State   1:      Triplet-?Sym    1.7304 eV  716.50 nm  f=0.0000  <S**2>=2.000
     347 -> 349        0.62078
     347 -> 350       -0.28986
     347 <- 349        0.12197
 This state for optimization and/or second-order correction.
 Total Energy, E(TD-HF/TD-DFT) =  -4077.16192554
 Copying the excited state density for this state as the 1-particle RhoCI density.

 Excited state symmetry could not be determined.
 Excited State   2:      Triplet-?Sym    1.7306 eV  716.42 nm  f=0.0000  <S**2>=2.000
     346 -> 348        0.66141
     346 -> 349       -0.13724
     346 -> 350       -0.10726
     346 -> 351        0.11244
     346 <- 348        0.13024

 Excited state symmetry could not be determined.
 Excited State   3:      Singlet-?Sym    3.1190 eV  397.51 nm  f=0.7580  <S**2>=0.000
     346 -> 348       -0.47549
     347 -> 349        0.48140

 Excited state symmetry could not be determined.
 Excited State   4:      Singlet-?Sym    3.1259 eV  396.64 nm  f=0.0517  <S**2>=0.000
     346 -> 348        0.49035
     347 -> 349        0.47142

 Alpha  occ. eigenvalues --  -19.21408 -19.21366 -10.25008 -10.24986 -10.24978
 Alpha  occ. eigenvalues --  -10.24855 -10.21429 -10.21132 -10.20715 -10.20691
 Alpha  occ. eigenvalues --  -10.20652 -10.20644 -10.20544 -10.20530 -10.20510
 Alpha  occ. eigenvalues --  -10.20475 -10.20308 -10.20223 -10.20220 -10.20142
 Alpha  occ. eigenvalues --  -10.20108 -10.20080 -10.20078 -10.20039 -10.20005
 Alpha  occ. eigenvalues --  -10.19915 -10.19889 -10.19851 -10.19815 -10.19814
 Alpha  occ. eigenvalues --  -10.19786 -10.19771 -10.19766 -10.19758 -10.19742
 Alpha  occ. eigenvalues --  -10.19735 -10.19727 -10.19722 -10.19708 -10.19697
 Alpha  occ. eigenvalues --  -10.19696 -10.19680 -10.19668 -10.19651 -10.19647
 Alpha  occ. eigenvalues --  -10.19625 -10.19610 -10.19565 -10.19513 -10.19494
 Alpha  occ. eigenvalues --  -10.19482 -10.19400 -10.19374 -10.19366 -10.19304
 Alpha  occ. eigenvalues --  -10.19286 -10.19229 -10.19220 -10.19206 -10.19206
 Alpha  occ. eigenvalues --  -10.19186 -10.19168 -10.19149 -10.19147 -10.19142
 Alpha  occ. eigenvalues --  -10.19141 -10.19130 -10.19116 -10.19094 -10.19090
 Alpha  occ. eigenvalues --  -10.19087 -10.19077 -10.19074 -10.19073 -10.19045
 Alpha  occ. eigenvalues --  -10.19037 -10.19035 -10.19018 -10.19010 -10.19008
 Alpha  occ. eigenvalues --  -10.18992 -10.18955 -10.18953 -10.18913 -10.18680
 Alpha  occ. eigenvalues --  -10.18676 -10.18635 -10.18631 -10.18610 -10.18605
 Alpha  occ. eigenvalues --  -10.18565 -10.18561 -10.18411 -10.18406 -10.18399
 Alpha  occ. eigenvalues --  -10.18396 -10.18364 -10.18337 -10.18331 -10.18330
 Alpha  occ. eigenvalues --  -10.18327 -10.18240 -10.18237 -10.18219  -1.11182
 Alpha  occ. eigenvalues --   -1.11012  -0.89622  -0.89503  -0.88364  -0.88291
 Alpha  occ. eigenvalues --   -0.87442  -0.86926  -0.86495  -0.86146  -0.85977
 Alpha  occ. eigenvalues --   -0.85545  -0.85183  -0.85077  -0.84299  -0.84227
 Alpha  occ. eigenvalues --   -0.83479  -0.82994  -0.82220  -0.81761  -0.80010
 Alpha  occ. eigenvalues --   -0.79948  -0.79831  -0.79764  -0.78783  -0.78280
 Alpha  occ. eigenvalues --   -0.77656  -0.77036  -0.76786  -0.75630  -0.75505
 Alpha  occ. eigenvalues --   -0.74980  -0.74757  -0.74684  -0.74671  -0.74504
 Alpha  occ. eigenvalues --   -0.74480  -0.74433  -0.74383  -0.74319  -0.73918
 Alpha  occ. eigenvalues --   -0.73743  -0.73352  -0.73313  -0.73284  -0.73243
 Alpha  occ. eigenvalues --   -0.73068  -0.71130  -0.70808  -0.70648  -0.69118
 Alpha  occ. eigenvalues --   -0.69062  -0.68853  -0.68780  -0.65823  -0.65189
 Alpha  occ. eigenvalues --   -0.64787  -0.64605  -0.64536  -0.63720  -0.63460
 Alpha  occ. eigenvalues --   -0.62542  -0.62287  -0.61975  -0.61784  -0.61330
 Alpha  occ. eigenvalues --   -0.61253  -0.61153  -0.60784  -0.60632  -0.60383
 Alpha  occ. eigenvalues --   -0.60325  -0.60183  -0.59742  -0.58973  -0.58859
 Alpha  occ. eigenvalues --   -0.58460  -0.58434  -0.58359  -0.57978  -0.57762
 Alpha  occ. eigenvalues --   -0.56943  -0.56295  -0.56206  -0.55461  -0.55406
 Alpha  occ. eigenvalues --   -0.54391  -0.53618  -0.53549  -0.52952  -0.52511
 Alpha  occ. eigenvalues --   -0.52464  -0.52008  -0.51936  -0.51675  -0.51551
 Alpha  occ. eigenvalues --   -0.51423  -0.51108  -0.50769  -0.50279  -0.50228
 Alpha  occ. eigenvalues --   -0.49416  -0.48854  -0.48375  -0.47809  -0.47516
 Alpha  occ. eigenvalues --   -0.46766  -0.46660  -0.46555  -0.46491  -0.46413
 Alpha  occ. eigenvalues --   -0.46396  -0.46026  -0.45953  -0.45804  -0.45766
 Alpha  occ. eigenvalues --   -0.45688  -0.45618  -0.45516  -0.45331  -0.45134
 Alpha  occ. eigenvalues --   -0.45036  -0.44994  -0.44902  -0.44764  -0.44547
 Alpha  occ. eigenvalues --   -0.44281  -0.44219  -0.44209  -0.44089  -0.43855
 Alpha  occ. eigenvalues --   -0.43642  -0.43522  -0.43254  -0.43234  -0.43162
 Alpha  occ. eigenvalues --   -0.42852  -0.42718  -0.42619  -0.42584  -0.42436
 Alpha  occ. eigenvalues --   -0.42365  -0.42244  -0.41988  -0.41968  -0.41914
 Alpha  occ. eigenvalues --   -0.41902  -0.41832  -0.41673  -0.41570  -0.41236
 Alpha  occ. eigenvalues --   -0.40752  -0.40731  -0.40223  -0.40152  -0.40114
 Alpha  occ. eigenvalues --   -0.39920  -0.39833  -0.39732  -0.39671  -0.39043
 Alpha  occ. eigenvalues --   -0.38905  -0.38830  -0.38482  -0.38316  -0.38110
 Alpha  occ. eigenvalues --   -0.38013  -0.37921  -0.37433  -0.37429  -0.37358
 Alpha  occ. eigenvalues --   -0.37286  -0.37245  -0.36894  -0.36741  -0.36398
 Alpha  occ. eigenvalues --   -0.36278  -0.36122  -0.36076  -0.36038  -0.35836
 Alpha  occ. eigenvalues --   -0.35620  -0.35555  -0.35493  -0.35483  -0.35443
 Alpha  occ. eigenvalues --   -0.35334  -0.35116  -0.34767  -0.34722  -0.34584
 Alpha  occ. eigenvalues --   -0.34561  -0.34467  -0.34439  -0.34357  -0.34215
 Alpha  occ. eigenvalues --   -0.34131  -0.33955  -0.33854  -0.33723  -0.33494
 Alpha  occ. eigenvalues --   -0.33332  -0.33038  -0.32950  -0.32433  -0.32204
 Alpha  occ. eigenvalues --   -0.32105  -0.31527  -0.31402  -0.31100  -0.31027
 Alpha  occ. eigenvalues --   -0.30182  -0.29622  -0.29546  -0.28720  -0.28610
 Alpha  occ. eigenvalues --   -0.28580  -0.28027  -0.27439  -0.27094  -0.25715
 Alpha  occ. eigenvalues --   -0.25632  -0.25450  -0.25256  -0.25184  -0.25169
 Alpha  occ. eigenvalues --   -0.24839  -0.24697  -0.24684  -0.24641  -0.24616
 Alpha  occ. eigenvalues --   -0.24539  -0.24467  -0.23717  -0.23572  -0.23500
 Alpha  occ. eigenvalues --   -0.23403  -0.21960  -0.20402  -0.19848  -0.19623
 Alpha  occ. eigenvalues --   -0.18777  -0.18705
 Alpha virt. eigenvalues --   -0.06025  -0.05970  -0.05745  -0.05291  -0.04727
 Alpha virt. eigenvalues --   -0.03074  -0.01943  -0.01508  -0.01428  -0.00999
 Alpha virt. eigenvalues --   -0.00741  -0.00658  -0.00483  -0.00390  -0.00324

 Mulliken charges:
               1
     1  C   -0.445530
     2  C   -0.063536
     3  C   -0.445474
     4  C    0.102577
     5  C   -0.258520
     6  C    0.099768
     7  C    0.092323
     8  C   -0.180569
     9  C   -0.156374
    10  C    0.012750
    11  C   -0.078467
    12  C    0.105506
    13  C   -0.199218
    14  C   -0.134776
    15  C   -0.134832
    16  C   -0.198465
    17  C    0.104652
    18  C   -0.079082
    19  C    0.004207
    20  C   -0.147494
    21  C   -0.132626
    22  C   -0.126450
    23  C   -0.132633
    24  C   -0.147473
    25  C    0.104652
    26  C   -0.198459
    27  C   -0.134820
    28  C   -0.134792
    29  C   -0.199245
    30  C    0.105510
    31  C   -0.156821
    32  C   -0.178824
    33  C   -0.194656
    34  C   -0.195647
    35  C    0.093167
    36  C   -0.021957
    37  C   -0.001410
    38  C    0.108744
    39  C   -0.219107
    40  C   -0.130412
    41  C   -0.141768
    42  C   -0.173205
    43  C    0.068150
    44  C    0.203433
    45  O   -0.554366
    46  C    0.326685
    47  C   -0.268932
    48  C    0.087268
    49  C    0.104997
    50  C   -0.194466
    51  C   -0.194322
    52  C    0.085116
    53  C    0.111031
    54  C   -0.289977
    55  C   -0.006995
    56  C    0.007745
    57  C    0.222819
    58  O   -0.561321
    59  C    0.332776
    60  C   -0.209425
    61  C   -0.137048
    62  C   -0.142657
    63  C   -0.194544
    64  C    0.062817
    65  C    0.018142
    66  C    0.109883
    67  C   -0.194981
    68  C   -0.193534
    69  C    0.099320
    70  C    0.091425
    71  C   -0.180460
    72  C   -0.156504
    73  C    0.012448
    74  C   -0.078335
    75  C    0.105408
    76  C   -0.199110
    77  C   -0.134829
    78  C   -0.134836
    79  C   -0.198553
    80  C    0.104625
    81  C   -0.078960
    82  C    0.004534
    83  C   -0.147623
    84  C   -0.132642
    85  C   -0.126461
    86  C   -0.132665
    87  C   -0.147619
    88  C    0.104640
    89  C   -0.198570
    90  C   -0.134806
    91  C   -0.134854
    92  C   -0.199162
    93  C    0.105356
    94  C   -0.156662
    95  C   -0.178886
    96  C   -0.261777
    97  C    0.103211
    98  C   -0.068665
    99  C   -0.446581
   100  C   -0.445521
   101  C   -0.197960
   102  C   -0.198052
   103  C    0.082413
   104  C    0.049596
   105  H    0.149764
   106  H    0.159940
   107  H    0.146629
   108  H    0.144168
   109  H    0.149399
   110  H    0.160208
   111  H    0.129264
   112  H    0.134639
   113  H    0.139324
   114  H    0.145654
   115  H    0.128578
   116  H    0.128605
   117  H    0.146598
   118  H    0.137696
   119  H    0.131999
   120  H    0.130552
   121  H    0.132054
   122  H    0.137814
   123  H    0.146587
   124  H    0.128614
   125  H    0.128697
   126  H    0.145915
   127  H    0.138994
   128  H    0.133136
   129  H    0.131533
   130  H    0.136852
   131  H    0.134924
   132  H    0.130997
   133  H    0.133347
   134  H    0.150097
   135  H    0.150114
   136  H    0.134268
   137  H    0.140051
   138  H    0.137408
   139  H    0.147112
   140  H    0.134351
   141  H    0.130981
   142  H    0.145782
   143  H    0.148806
   144  H    0.132628
   145  H    0.135255
   146  H    0.139162
   147  H    0.145841
   148  H    0.128551
   149  H    0.128443
   150  H    0.146442
   151  H    0.137706
   152  H    0.131866
   153  H    0.130403
   154  H    0.131946
   155  H    0.137860
   156  H    0.146420
   157  H    0.128441
   158  H    0.128685
   159  H    0.146184
   160  H    0.138702
   161  H    0.132963
   162  H    0.129400
   163  H    0.160856
   164  H    0.155141
   165  H    0.148249
   166  H    0.146734
   167  H    0.160780
   168  H    0.149091
   169  H    0.133651
   170  H    0.144757
 Sum of Mulliken charges =  -0.00000

 Dipole moment (field-independent basis, Debye):
    X=             -1.0842    Y=              0.2116    Z=              0.7261  Tot=              1.3220
 Quadrupole moment (field-independent basis, Debye-Ang):
   XX=           -529.6419   YY=           -575.9804   ZZ=           -547.5192
   XY=              5.2380   XZ=              7.5947   YZ=             17.0882

 Normal termination of Gaussian 16 at Sat Nov  5 11:39:58 2022.
