 Gaussian 16, Revision B.01,
 Gaussian 16:  ES64L-G16RevB.01 20-Dec-2017

 -----------------------------
 #p b3lyp/6-31g(d) opt SCF=XQC
 -----------------------------

 ------------------------------
 Gaussian input prepared by ASE
 ------------------------------
 Symbolic Z-matrix:
 Charge =  0 Multiplicity = 1

 SCF Done:  E(RB3LYP) =  -4077.20419296     A.U. after   15 cycles
 SCF Done:  E(RB3LYP) =  -4077.22429047     A.U. after   13 cycles
 SCF Done:  E(RB3LYP) =  -4077.22508102     A.U. after   12 cycles
 SCF Done:  E(RB3LYP) =  -4077.22524242     A.U. after   12 cycles
 SCF Done:  E(RB3LYP) =  -4077.22539370     A.U. after   11 cycles
 SCF Done:  E(RB3LYP) =  -4077.22543995     A.U. after   10 cycles
 SCF Done:  E(RB3LYP) =  -4077.22547954     A.U. after   11 cycles
 SCF Done:  E(RB3LYP) =  -4077.22550165     A.U. after   11 cycles
 SCF Done:  E(RB3LYP) =  -4077.22551471     A.U. after   10 cycles
 SCF Done:  E(RB3LYP) =  -4077.22551715     A.U. after    9 cycles
 SCF Done:  E(RB3LYP) =  -4077.22551807     A.U. after    9 cycles
 SCF Done:  E(RB3LYP) =  -4077.22551854     A.U. after    7 cycles
 SCF Done:  E(RB3LYP) =  -4077.22551877     A.U. after    7 cycles
 SCF Done:  E(RB3LYP) =  -4077.22551915     A.U. after    9 cycles
 SCF Done:  E(RB3LYP) =  -4077.22551960     A.U. after    9 cycles
 SCF Done:  E(RB3LYP) =  -4077.22551985     A.U. after    9 cycles
 SCF Done:  E(RB3LYP) =  -4077.22551997     A.U. after    7 cycles
 SCF Done:  E(RB3LYP) =  -4077.22552001     A.U. after    7 cycles
 SCF Done:  E(RB3LYP) =  -4077.22552001     A.U. after    5 cycles
 Optimization completed.
    -- Stationary point found.

                         Standard orientation:
 ---------------------------------------------------------------------
 Center     Atomic      Atomic             Coordinates (Angstroms)
 Number     Number       Type             X           Y           Z
 ---------------------------------------------------------------------
      1          6           0        6.012478   -5.214622   -1.253033
      2          6           0        5.962105   -4.051514   -2.274120
      3          6           0        6.724976   -4.419774   -3.570850
      4          6           0        6.586150   -2.801576   -1.669735
      5          6           0        7.895461   -2.621129   -1.250349
      6          6           0        8.319716   -1.369350   -0.764786
      7          6           0        9.715810   -1.159852   -0.308798
      8          6           0       10.004994   -0.328924    0.787059
      9          6           0       11.315533   -0.129865    1.215271
     10          6           0       12.391327   -0.754352    0.566592
     11          6           0       13.799731   -0.539245    1.026137
     12          6           0       14.290836   -1.239547    2.150302
     13          6           0       13.480386   -2.177853    2.869098
     14          6           0       13.961299   -2.847655    3.962382
     15          6           0       15.291664   -2.624028    4.413005
     16          6           0       16.105943   -1.744440    3.751039
     17          6           0       15.649918   -1.025889    2.597994
     18          6           0       16.488772   -0.127087    1.903764
     19          6           0       17.898243    0.089238    2.363992
     20          6           0       18.926485   -0.772796    1.953790
     21          6           0       20.239688   -0.571382    2.381938
     22          6           0       20.545616    0.495883    3.228272
     23          6           0       19.531087    1.360289    3.643580
     24          6           0       18.218289    1.158321    3.214448
     25          6           0       16.000187    0.568206    0.776240
     26          6           0       16.822386    1.482806    0.040504
     27          6           0       16.339238    2.163671   -1.044811
     28          6           0       14.994024    1.977285   -1.467384
     29          6           0       14.173954    1.107986   -0.798813
     30          6           0       14.637287    0.364673    0.335534
     31          6           0       12.106201   -1.585565   -0.526960
     32          6           0       10.795870   -1.783750   -0.956213
     33          6           0        7.387131   -0.316830   -0.742798
     34          6           0        6.068587   -0.496736   -1.156304
     35          6           0        5.647496   -1.754622   -1.600137
     36          6           0        4.359406   -2.256110   -2.099914
     37          6           0        4.527456   -3.573188   -2.540831
     38          6           0        3.468212   -4.311336   -3.157302
     39          6           0        3.579907   -5.653214   -3.618957
     40          6           0        2.523032   -6.298524   -4.226494
     41          6           0        1.284847   -5.644105   -4.410509
     42          6           0        1.124800   -4.347732   -3.973679
     43          6           0        2.196325   -3.667933   -3.345303
     44          6           0        2.074108   -2.352872   -2.848121
     45          8           0        0.893695   -1.657019   -2.922726
     46          6           0        1.115076   -0.469553   -2.274020
     47          6           0        0.153958    0.514070   -2.112806
     48          6           0        0.506898    1.663609   -1.390795
     49          6           0       -0.474121    2.755515   -1.172960
     50          6           0       -0.059365    4.112507   -1.192248
     51          6           0       -0.962720    5.131167   -0.991226
     52          6           0       -2.334364    4.873116   -0.755731
     53          6           0       -2.783014    3.499664   -0.730013
     54          6           0       -1.814700    2.482643   -0.942597
     55          6           0       -4.166413    3.220444   -0.486530
     56          6           0       -5.084150    4.248702   -0.281169
     57          6           0       -4.622200    5.573379   -0.314654
     58          8           0       -5.419957    6.674711   -0.127447
     59          6           0       -4.585561    7.762421   -0.236608
     60          6           0       -4.993030    9.082247   -0.111813
     61          6           0       -4.007233   10.058987   -0.252475
     62          6           0       -2.672437    9.705081   -0.507727
     63          6           0       -2.285999    8.371828   -0.629209
     64          6           0       -3.255830    7.366042   -0.492724
     65          6           0       -3.293007    5.911594   -0.542520
     66          6           0       -6.420034    3.704899   -0.059558
     67          6           0       -7.645838    4.325532    0.191712
     68          6           0       -8.775577    3.528350    0.367051
     69          6           0       -8.707723    2.123465    0.297724
     70          6           0       -9.924740    1.295451    0.487654
     71          6           0      -10.908161    1.651029    1.426478
     72          6           0      -12.050222    0.873430    1.604276
     73          6           0      -12.255886   -0.292701    0.851983
     74          6           0      -13.482999   -1.128605    1.043323
     75          6           0      -13.565340   -2.023100    2.133489
     76          6           0      -12.491177   -2.172965    3.070304
     77          6           0      -12.581314   -3.036543    4.129206
     78          6           0      -13.757115   -3.812731    4.324001
     79          6           0      -14.804710   -3.710414    3.448202
     80          6           0      -14.753793   -2.826520    2.321279
     81          6           0      -15.825603   -2.725774    1.407652
     82          6           0      -17.053353   -3.563207    1.598477
     83          6           0      -17.101448   -4.883032    1.124704
     84          6           0      -18.244969   -5.663596    1.302041
     85          6           0      -19.359441   -5.136419    1.956998
     86          6           0      -19.323707   -3.824554    2.433100
     87          6           0      -18.179878   -3.044662    2.254807
     88          6           0      -15.740973   -1.836438    0.314240
     89          6           0      -16.803172   -1.711698   -0.639695
     90          6           0      -16.720422   -0.838406   -1.691105
     91          6           0      -15.565698   -0.025064   -1.858464
     92          6           0      -14.522719   -0.116155   -0.975818
     93          6           0      -14.558244   -1.023051    0.133318
     94          6           0      -11.275850   -0.651165   -0.085546
     95          6           0      -10.134320    0.127008   -0.264447
     96          6           0       -7.459936    1.518670    0.043483
     97          6           0       -6.330381    2.303860   -0.133091
     98          6           0       -4.891160    1.863659   -0.404736
     99          6           0       -4.384186    0.993123    0.771050
    100          6           0       -4.831773    1.079327   -1.737922
    101          6           0        1.813439    1.754212   -0.858837
    102          6           0        2.764271    0.756048   -1.041167
    103          6           0        2.437000   -0.387822   -1.787471
    104          6           0        3.076317   -1.632261   -2.201464
    105          1           0        5.541299   -6.121764   -1.642615
    106          1           0        5.498992   -4.938422   -0.326577
    107          1           0        7.052388   -5.457063   -1.006101
    108          1           0        7.771825   -4.648838   -3.341691
    109          1           0        6.294047   -5.293369   -4.067534
    110          1           0        6.707491   -3.585703   -4.279619
    111          1           0        8.599703   -3.448687   -1.278929
    112          1           0        9.190789    0.148063    1.325551
    113          1           0       11.510807    0.512715    2.069684
    114          1           0       12.465975   -2.353751    2.528913
    115          1           0       13.325685   -3.554311    4.489369
    116          1           0       15.661770   -3.156505    5.285099
    117          1           0       17.120518   -1.578953    4.096088
    118          1           0       18.690506   -1.604028    1.294644
    119          1           0       21.023575   -1.248798    2.053172
    120          1           0       21.567893    0.652932    3.561981
    121          1           0       19.760315    2.193305    4.303120
    122          1           0       17.429888    1.832176    3.539172
    123          1           0       17.847673    1.630053    0.361292
    124          1           0       16.983452    2.851773   -1.585699
    125          1           0       14.617271    2.529041   -2.324529
    126          1           0       13.148669    0.971619   -1.124163
    127          1           0       12.923787   -2.074044   -1.050426
    128          1           0       10.609938   -2.411674   -1.823141
    129          1           0        7.710145    0.670680   -0.425897
    130          1           0        5.403242    0.355782   -1.173338
    131          1           0        4.512773   -6.186995   -3.492432
    132          1           0        2.645535   -7.323246   -4.566804
    133          1           0        0.461650   -6.164568   -4.891712
    134          1           0        0.179508   -3.829145   -4.098212
    135          1           0       -0.830769    0.396509   -2.552137
    136          1           0        0.980545    4.349561   -1.396621
    137          1           0       -0.615995    6.157614   -1.024143
    138          1           0       -2.125848    1.447174   -0.896902
    139          1           0       -6.030540    9.330775    0.085571
    140          1           0       -4.277824   11.107073   -0.162981
    141          1           0       -1.925254   10.486572   -0.612700
    142          1           0       -1.247068    8.131530   -0.826278
    143          1           0       -7.719811    5.407071    0.240416
    144          1           0       -9.738137    4.002774    0.535160
    145          1           0      -10.764784    2.534531    2.042286
    146          1           0      -12.791921    1.167477    2.342178
    147          1           0      -11.591820   -1.584802    2.925743
    148          1           0      -11.751842   -3.131312    4.824962
    149          1           0      -13.820973   -4.490690    5.170975
    150          1           0      -15.698271   -4.305933    3.598839
    151          1           0      -16.235115   -5.295198    0.614122
    152          1           0      -18.264503   -6.683752    0.927383
    153          1           0      -20.249887   -5.743888    2.095462
    154          1           0      -20.186616   -3.406402    2.944960
    155          1           0      -18.153953   -2.023802    2.626661
    156          1           0      -17.686443   -2.328049   -0.514269
    157          1           0      -17.540071   -0.762873   -2.400714
    158          1           0      -15.513425    0.671500   -2.691013
    159          1           0      -13.645603    0.507605   -1.107173
    160          1           0      -11.416736   -1.546161   -0.685742
    161          1           0       -9.406085   -0.162284   -1.017107
    162          1           0       -7.390205    0.434214    0.014638
    163          1           0       -4.446029    1.543185    1.715383
    164          1           0       -3.346038    0.678772    0.629858
    165          1           0       -4.997882    0.089964    0.863324
    166          1           0       -5.448270    0.175749   -1.671713
    167          1           0       -5.209964    1.689069   -2.564626
    168          1           0       -3.811874    0.769877   -1.984216
    169          1           0        2.074173    2.618969   -0.256249
    170          1           0        3.730360    0.860140   -0.565513
 ---------------------------------------------------------------------

 The electronic state is 1-A.
 Alpha  occ. eigenvalues --  -19.21408 -19.21366 -10.25008 -10.24986 -10.24978
 Alpha  occ. eigenvalues --  -10.24855 -10.21428 -10.21132 -10.20715 -10.20691
 Alpha  occ. eigenvalues --  -10.20652 -10.20644 -10.20544 -10.20530 -10.20510
 Alpha  occ. eigenvalues --  -10.20475 -10.20308 -10.20223 -10.20220 -10.20142
 Alpha  occ. eigenvalues --  -10.20108 -10.20080 -10.20078 -10.20039 -10.20005
 Alpha  occ. eigenvalues --  -10.19915 -10.19890 -10.19851 -10.19815 -10.19814
 Alpha  occ. eigenvalues --  -10.19786 -10.19771 -10.19766 -10.19758 -10.19742
 Alpha  occ. eigenvalues --  -10.19735 -10.19727 -10.19722 -10.19708 -10.19697
 Alpha  occ. eigenvalues --  -10.19696 -10.19680 -10.19668 -10.19651 -10.19647
 Alpha  occ. eigenvalues --  -10.19625 -10.19610 -10.19565 -10.19513 -10.19494
 Alpha  occ. eigenvalues --  -10.19482 -10.19400 -10.19374 -10.19366 -10.19304
 Alpha  occ. eigenvalues --  -10.19286 -10.19229 -10.19220 -10.19206 -10.19206
 Alpha  occ. eigenvalues --  -10.19186 -10.19168 -10.19149 -10.19147 -10.19142
 Alpha  occ. eigenvalues --  -10.19141 -10.19130 -10.19116 -10.19094 -10.19090
 Alpha  occ. eigenvalues --  -10.19087 -10.19077 -10.19074 -10.19073 -10.19045
 Alpha  occ. eigenvalues --  -10.19037 -10.19035 -10.19018 -10.19010 -10.19008
 Alpha  occ. eigenvalues --  -10.18992 -10.18955 -10.18953 -10.18913 -10.18680
 Alpha  occ. eigenvalues --  -10.18676 -10.18635 -10.18631 -10.18610 -10.18605
 Alpha  occ. eigenvalues --  -10.18565 -10.18561 -10.18412 -10.18406 -10.18399
 Alpha  occ. eigenvalues --  -10.18396 -10.18364 -10.18337 -10.18331 -10.18330
 Alpha  occ. eigenvalues --  -10.18327 -10.18240 -10.18237 -10.18219  -1.11182
 Alpha  occ. eigenvalues --   -1.11012  -0.89622  -0.89503  -0.88364  -0.88291
 Alpha  occ. eigenvalues --   -0.87442  -0.86926  -0.86495  -0.86146  -0.85977
 Alpha  occ. eigenvalues --   -0.85545  -0.85183  -0.85077  -0.84299  -0.84227
 Alpha  occ. eigenvalues --   -0.83479  -0.82994  -0.82220  -0.81761  -0.80010
 Alpha  occ. eigenvalues --   -0.79947  -0.79831  -0.79764  -0.78783  -0.78280
 Alpha  occ. eigenvalues --   -0.77656  -0.77036  -0.76786  -0.75630  -0.75505
 Alpha  occ. eigenvalues --   -0.74980  -0.74757  -0.74684  -0.74671  -0.74504
 Alpha  occ. eigenvalues --   -0.74480  -0.74433  -0.74383  -0.74319  -0.73918
 Alpha  occ. eigenvalues --   -0.73743  -0.73352  -0.73313  -0.73284  -0.73243
 Alpha  occ. eigenvalues --   -0.73068  -0.71130  -0.70808  -0.70648  -0.69118
 Alpha  occ. eigenvalues --   -0.69062  -0.68853  -0.68780  -0.65823  -0.65189
 Alpha  occ. eigenvalues --   -0.64787  -0.64605  -0.64536  -0.63720  -0.63460
 Alpha  occ. eigenvalues --   -0.62542  -0.62287  -0.61975  -0.61784  -0.61330
 Alpha  occ. eigenvalues --   -0.61253  -0.61153  -0.60784  -0.60632  -0.60383
 Alpha  occ. eigenvalues --   -0.60325  -0.60183  -0.59742  -0.58973  -0.58859
 Alpha  occ. eigenvalues --   -0.58460  -0.58434  -0.58359  -0.57978  -0.57762
 Alpha  occ. eigenvalues --   -0.56943  -0.56295  -0.56206  -0.55461  -0.55406
 Alpha  occ. eigenvalues --   -0.54391  -0.53618  -0.53549  -0.52952  -0.52511
 Alpha  occ. eigenvalues --   -0.52464  -0.52008  -0.51936  -0.51675  -0.51551
 Alpha  occ. eigenvalues --   -0.51423  -0.51108  -0.50769  -0.50279  -0.50228
 Alpha  occ. eigenvalues --   -0.49416  -0.48854  -0.48375  -0.47809  -0.47516
 Alpha  occ. eigenvalues --   -0.46766  -0.46660  -0.46555  -0.46491  -0.46413
 Alpha  occ. eigenvalues --   -0.46396  -0.46026  -0.45953  -0.45804  -0.45766
 Alpha  occ. eigenvalues --   -0.45689  -0.45618  -0.45516  -0.45331  -0.45134
 Alpha  occ. eigenvalues --   -0.45036  -0.44994  -0.44902  -0.44764  -0.44547
 Alpha  occ. eigenvalues --   -0.44281  -0.44219  -0.44209  -0.44089  -0.43855
 Alpha  occ. eigenvalues --   -0.43642  -0.43522  -0.43254  -0.43234  -0.43162
 Alpha  occ. eigenvalues --   -0.42852  -0.42718  -0.42619  -0.42584  -0.42436
 Alpha  occ. eigenvalues --   -0.42365  -0.42245  -0.41988  -0.41968  -0.41914
 Alpha  occ. eigenvalues --   -0.41902  -0.41832  -0.41673  -0.41570  -0.41236
 Alpha  occ. eigenvalues --   -0.40752  -0.40731  -0.40223  -0.40152  -0.40115
 Alpha  occ. eigenvalues --   -0.39920  -0.39833  -0.39732  -0.39671  -0.39043
 Alpha  occ. eigenvalues --   -0.38905  -0.38830  -0.38482  -0.38316  -0.38110
 Alpha  occ. eigenvalues --   -0.38013  -0.37921  -0.37433  -0.37429  -0.37358
 Alpha  occ. eigenvalues --   -0.37286  -0.37245  -0.36894  -0.36741  -0.36398
 Alpha  occ. eigenvalues --   -0.36278  -0.36122  -0.36076  -0.36037  -0.35836
 Alpha  occ. eigenvalues --   -0.35620  -0.35555  -0.35493  -0.35483  -0.35443
 Alpha  occ. eigenvalues --   -0.35335  -0.35116  -0.34767  -0.34722  -0.34584
 Alpha  occ. eigenvalues --   -0.34561  -0.34467  -0.34439  -0.34357  -0.34215
 Alpha  occ. eigenvalues --   -0.34131  -0.33955  -0.33854  -0.33723  -0.33494
 Alpha  occ. eigenvalues --   -0.33332  -0.33038  -0.32950  -0.32433  -0.32204
 Alpha  occ. eigenvalues --   -0.32105  -0.31527  -0.31402  -0.31100  -0.31027
 Alpha  occ. eigenvalues --   -0.30182  -0.29622  -0.29546  -0.28720  -0.28610
 Alpha  occ. eigenvalues --   -0.28580  -0.28027  -0.27439  -0.27094  -0.25715
 Alpha  occ. eigenvalues --   -0.25632  -0.25450  -0.25256  -0.25184  -0.25169
 Alpha  occ. eigenvalues --   -0.24839  -0.24697  -0.24684  -0.24641  -0.24616
 Alpha  occ. eigenvalues --   -0.24539  -0.24467  -0.23717  -0.23572  -0.23500
 Alpha  occ. eigenvalues --   -0.23403  -0.21960  -0.20402  -0.19848  -0.19623
 Alpha  occ. eigenvalues --   -0.18777  -0.18705
 Alpha virt. eigenvalues --   -0.06025  -0.05970  -0.05745  -0.05291  -0.04727
 Alpha virt. eigenvalues --   -0.03074  -0.01943  -0.01508  -0.01428  -0.00999
 Alpha virt. eigenvalues --   -0.00741  -0.00658  -0.00483  -0.00390  -0.00324

 Mulliken charges:
               1
     1  C   -0.445549
     2  C   -0.063493
     3  C   -0.445480
     4  C    0.102554
     5  C   -0.258516
     6  C    0.099774
     7  C    0.092326
     8  C   -0.180576
     9  C   -0.156376
    10  C    0.012749
    11  C   -0.078478
    12  C    0.105517
    13  C   -0.199224
    14  C   -0.134774
    15  C   -0.134832
    16  C   -0.198465
    17  C    0.104655
    18  C   -0.079099
    19  C    0.004237
    20  C   -0.147513
    21  C   -0.132627
    22  C   -0.126439
    23  C   -0.132635
    24  C   -0.147487
    25  C    0.104679
    26  C   -0.198472
    27  C   -0.134817
    28  C   -0.134793
    29  C   -0.199245
    30  C    0.105513
    31  C   -0.156827
    32  C   -0.178815
    33  C   -0.194650
    34  C   -0.195656
    35  C    0.093181
    36  C   -0.021976
    37  C   -0.001422
    38  C    0.108771
    39  C   -0.219114
    40  C   -0.130413
    41  C   -0.141761
    42  C   -0.173205
    43  C    0.068138
    44  C    0.203426
    45  O   -0.554369
    46  C    0.326688
    47  C   -0.268932
    48  C    0.087275
    49  C    0.104992
    50  C   -0.194460
    51  C   -0.194329
    52  C    0.085135
    53  C    0.111039
    54  C   -0.289979
    55  C   -0.006999
    56  C    0.007696
    57  C    0.222819
    58  O   -0.561329
    59  C    0.332791
    60  C   -0.209429
    61  C   -0.137050
    62  C   -0.142654
    63  C   -0.194539
    64  C    0.062799
    65  C    0.018152
    66  C    0.109924
    67  C   -0.194989
    68  C   -0.193534
    69  C    0.099322
    70  C    0.091443
    71  C   -0.180458
    72  C   -0.156532
    73  C    0.012480
    74  C   -0.078334
    75  C    0.105401
    76  C   -0.199117
    77  C   -0.134827
    78  C   -0.134831
    79  C   -0.198548
    80  C    0.104605
    81  C   -0.078959
    82  C    0.004553
    83  C   -0.147622
    84  C   -0.132650
    85  C   -0.126461
    86  C   -0.132654
    87  C   -0.147634
    88  C    0.104642
    89  C   -0.198575
    90  C   -0.134806
    91  C   -0.134848
    92  C   -0.199160
    93  C    0.105345
    94  C   -0.156661
    95  C   -0.178909
    96  C   -0.261772
    97  C    0.103202
    98  C   -0.068661
    99  C   -0.446583
   100  C   -0.445517
   101  C   -0.197962
   102  C   -0.198054
   103  C    0.082408
   104  C    0.049612
   105  H    0.149766
   106  H    0.159942
   107  H    0.146631
   108  H    0.144166
   109  H    0.149397
   110  H    0.160207
   111  H    0.129264
   112  H    0.134639
   113  H    0.139327
   114  H    0.145653
   115  H    0.128579
   116  H    0.128606
   117  H    0.146596
   118  H    0.137696
   119  H    0.131999
   120  H    0.130551
   121  H    0.132054
   122  H    0.137812
   123  H    0.146587
   124  H    0.128616
   125  H    0.128698
   126  H    0.145915
   127  H    0.138993
   128  H    0.133136
   129  H    0.131532
   130  H    0.136852
   131  H    0.134923
   132  H    0.130997
   133  H    0.133346
   134  H    0.150097
   135  H    0.150114
   136  H    0.134267
   137  H    0.140051
   138  H    0.137410
   139  H    0.147113
   140  H    0.134351
   141  H    0.130980
   142  H    0.145782
   143  H    0.148805
   144  H    0.132628
   145  H    0.135255
   146  H    0.139164
   147  H    0.145843
   148  H    0.128550
   149  H    0.128442
   150  H    0.146444
   151  H    0.137706
   152  H    0.131866
   153  H    0.130403
   154  H    0.131945
   155  H    0.137861
   156  H    0.146422
   157  H    0.128441
   158  H    0.128683
   159  H    0.146187
   160  H    0.138702
   161  H    0.132965
   162  H    0.129400
   163  H    0.160855
   164  H    0.155141
   165  H    0.148249
   166  H    0.146732
   167  H    0.160780
   168  H    0.149090
   169  H    0.133651
   170  H    0.144757
 Sum of Mulliken charges =  -0.00000

 Dipole moment (field-independent basis, Debye):
    X=              1.0762    Y=             -0.7679    Z=              0.0048  Tot=              1.3221
 Quadrupole moment (field-independent basis, Debye-Ang):
   XX=           -529.3079   YY=           -540.5518   ZZ=           -582.8857
   XY=              8.3856   XZ=              3.2862   YZ=              6.8070

 Normal termination of Gaussian 16 at Sat Nov  5 03:05:16 2022.
