 Gaussian 16, Revision B.01,
 Gaussian 16:  ES64L-G16RevB.01 20-Dec-2017

 -----------------------------
 #p b3lyp/6-31g(d) opt SCF=XQC
 -----------------------------

 ------------------------------
 Gaussian input prepared by ASE
 ------------------------------
 Symbolic Z-matrix:
 Charge =  0 Multiplicity = 1

 SCF Done:  E(RB3LYP) =  -2381.90993432     A.U. after   16 cycles
 SCF Done:  E(RB3LYP) =  -2381.91994716     A.U. after   15 cycles
 SCF Done:  E(RB3LYP) =  -2381.92269066     A.U. after   15 cycles
 SCF Done:  E(RB3LYP) =  -2381.92681657     A.U. after   13 cycles
 SCF Done:  E(RB3LYP) =  -2381.92730847     A.U. after   12 cycles
 SCF Done:  E(RB3LYP) =  -2381.92736410     A.U. after   12 cycles
 SCF Done:  E(RB3LYP) =  -2381.92750526     A.U. after   11 cycles
 SCF Done:  E(RB3LYP) =  -2381.92755041     A.U. after   10 cycles
 SCF Done:  E(RB3LYP) =  -2381.92756276     A.U. after   10 cycles
 SCF Done:  E(RB3LYP) =  -2381.92756609     A.U. after    9 cycles
 SCF Done:  E(RB3LYP) =  -2381.92756680     A.U. after    7 cycles
 SCF Done:  E(RB3LYP) =  -2381.92756706     A.U. after    7 cycles
 SCF Done:  E(RB3LYP) =  -2381.92756713     A.U. after    7 cycles
 SCF Done:  E(RB3LYP) =  -2381.92756715     A.U. after    6 cycles
 Optimization completed.
    -- Stationary point found.

                         Standard orientation:
 ---------------------------------------------------------------------
 Center     Atomic      Atomic             Coordinates (Angstroms)
 Number     Number       Type             X           Y           Z
 ---------------------------------------------------------------------
      1          6           0        5.449622   -2.718103   -2.774771
      2          6           0        5.695607   -1.636236   -2.011930
      3          6           0        5.400513   -1.685049   -0.589375
      4          6           0        5.118958   -2.852584    0.044208
      5          6           0        5.143726   -4.163155   -0.695832
      6          6           0        4.806087   -3.957269   -2.188772
      7          6           0        4.905400   -2.602494    1.468536
      8          6           0        4.605192   -3.465513    2.524543
      9          6           0        4.450642   -2.930673    3.807960
     10          6           0        4.592383   -1.558584    4.032612
     11          6           0        4.893765   -0.689672    2.973231
     12          6           0        5.049456   -1.216743    1.701175
     13          6           0        5.379300   -0.507966    0.385499
     14          6           0        6.686546    0.290439    0.413249
     15          6           0        7.968146   -0.156270    0.710201
     16          6           0        9.028817    0.755953    0.671639
     17          6           0        8.801953    2.096125    0.339151
     18          6           0        7.514692    2.548033    0.040162
     19          6           0        6.454260    1.639343    0.077373
     20          6           0        5.021514    1.816957   -0.182954
     21          6           0        4.276620    2.939849   -0.548945
     22          6           0        2.903047    2.815234   -0.748419
     23          6           0        2.253790    1.579352   -0.565768
     24          7           0        0.850257    1.474544   -0.760139
     25          6           0        0.306156    0.348437   -1.439161
     26          6           0        0.954769   -0.194331   -2.558940
     27          6           0        0.420736   -1.316733   -3.189412
     28          6           0       -0.762158   -1.898300   -2.736700
     29          6           0       -1.432603   -1.361155   -1.624096
     30          6           0       -2.693343   -1.965567   -1.120850
     31          6           0       -2.849635   -3.370917   -1.084661
     32          6           0       -4.016384   -3.958394   -0.611554
     33          6           0       -5.061067   -3.145054   -0.157843
     34          6           0       -6.383289   -3.406532    0.367307
     35          6           0       -7.098114   -4.577502    0.646632
     36          6           0       -8.378916   -4.478853    1.181793
     37          6           0       -8.947464   -3.220866    1.446788
     38          6           0       -8.258470   -2.040123    1.177692
     39          6           0       -6.977737   -2.144547    0.627485
     40          7           0       -6.071292   -1.134178    0.285605
     41          6           0       -6.314759    0.264909    0.355413
     42          6           0       -5.422295    1.101402    1.037995
     43          6           0       -5.646623    2.477368    1.075509
     44          6           0       -6.774889    3.023158    0.460439
     45          6           0       -7.673716    2.187016   -0.204461
     46          6           0       -7.441654    0.813395   -0.270424
     47          6           0       -4.900154   -1.736670   -0.189126
     48          6           0       -3.734665   -1.141596   -0.672490
     49          6           0       -0.878119   -0.245859   -0.981237
     50          6           0       -0.001620    2.511640   -0.297448
     51          6           0        0.223109    3.079792    0.991240
     52          6           0       -0.594401    4.073033    1.470518
     53          6           0       -1.692965    4.558191    0.709587
     54          6           0       -2.557846    5.580073    1.180624
     55          6           0       -3.607107    6.029337    0.407730
     56          6           0       -3.835880    5.469809   -0.873546
     57          6           0       -3.018238    4.472000   -1.355601
     58          6           0       -1.927371    3.985892   -0.583594
     59          6           0       -1.058862    2.972466   -1.063222
     60          6           0        3.004948    0.451007   -0.186625
     61          6           0        4.372861    0.578996   -0.008846
     62          1           0        5.643421   -2.694988   -3.844742
     63          1           0        6.105493   -0.724705   -2.439570
     64          1           0        4.448154   -4.886194   -0.253358
     65          1           0        6.148476   -4.606259   -0.597305
     66          1           0        5.091507   -4.848176   -2.759980
     67          1           0        3.712880   -3.861496   -2.302885
     68          1           0        4.491667   -4.533548    2.356733
     69          1           0        4.216850   -3.590196    4.639709
     70          1           0        4.469218   -1.160331    5.036126
     71          1           0        5.006190    0.376804    3.151113
     72          1           0        8.144310   -1.196693    0.970394
     73          1           0       10.036341    0.420299    0.901981
     74          1           0        9.635672    2.792910    0.313639
     75          1           0        7.345053    3.590673   -0.216710
     76          1           0        4.756305    3.903978   -0.697448
     77          1           0        2.319185    3.677448   -1.054023
     78          1           0        1.870325    0.258823   -2.924152
     79          1           0        0.924483   -1.727159   -4.060754
     80          1           0       -1.184861   -2.750786   -3.259739
     81          1           0       -2.026032   -4.000377   -1.407750
     82          1           0       -4.112587   -5.040857   -0.589617
     83          1           0       -6.655051   -5.550771    0.451860
     84          1           0       -8.943877   -5.380231    1.401723
     85          1           0       -9.945126   -3.164295    1.873876
     86          1           0       -8.700551   -1.073516    1.394920
     87          1           0       -4.560912    0.669098    1.537289
     88          1           0       -4.940097    3.123632    1.588051
     89          1           0       -6.947852    4.094843    0.495752
     90          1           0       -8.551078    2.604860   -0.690886
     91          1           0       -8.119481    0.163396   -0.814799
     92          1           0       -3.640689   -0.062689   -0.729339
     93          1           0       -1.358710    0.153295   -0.094519
     94          1           0        1.046380    2.707692    1.592122
     95          1           0       -0.414351    4.492142    2.457855
     96          1           0       -2.373751    6.009041    2.163194
     97          1           0       -4.258561    6.817168    0.776341
     98          1           0       -4.663601    5.831631   -1.477677
     99          1           0       -3.196987    4.040892   -2.337698
    100          1           0       -1.234912    2.550563   -2.048357
    101          1           0        2.510780   -0.503846   -0.037759
 ---------------------------------------------------------------------

 The electronic state is 1-A.
 Alpha  occ. eigenvalues --  -14.37962 -14.36505 -10.23576 -10.23109 -10.22946
 Alpha  occ. eigenvalues --  -10.22782 -10.22206 -10.22175 -10.21000 -10.19878
 Alpha  occ. eigenvalues --  -10.19702 -10.19642 -10.19624 -10.19614 -10.19535
 Alpha  occ. eigenvalues --  -10.19459 -10.19457 -10.19452 -10.19342 -10.19320
 Alpha  occ. eigenvalues --  -10.19197 -10.19182 -10.19160 -10.19144 -10.19135
 Alpha  occ. eigenvalues --  -10.19124 -10.19107 -10.19060 -10.18977 -10.18960
 Alpha  occ. eigenvalues --  -10.18932 -10.18840 -10.18826 -10.18815 -10.18811
 Alpha  occ. eigenvalues --  -10.18773 -10.18759 -10.18723 -10.18707 -10.18688
 Alpha  occ. eigenvalues --  -10.18680 -10.18645 -10.18643 -10.18636 -10.18610
 Alpha  occ. eigenvalues --  -10.18585 -10.18572 -10.18563 -10.18525 -10.18507
 Alpha  occ. eigenvalues --  -10.18469 -10.18463 -10.18458 -10.18417 -10.18393
 Alpha  occ. eigenvalues --  -10.18357 -10.18299 -10.18262 -10.18250 -10.17965
 Alpha  occ. eigenvalues --  -10.17932  -0.98669  -0.96400  -0.89700  -0.87097
 Alpha  occ. eigenvalues --   -0.86751  -0.86593  -0.85689  -0.84120  -0.83772
 Alpha  occ. eigenvalues --   -0.83435  -0.83183  -0.81568  -0.80172  -0.78826
 Alpha  occ. eigenvalues --   -0.77988  -0.77126  -0.76283  -0.75852  -0.75388
 Alpha  occ. eigenvalues --   -0.74977  -0.74456  -0.74285  -0.74250  -0.74000
 Alpha  occ. eigenvalues --   -0.73690  -0.73044  -0.72132  -0.71119  -0.70742
 Alpha  occ. eigenvalues --   -0.70347  -0.69471  -0.68001  -0.64651  -0.64086
 Alpha  occ. eigenvalues --   -0.63279  -0.63176  -0.62111  -0.61855  -0.61637
 Alpha  occ. eigenvalues --   -0.60613  -0.59783  -0.59598  -0.59419  -0.59028
 Alpha  occ. eigenvalues --   -0.58564  -0.58253  -0.57454  -0.57033  -0.56693
 Alpha  occ. eigenvalues --   -0.56387  -0.55662  -0.53655  -0.52774  -0.52444
 Alpha  occ. eigenvalues --   -0.51482  -0.51214  -0.51005  -0.50324  -0.50000
 Alpha  occ. eigenvalues --   -0.49190  -0.49008  -0.48826  -0.48403  -0.47780
 Alpha  occ. eigenvalues --   -0.46825  -0.46471  -0.46408  -0.45703  -0.45323
 Alpha  occ. eigenvalues --   -0.45130  -0.44875  -0.44743  -0.44699  -0.44243
 Alpha  occ. eigenvalues --   -0.44022  -0.43765  -0.43526  -0.43345  -0.43243
 Alpha  occ. eigenvalues --   -0.42885  -0.42770  -0.42707  -0.42398  -0.42186
 Alpha  occ. eigenvalues --   -0.41985  -0.41747  -0.41503  -0.41330  -0.41197
 Alpha  occ. eigenvalues --   -0.41164  -0.40924  -0.40859  -0.39658  -0.39284
 Alpha  occ. eigenvalues --   -0.38903  -0.38116  -0.37703  -0.37639  -0.37450
 Alpha  occ. eigenvalues --   -0.37209  -0.37093  -0.36907  -0.36752  -0.36345
 Alpha  occ. eigenvalues --   -0.35961  -0.35845  -0.35616  -0.35316  -0.35113
 Alpha  occ. eigenvalues --   -0.34788  -0.34622  -0.34311  -0.34158  -0.33970
 Alpha  occ. eigenvalues --   -0.33677  -0.33477  -0.33295  -0.33111  -0.32995
 Alpha  occ. eigenvalues --   -0.32688  -0.32310  -0.32078  -0.31557  -0.30313
 Alpha  occ. eigenvalues --   -0.30185  -0.28436  -0.28391  -0.27126  -0.26021
 Alpha  occ. eigenvalues --   -0.25661  -0.25589  -0.25374  -0.24880  -0.24842
 Alpha  occ. eigenvalues --   -0.24685  -0.24155  -0.23676  -0.22807  -0.21565
 Alpha  occ. eigenvalues --   -0.20243  -0.19529  -0.18758  -0.17763
 Alpha virt. eigenvalues --   -0.04174  -0.03939  -0.03431  -0.02921  -0.01407
 Alpha virt. eigenvalues --   -0.01247  -0.00993  -0.00704  -0.00056   0.00424
 Alpha virt. eigenvalues --    0.00754   0.01183   0.01459   0.03103   0.03437

 Mulliken charges:
               1
     1  C   -0.141154
     2  C   -0.124283
     3  C    0.100095
     4  C    0.045526
     5  C   -0.340490
     6  C   -0.302184
     7  C    0.075376
     8  C   -0.204934
     9  C   -0.132556
    10  C   -0.139466
    11  C   -0.189408
    12  C    0.131778
    13  C   -0.276101
    14  C    0.117700
    15  C   -0.188008
    16  C   -0.136729
    17  C   -0.135108
    18  C   -0.193012
    19  C    0.068400
    20  C    0.072302
    21  C   -0.202796
    22  C   -0.179664
    23  C    0.285208
    24  N   -0.663069
    25  C    0.289877
    26  C   -0.167069
    27  C   -0.144238
    28  C   -0.175290
    29  C    0.081279
    30  C    0.085494
    31  C   -0.194776
    32  C   -0.202371
    33  C    0.067864
    34  C    0.055743
    35  C   -0.196906
    36  C   -0.145191
    37  C   -0.141710
    38  C   -0.177242
    39  C    0.315729
    40  N   -0.740271
    41  C    0.268435
    42  C   -0.155832
    43  C   -0.139998
    44  C   -0.122293
    45  C   -0.143673
    46  C   -0.151112
    47  C    0.318089
    48  C   -0.239329
    49  C   -0.217632
    50  C    0.283760
    51  C   -0.159923
    52  C   -0.207429
    53  C    0.140926
    54  C   -0.198592
    55  C   -0.142460
    56  C   -0.136362
    57  C   -0.188172
    58  C    0.134904
    59  C   -0.255902
    60  C   -0.235931
    61  C    0.121521
    62  H    0.128407
    63  H    0.134648
    64  H    0.147191
    65  H    0.154125
    66  H    0.142066
    67  H    0.156857
    68  H    0.124329
    69  H    0.126058
    70  H    0.126014
    71  H    0.134784
    72  H    0.137710
    73  H    0.128081
    74  H    0.127638
    75  H    0.127823
    76  H    0.132046
    77  H    0.144284
    78  H    0.144892
    79  H    0.130732
    80  H    0.130405
    81  H    0.126327
    82  H    0.130292
    83  H    0.129035
    84  H    0.123463
    85  H    0.126241
    86  H    0.140382
    87  H    0.152253
    88  H    0.150098
    89  H    0.132471
    90  H    0.135186
    91  H    0.150530
    92  H    0.150974
    93  H    0.143835
    94  H    0.148450
    95  H    0.132885
    96  H    0.129395
    97  H    0.127970
    98  H    0.129351
    99  H    0.133075
   100  H    0.144180
   101  H    0.154170
 Sum of Mulliken charges =  -0.00000

 Dipole moment (field-independent basis, Debye):
    X=             -0.1419    Y=              1.0514    Z=             -0.3348  Tot=              1.1125
 Quadrupole moment (field-independent basis, Debye-Ang):
   XX=           -326.6101   YY=           -318.7037   ZZ=           -339.4306
   XY=            -13.3351   XZ=             -2.6436   YZ=              6.3141

 1\1\GINC-NODE43\FOpt\RB3LYP\6-31G(d)\C59H40N2\WYKGROUP\05-Nov-2022\0\\
 #p b3lyp/6-31g(d) opt SCF=XQC\\Gaussian input prepared by ASE\\0,1\C,-
 5.3996279361,-0.5708687572,3.8491735992\C,-5.6674790356,-0.4163320882,
 2.5387366195\C,-5.2311530281,-1.4342067613,1.5971007416\C,-4.783353242
 1,-2.647676328,2.0103859419\C,-4.7606802438,-3.0106475831,3.4710732852
 \C,-4.5912311537,-1.7503527289,4.3475462673\C,-4.4549664684,-3.4742115
 372,0.850272569\C,-3.9751023839,-4.7819456392,0.7520831547\C,-3.745021
 3207,-5.3210340467,-0.5181709676\C,-3.9888392107,-4.5674269976,-1.6696

 Normal termination of Gaussian 16 at Sat Nov  5 01:31:08 2022.
