 Gaussian 16, Revision B.01,
 Gaussian 16:  ES64L-G16RevB.01 20-Dec-2017

 -------------------------------------------------------------------
 #p b3lyp/6-31g(d) 6D 10F nosymm GFInput td=(50-50,nstate=2) SCF=XQC
 -------------------------------------------------------------------

 ------------------------------
 Gaussian input prepared by ASE
 ------------------------------
 Symbolic Z-matrix:
 Charge =  0 Multiplicity = 1

                          Input orientation:
 ---------------------------------------------------------------------
 Center     Atomic      Atomic             Coordinates (Angstroms)
 Number     Number       Type             X           Y           Z
 ---------------------------------------------------------------------
      1          6           0       -5.399628   -0.570869    3.849174
      2          6           0       -5.667479   -0.416332    2.538737
      3          6           0       -5.231153   -1.434207    1.597101
      4          6           0       -4.783353   -2.647676    2.010386
      5          6           0       -4.760680   -3.010648    3.471073
      6          6           0       -4.591231   -1.750353    4.347546
      7          6           0       -4.454966   -3.474212    0.850273
      8          6           0       -3.975102   -4.781946    0.752083
      9          6           0       -3.745021   -5.321034   -0.518171
     10          6           0       -3.988839   -4.567427   -1.669612
     11          6           0       -4.470736   -3.253409   -1.573387
     12          6           0       -4.701543   -2.717363   -0.316585
     13          6           0       -5.222134   -1.331682    0.072056
     14          6           0       -6.587825   -0.983148   -0.528382
     15          6           0       -7.787942   -1.672863   -0.409060
     16          6           0       -8.926180   -1.166040   -1.046400
     17          6           0       -8.856409    0.016341   -1.791507
     18          6           0       -7.651357    0.711822   -1.913202
     19          6           0       -6.513810    0.208346   -1.277500
     20          6           0       -5.135731    0.708703   -1.226318
     21          6           0       -4.536032    1.836661   -1.790033
     22          6           0       -3.183013    2.079472   -1.561120
     23          6           0       -2.408781    1.193383   -0.788002
     24          7           0       -1.027381    1.450023   -0.576957
     25          6           0       -0.451844    1.244962    0.708322
     26          6           0       -1.154768    1.594637    1.871432
     27          6           0       -0.584789    1.355796    3.120652
     28          6           0        0.684951    0.792345    3.233310
     29          6           0        1.409321    0.446932    2.079235
     30          6           0        2.763244   -0.158026    2.173846
     31          6           0        3.050086   -1.120127    3.170255
     32          6           0        4.306366   -1.704450    3.273179
     33          6           0        5.311779   -1.337262    2.371482
     34          6           0        6.697442   -1.716228    2.201928
     35          6           0        7.540196   -2.618929    2.861522
     36          6           0        8.852886   -2.765421    2.423384
     37          6           0        9.327332   -2.023379    1.327812
     38          6           0        8.510286   -1.117927    0.654113
     39          6           0        7.196717   -0.964527    1.106786
     40          7           0        6.172615   -0.151828    0.606678
     41          6           0        6.292887    0.783261   -0.457622
     42          6           0        5.398942    0.741863   -1.535249
     43          6           0        5.499195    1.681893   -2.560580
     44          6           0        6.507127    2.647563   -2.533475
     45          6           0        7.409079    2.677323   -1.468246
     46          6           0        7.298159    1.758335   -0.425080
     47          6           0        5.020560   -0.377247    1.369494
     48          6           0        3.763831    0.219802    1.268099
     49          6           0        0.820937    0.669275    0.826648
     50          6           0       -0.232599    1.937278   -1.647588
     51          6           0       -0.380904    1.366256   -2.946033
     52          6           0        0.385453    1.807100   -3.996228
     53          6           0        1.355194    2.832516   -3.824880
     54          6           0        2.165070    3.305146   -4.890179
     55          6           0        3.088060    4.308125   -4.684579
     56          6           0        3.240310    4.880226   -3.397490
     57          6           0        2.473968    4.438252   -2.342067
     58          6           0        1.513027    3.405246   -2.520328
     59          6           0        0.697941    2.944074   -1.455273
     60          6           0       -3.012899    0.051403   -0.229367
     61          6           0       -4.362745   -0.172732   -0.445821
     62          1           0       -5.698666    0.189235    4.567331
     63          1           0       -6.198875    0.457342    2.169844
     64          1           0       -3.961945   -3.728365    3.693091
     65          1           0       -5.706223   -3.517954    3.724373
     66          1           0       -4.848659   -1.984027    5.387058
     67          1           0       -3.527821   -1.456490    4.357409
     68          1           0       -3.781457   -5.373207    1.643519
     69          1           0       -3.371549   -6.337639   -0.610204
     70          1           0       -3.804815   -5.002214   -2.648342
     71          1           0       -4.662160   -2.670312   -2.470610
     72          1           0       -7.841945   -2.592284    0.167971
     73          1           0       -9.871370   -1.695451   -0.961741
     74          1           0       -9.748779    0.397475   -2.281060
     75          1           0       -7.603697    1.629488   -2.494131
     76          1           0       -5.114044    2.535834   -2.388996
     77          1           0       -2.713155    2.964864   -1.977072
     78          1           0       -2.139270    2.043470    1.792218
     79          1           0       -1.131895    1.636138    4.017051
     80          1           0        1.130471    0.645041    4.212490
     81          1           0        2.259761   -1.426516    3.848811
     82          1           0        4.502761   -2.444467    4.044712
     83          1           0        7.170970   -3.200830    3.702092
     84          1           0        9.516671   -3.461860    2.927758
     85          1           0       10.352689   -2.158657    0.994228
     86          1           0        8.881348   -0.556861   -0.197046
     87          1           0        4.633768   -0.027414   -1.565011
     88          1           0        4.790226    1.658293   -3.382980
     89          1           0        6.584066    3.375093   -3.336254
     90          1           0        8.192670    3.429629   -1.436803
     91          1           0        7.975909    1.798465    0.421878
     92          1           0        3.566546    0.982832    0.523137
     93          1           0        1.347634    0.367085   -0.072147
     94          1           0       -1.103853    0.569944   -3.089300
     95          1           0        0.265505    1.357532   -4.979287
     96          1           0        2.039745    2.865181   -5.877130
     97          1           0        3.697780    4.666518   -5.509649
     98          1           0        3.968291    5.672473   -3.244518
     99          1           0        2.594236    4.875702   -1.353891
    100          1           0        0.814396    3.389619   -0.471701
    101          1           0       -2.421347   -0.639773    0.362620
 ---------------------------------------------------------------------

 SCF Done:  E(RB3LYP) =  -2381.92757620     A.U. after   16 cycles

 Excitation energies and oscillator strengths:

 Excited state symmetry could not be determined.
 Excited State   1:      Triplet-?Sym    2.0148 eV  615.36 nm  f=0.0000  <S**2>=2.000
     203 ->206         0.66909
     204 ->206        -0.13957
     203 <-206         0.12725
 This state for optimization and/or second-order correction.
 Total Energy, E(TD-HF/TD-DFT) =  -2381.85353297
 Copying the excited state density for this state as the 1-particle RhoCI density.

 Excited state symmetry could not be determined.
 Excited State   2:      Triplet-?Sym    2.4797 eV  500.00 nm  f=0.0000  <S**2>=2.000
     199 ->205        -0.12381
     200 ->205         0.27027
     200 ->208         0.15089
     204 ->205         0.54063
     204 ->207         0.12310

 Excited state symmetry could not be determined.
 Excited State   3:      Singlet-?Sym    3.1905 eV  388.61 nm  f=0.2027  <S**2>=0.000
     204 ->205         0.69023

 Excited state symmetry could not be determined.
 Excited State   4:      Singlet-?Sym    3.2770 eV  378.34 nm  f=0.0058  <S**2>=0.000
     204 ->206         0.70346

 Alpha  occ. eigenvalues --  -14.37962 -14.36505 -10.23576 -10.23109 -10.22946
 Alpha  occ. eigenvalues --  -10.22782 -10.22206 -10.22175 -10.21000 -10.19878
 Alpha  occ. eigenvalues --  -10.19702 -10.19642 -10.19624 -10.19614 -10.19535
 Alpha  occ. eigenvalues --  -10.19459 -10.19457 -10.19452 -10.19342 -10.19320
 Alpha  occ. eigenvalues --  -10.19197 -10.19182 -10.19160 -10.19144 -10.19135
 Alpha  occ. eigenvalues --  -10.19124 -10.19107 -10.19060 -10.18977 -10.18960
 Alpha  occ. eigenvalues --  -10.18932 -10.18841 -10.18826 -10.18815 -10.18811
 Alpha  occ. eigenvalues --  -10.18773 -10.18759 -10.18723 -10.18707 -10.18688
 Alpha  occ. eigenvalues --  -10.18680 -10.18645 -10.18643 -10.18636 -10.18611
 Alpha  occ. eigenvalues --  -10.18585 -10.18572 -10.18563 -10.18525 -10.18507
 Alpha  occ. eigenvalues --  -10.18469 -10.18463 -10.18458 -10.18417 -10.18393
 Alpha  occ. eigenvalues --  -10.18357 -10.18300 -10.18262 -10.18250 -10.17965
 Alpha  occ. eigenvalues --  -10.17932  -0.98669  -0.96400  -0.89700  -0.87097
 Alpha  occ. eigenvalues --   -0.86751  -0.86593  -0.85689  -0.84120  -0.83772
 Alpha  occ. eigenvalues --   -0.83435  -0.83183  -0.81568  -0.80172  -0.78826
 Alpha  occ. eigenvalues --   -0.77988  -0.77126  -0.76283  -0.75852  -0.75388
 Alpha  occ. eigenvalues --   -0.74977  -0.74456  -0.74285  -0.74250  -0.74000
 Alpha  occ. eigenvalues --   -0.73690  -0.73044  -0.72132  -0.71119  -0.70742
 Alpha  occ. eigenvalues --   -0.70347  -0.69471  -0.68001  -0.64651  -0.64086
 Alpha  occ. eigenvalues --   -0.63279  -0.63176  -0.62111  -0.61855  -0.61637
 Alpha  occ. eigenvalues --   -0.60613  -0.59783  -0.59598  -0.59419  -0.59028
 Alpha  occ. eigenvalues --   -0.58564  -0.58253  -0.57454  -0.57033  -0.56693
 Alpha  occ. eigenvalues --   -0.56387  -0.55662  -0.53655  -0.52774  -0.52444
 Alpha  occ. eigenvalues --   -0.51482  -0.51214  -0.51005  -0.50324  -0.50000
 Alpha  occ. eigenvalues --   -0.49190  -0.49008  -0.48826  -0.48403  -0.47780
 Alpha  occ. eigenvalues --   -0.46825  -0.46471  -0.46408  -0.45703  -0.45323
 Alpha  occ. eigenvalues --   -0.45130  -0.44875  -0.44743  -0.44699  -0.44243
 Alpha  occ. eigenvalues --   -0.44022  -0.43765  -0.43526  -0.43345  -0.43243
 Alpha  occ. eigenvalues --   -0.42885  -0.42770  -0.42707  -0.42398  -0.42186
 Alpha  occ. eigenvalues --   -0.41985  -0.41747  -0.41503  -0.41330  -0.41197
 Alpha  occ. eigenvalues --   -0.41164  -0.40924  -0.40859  -0.39658  -0.39284
 Alpha  occ. eigenvalues --   -0.38903  -0.38116  -0.37703  -0.37639  -0.37450
 Alpha  occ. eigenvalues --   -0.37210  -0.37093  -0.36907  -0.36752  -0.36345
 Alpha  occ. eigenvalues --   -0.35961  -0.35845  -0.35616  -0.35316  -0.35113
 Alpha  occ. eigenvalues --   -0.34788  -0.34622  -0.34311  -0.34158  -0.33970
 Alpha  occ. eigenvalues --   -0.33677  -0.33477  -0.33295  -0.33111  -0.32995
 Alpha  occ. eigenvalues --   -0.32688  -0.32310  -0.32078  -0.31557  -0.30313
 Alpha  occ. eigenvalues --   -0.30185  -0.28436  -0.28391  -0.27126  -0.26021
 Alpha  occ. eigenvalues --   -0.25661  -0.25589  -0.25374  -0.24880  -0.24842
 Alpha  occ. eigenvalues --   -0.24685  -0.24155  -0.23676  -0.22807  -0.21565
 Alpha  occ. eigenvalues --   -0.20243  -0.19529  -0.18758  -0.17763
 Alpha virt. eigenvalues --   -0.04174  -0.03939  -0.03431  -0.02921  -0.01407
 Alpha virt. eigenvalues --   -0.01247  -0.00993  -0.00704  -0.00056   0.00424
 Alpha virt. eigenvalues --    0.00754   0.01183   0.01459   0.03103   0.03437

 Mulliken charges:
               1
     1  C   -0.141156
     2  C   -0.124273
     3  C    0.100107
     4  C    0.045478
     5  C   -0.340469
     6  C   -0.302187
     7  C    0.075381
     8  C   -0.204919
     9  C   -0.132560
    10  C   -0.139472
    11  C   -0.189396
    12  C    0.131757
    13  C   -0.276106
    14  C    0.117722
    15  C   -0.188012
    16  C   -0.136733
    17  C   -0.135101
    18  C   -0.193013
    19  C    0.068389
    20  C    0.072304
    21  C   -0.202795
    22  C   -0.179657
    23  C    0.285189
    24  N   -0.663045
    25  C    0.289822
    26  C   -0.167034
    27  C   -0.144264
    28  C   -0.175267
    29  C    0.081227
    30  C    0.085527
    31  C   -0.194787
    32  C   -0.202385
    33  C    0.067872
    34  C    0.055749
    35  C   -0.196896
    36  C   -0.145196
    37  C   -0.141710
    38  C   -0.177232
    39  C    0.315710
    40  N   -0.740269
    41  C    0.268460
    42  C   -0.155845
    43  C   -0.140003
    44  C   -0.122299
    45  C   -0.143663
    46  C   -0.151122
    47  C    0.318074
    48  C   -0.239322
    49  C   -0.217579
    50  C    0.283762
    51  C   -0.159923
    52  C   -0.207426
    53  C    0.140921
    54  C   -0.198591
    55  C   -0.142458
    56  C   -0.136363
    57  C   -0.188163
    58  C    0.134907
    59  C   -0.255910
    60  C   -0.235925
    61  C    0.121518
    62  H    0.128407
    63  H    0.134649
    64  H    0.147191
    65  H    0.154126
    66  H    0.142064
    67  H    0.156861
    68  H    0.124329
    69  H    0.126059
    70  H    0.126016
    71  H    0.134788
    72  H    0.137709
    73  H    0.128082
    74  H    0.127637
    75  H    0.127823
    76  H    0.132044
    77  H    0.144282
    78  H    0.144891
    79  H    0.130732
    80  H    0.130407
    81  H    0.126327
    82  H    0.130293
    83  H    0.129035
    84  H    0.123464
    85  H    0.126242
    86  H    0.140381
    87  H    0.152255
    88  H    0.150102
    89  H    0.132472
    90  H    0.135185
    91  H    0.150531
    92  H    0.150963
    93  H    0.143838
    94  H    0.148442
    95  H    0.132884
    96  H    0.129396
    97  H    0.127968
    98  H    0.129351
    99  H    0.133073
   100  H    0.144180
   101  H    0.154171
 Sum of Mulliken charges =  -0.00000

 Dipole moment (field-independent basis, Debye):
    X=              0.0117    Y=              0.9760    Z=             -0.5337  Tot=              1.1124
 Quadrupole moment (field-independent basis, Debye-Ang):
   XX=           -328.6809   YY=           -333.8323   ZZ=           -322.1774
   XY=              8.2575   XZ=            -10.0806   YZ=            -11.4723

 Normal termination of Gaussian 16 at Sat Nov  5 12:52:04 2022.
