 Gaussian 16, Revision B.01,
 Gaussian 16:  ES64L-G16RevB.01 20-Dec-2017

 -----------------------------
 #p b3lyp/6-31g(d) opt SCF=XQC
 -----------------------------

 ------------------------------
 Gaussian input prepared by ASE
 ------------------------------
 Symbolic Z-matrix:
 Charge =  0 Multiplicity = 1

 SCF Done:  E(RB3LYP) =  -1919.80726056     A.U. after   16 cycles
 SCF Done:  E(RB3LYP) =  -1919.81966334     A.U. after   13 cycles
 SCF Done:  E(RB3LYP) =  -1919.82105005     A.U. after   12 cycles
 SCF Done:  E(RB3LYP) =  -1919.82163018     A.U. after   12 cycles
 SCF Done:  E(RB3LYP) =  -1919.82181510     A.U. after   11 cycles
 SCF Done:  E(RB3LYP) =  -1919.82190527     A.U. after   11 cycles
 SCF Done:  E(RB3LYP) =  -1919.82194110     A.U. after   11 cycles
 SCF Done:  E(RB3LYP) =  -1919.82195625     A.U. after   10 cycles
 SCF Done:  E(RB3LYP) =  -1919.82196148     A.U. after    9 cycles
 SCF Done:  E(RB3LYP) =  -1919.82196358     A.U. after    9 cycles
 SCF Done:  E(RB3LYP) =  -1919.82196423     A.U. after    8 cycles
 SCF Done:  E(RB3LYP) =  -1919.82196443     A.U. after    7 cycles
 SCF Done:  E(RB3LYP) =  -1919.82196455     A.U. after    7 cycles
 SCF Done:  E(RB3LYP) =  -1919.82196458     A.U. after    6 cycles
 SCF Done:  E(RB3LYP) =  -1919.82196460     A.U. after    6 cycles
 Optimization completed.
    -- Stationary point found.

                         Standard orientation:
 ---------------------------------------------------------------------
 Center     Atomic      Atomic             Coordinates (Angstroms)
 Number     Number       Type             X           Y           Z
 ---------------------------------------------------------------------
      1          6           0       -8.789652    0.649904   -0.740807
      2          6           0       -7.873069    0.159402   -1.672847
      3          6           0       -6.506408    0.194612   -1.400223
      4          6           0       -6.024937    0.722786   -0.190238
      5          6           0       -4.559575    0.801570    0.095045
      6          6           0       -3.718883   -0.264193   -0.066465
      7          6           0       -4.217806   -1.657432   -0.283792
      8          6           0       -3.685123   -2.454301   -1.312504
      9          6           0       -4.127365   -3.761570   -1.509037
     10          6           0       -5.096364   -4.309693   -0.665899
     11          6           0       -5.618727   -3.537892    0.373714
     12          6           0       -5.184845   -2.226418    0.562004
     13          6           0       -2.231969   -0.132971   -0.037714
     14          6           0       -1.560822    0.852556   -0.784308
     15          6           0       -0.175415    0.937329   -0.783160
     16          6           0        0.608201    0.038214   -0.034230
     17          6           0        2.067482    0.230218   -0.066033
     18          7           0        2.615356    1.406331   -0.313137
     19          6           0        3.968837    1.207319   -0.280674
     20          6           0        4.984746    2.202265   -0.471873
     21          6           0        4.655025    3.550764   -0.714487
     22          6           0        5.650062    4.495123   -0.883958
     23          6           0        6.998269    4.103724   -0.811656
     24          6           0        7.333319    2.781013   -0.575742
     25          6           0        6.343491    1.785724   -0.400687
     26          6           0        6.667506    0.372478   -0.164224
     27          6           0        8.006440   -0.075547   -0.126202
     28          6           0        8.336212   -1.404779    0.072876
     29          6           0        7.320565   -2.356831    0.238002
     30          6           0        5.995144   -1.962575    0.211531
     31          6           0        5.633493   -0.608020    0.022649
     32          6           0        4.278918   -0.122152   -0.017974
     33          7           0        3.039930   -0.753700    0.130814
     34          6           0        2.805881   -2.147836    0.367100
     35          6           0        2.420225   -2.975788   -0.689482
     36          6           0        2.183501   -4.330751   -0.453375
     37          6           0        2.336604   -4.857233    0.830557
     38          6           0        2.726091   -4.025624    1.883910
     39          6           0        2.958698   -2.669376    1.656147
     40          6           0       -0.057212   -0.946254    0.716338
     41          6           0       -1.446284   -1.034058    0.700079
     42          6           0       -4.088012    2.136659    0.574032
     43          6           0       -3.288800    2.259295    1.723352
     44          6           0       -2.881188    3.511019    2.181826
     45          6           0       -3.263061    4.668371    1.500699
     46          6           0       -4.066517    4.563699    0.363288
     47          6           0       -4.483750    3.312604   -0.087811
     48          6           0       -6.958859    1.233539    0.728676
     49          6           0       -8.326230    1.187064    0.462073
     50          1           0       -9.855138    0.620788   -0.952990
     51          1           0       -8.221773   -0.248686   -2.618014
     52          1           0       -5.799752   -0.187206   -2.130398
     53          1           0       -2.922438   -2.038248   -1.964959
     54          1           0       -3.711674   -4.354303   -2.319968
     55          1           0       -5.436745   -5.331146   -0.814054
     56          1           0       -6.364694   -3.958163    1.043331
     57          1           0       -5.595791   -1.631943    1.372045
     58          1           0       -2.137519    1.555133   -1.377358
     59          1           0        0.327699    1.703096   -1.363194
     60          1           0        3.604869    3.821202   -0.759317
     61          1           0        5.392580    5.534492   -1.069463
     62          1           0        7.786015    4.841190   -0.940858
     63          1           0        8.384457    2.519887   -0.525565
     64          1           0        8.811737    0.636848   -0.263218
     65          1           0        9.379980   -1.705949    0.093435
     66          1           0        7.568447   -3.404806    0.383517
     67          1           0        5.223791   -2.711103    0.330640
     68          1           0        2.307719   -2.553768   -1.683168
     69          1           0        1.881182   -4.974296   -1.274566
     70          1           0        2.152780   -5.912572    1.010983
     71          1           0        2.846160   -4.431442    2.884395
     72          1           0        3.260723   -2.010268    2.464480
     73          1           0        0.500020   -1.641795    1.331321
     74          1           0       -1.933422   -1.809864    1.283790
     75          1           0       -2.988678    1.363744    2.258478
     76          1           0       -2.265460    3.581752    3.074633
     77          1           0       -2.942309    5.643805    1.856534
     78          1           0       -4.372783    5.458539   -0.172412
     79          1           0       -5.118620    3.239489   -0.966382
     80          1           0       -6.604869    1.665386    1.660586
     81          1           0       -9.030510    1.576057    1.193002
 ---------------------------------------------------------------------

 The electronic state is 1-A.
 Alpha  occ. eigenvalues --  -14.39625 -14.30919 -10.25075 -10.24644 -10.21983
 Alpha  occ. eigenvalues --  -10.21051 -10.20994 -10.20960 -10.20945 -10.20912
 Alpha  occ. eigenvalues --  -10.20440 -10.20203 -10.20070 -10.19996 -10.19985
 Alpha  occ. eigenvalues --  -10.19855 -10.19639 -10.19572 -10.19476 -10.19386
 Alpha  occ. eigenvalues --  -10.19275 -10.18890 -10.18826 -10.18788 -10.18770
 Alpha  occ. eigenvalues --  -10.18699 -10.18697 -10.18630 -10.18609 -10.18609
 Alpha  occ. eigenvalues --  -10.18594 -10.18583 -10.18557 -10.18556 -10.18551
 Alpha  occ. eigenvalues --  -10.18498 -10.18481 -10.18476 -10.18466 -10.18460
 Alpha  occ. eigenvalues --  -10.18435 -10.18430 -10.18381 -10.18356 -10.18348
 Alpha  occ. eigenvalues --  -10.18188 -10.18050 -10.17995 -10.17589  -1.01754
 Alpha  occ. eigenvalues --   -0.90503  -0.87181  -0.86873  -0.85890  -0.85345
 Alpha  occ. eigenvalues --   -0.84857  -0.84387  -0.83666  -0.81001  -0.79376
 Alpha  occ. eigenvalues --   -0.77064  -0.76546  -0.76347  -0.76057  -0.74922
 Alpha  occ. eigenvalues --   -0.74295  -0.74068  -0.73934  -0.73849  -0.73769
 Alpha  occ. eigenvalues --   -0.73416  -0.71529  -0.70987  -0.69318  -0.64966
 Alpha  occ. eigenvalues --   -0.63951  -0.62916  -0.62423  -0.61932  -0.61643
 Alpha  occ. eigenvalues --   -0.60355  -0.60267  -0.60003  -0.59616  -0.59131
 Alpha  occ. eigenvalues --   -0.58931  -0.57716  -0.57437  -0.56738  -0.54667
 Alpha  occ. eigenvalues --   -0.54264  -0.53815  -0.51949  -0.51762  -0.50881
 Alpha  occ. eigenvalues --   -0.50579  -0.49625  -0.49007  -0.48145  -0.47946
 Alpha  occ. eigenvalues --   -0.47086  -0.46476  -0.46358  -0.45608  -0.45302
 Alpha  occ. eigenvalues --   -0.45096  -0.44428  -0.44109  -0.44037  -0.43944
 Alpha  occ. eigenvalues --   -0.43833  -0.43505  -0.43199  -0.42826  -0.42341
 Alpha  occ. eigenvalues --   -0.42225  -0.41659  -0.41588  -0.41545  -0.41396
 Alpha  occ. eigenvalues --   -0.41368  -0.41101  -0.40854  -0.40499  -0.39374
 Alpha  occ. eigenvalues --   -0.38382  -0.38159  -0.37647  -0.36946  -0.36624
 Alpha  occ. eigenvalues --   -0.36255  -0.36183  -0.36068  -0.35601  -0.35433
 Alpha  occ. eigenvalues --   -0.35228  -0.35081  -0.34843  -0.34694  -0.34173
 Alpha  occ. eigenvalues --   -0.33752  -0.33726  -0.33230  -0.33101  -0.32395
 Alpha  occ. eigenvalues --   -0.31882  -0.29588  -0.29155  -0.28196  -0.27678
 Alpha  occ. eigenvalues --   -0.27504  -0.26895  -0.25985  -0.25736  -0.25356
 Alpha  occ. eigenvalues --   -0.25205  -0.24960  -0.24304  -0.24092  -0.23857
 Alpha  occ. eigenvalues --   -0.23570  -0.21320  -0.20227  -0.18504
 Alpha virt. eigenvalues --   -0.05175  -0.03026  -0.02812  -0.02261  -0.02044
 Alpha virt. eigenvalues --   -0.01368  -0.00827  -0.00276   0.00565   0.00860
 Alpha virt. eigenvalues --    0.01160   0.01329   0.02219   0.04494   0.05576

 Mulliken charges:
               1
     1  C   -0.127316
     2  C   -0.133433
     3  C   -0.155741
     4  C    0.075079
     5  C   -0.033368
     6  C   -0.033708
     7  C    0.073514
     8  C   -0.165905
     9  C   -0.134613
    10  C   -0.127648
    11  C   -0.133337
    12  C   -0.155503
    13  C    0.086388
    14  C   -0.167932
    15  C   -0.161148
    16  C    0.102995
    17  C    0.430113
    18  N   -0.569939
    19  C    0.145017
    20  C    0.084263
    21  C   -0.185160
    22  C   -0.137051
    23  C   -0.130507
    24  C   -0.211119
    25  C    0.075680
    26  C    0.050547
    27  C   -0.206465
    28  C   -0.131538
    29  C   -0.140102
    30  C   -0.206198
    31  C    0.151628
    32  C    0.239017
    33  N   -0.687478
    34  C    0.193711
    35  C   -0.113231
    36  C   -0.140989
    37  C   -0.118362
    38  C   -0.138699
    39  C   -0.135944
    40  C   -0.176421
    41  C   -0.187592
    42  C    0.072748
    43  C   -0.155601
    44  C   -0.131584
    45  C   -0.126126
    46  C   -0.133974
    47  C   -0.166264
    48  C   -0.166789
    49  C   -0.134468
    50  H    0.128124
    51  H    0.129636
    52  H    0.136856
    53  H    0.136180
    54  H    0.127334
    55  H    0.127527
    56  H    0.129795
    57  H    0.137242
    58  H    0.140386
    59  H    0.159466
    60  H    0.154414
    61  H    0.127106
    62  H    0.124071
    63  H    0.130047
    64  H    0.133477
    65  H    0.126579
    66  H    0.126627
    67  H    0.148877
    68  H    0.155427
    69  H    0.144786
    70  H    0.141269
    71  H    0.144977
    72  H    0.156247
    73  H    0.144054
    74  H    0.138520
    75  H    0.136139
    76  H    0.131531
    77  H    0.129449
    78  H    0.129560
    79  H    0.137532
    80  H    0.138106
    81  H    0.129210
 Sum of Mulliken charges =  -0.00000

 Dipole moment (field-independent basis, Debye):
    X=             -0.8439    Y=             -3.6822    Z=              0.6431  Tot=              3.8320
 Quadrupole moment (field-independent basis, Debye-Ang):
   XX=           -262.0986   YY=           -250.4850   ZZ=           -270.4196
   XY=             -7.0931   XZ=              3.4244   YZ=             -1.8700

 1\1\GINC-NODE60\FOpt\RB3LYP\6-31G(d)\C47H32N2\WYKGROUP\05-Nov-2022\0\\
 #p b3lyp/6-31g(d) opt SCF=XQC\\Gaussian input prepared by ASE\\0,1\C,-
 8.6494834331,0.3534816225,0.5795222381\C,-7.7027862777,0.5281543971,1.
 5907924525\C,-6.3458583191,0.3582846383,1.3202038093\C,-5.9047081566,0
 .0080551761,0.0327372263\C,-4.4554836935,-0.2153074021,-0.2583583705\C
 ,-3.4845982991,0.6750843681,0.1067219512\C,-3.798419817,2.0568848331,0
 .5856947139\C,-3.1937449092,2.5637224607,1.7495175111\C,-3.4623378156,
 3.8581089755,2.1917585704\C,-4.3243653494,4.6835982987,1.4666688378\C,

 Normal termination of Gaussian 16 at Sat Nov  5 01:01:37 2022.
