 Gaussian 16, Revision B.01,
 Gaussian 16:  ES64L-G16RevB.01 20-Dec-2017

 -------------------------------------------------------------------
 #p b3lyp/6-31g(d) 6D 10F nosymm GFInput td=(50-50,nstate=2) SCF=XQC
 -------------------------------------------------------------------

 ------------------------------
 Gaussian input prepared by ASE
 ------------------------------
 Symbolic Z-matrix:
 Charge =  0 Multiplicity = 1

                          Input orientation:
 ---------------------------------------------------------------------
 Center     Atomic      Atomic             Coordinates (Angstroms)
 Number     Number       Type             X           Y           Z
 ---------------------------------------------------------------------
      1          6           0       -8.649483    0.353482    0.579522
      2          6           0       -7.702786    0.528154    1.590792
      3          6           0       -6.345858    0.358285    1.320204
      4          6           0       -5.904708    0.008055    0.032737
      5          6           0       -4.455484   -0.215307   -0.258358
      6          6           0       -3.484598    0.675084    0.106722
      7          6           0       -3.798420    2.056885    0.585695
      8          6           0       -3.193745    2.563722    1.749518
      9          6           0       -3.462338    3.858109    2.191759
     10          6           0       -4.324365    4.683598    1.466669
     11          6           0       -4.915144    4.201784    0.296980
     12          6           0       -4.655634    2.902894   -0.137999
     13          6           0       -2.028470    0.349174    0.057410
     14          6           0       -1.517299   -0.842477    0.603098
     15          6           0       -0.156294   -1.114547    0.589503
     16          6           0        0.762055   -0.205839    0.028930
     17          6           0        2.180916   -0.598534    0.027323
     18          7           0        2.558887   -1.863943    0.045918
     19          6           0        3.927197   -1.849787    0.055894
     20          6           0        4.794677   -2.992602    0.055621
     21          6           0        4.280369   -4.304494    0.034375
     22          6           0        5.134580   -5.391147    0.022417
     23          6           0        6.524595   -5.181667    0.030151
     24          6           0        7.040532   -3.896847    0.053046
     25          6           0        6.198467   -2.760333    0.069300
     26          6           0        6.715619   -1.385871    0.108978
     27          6           0        8.103044   -1.126560    0.161185
     28          6           0        8.613561    0.158343    0.221468
     29          6           0        7.739840    1.254477    0.239110
     30          6           0        6.373339    1.047780    0.185908
     31          6           0        5.828145   -0.255443    0.110678
     32          6           0        4.420081   -0.549897    0.053727
     33          7           0        3.281710    0.262132    0.025364
     34          6           0        3.243501    1.694460    0.060030
     35          6           0        2.941864    2.352093    1.254658
     36          6           0        2.895752    3.746666    1.281984
     37          6           0        3.155083    4.480863    0.123188
     38          6           0        3.459931    3.818537   -1.068961
     39          6           0        3.502034    2.424859   -1.104734
     40          6           0        0.256536    0.984750   -0.520847
     41          6           0       -1.108130    1.257405   -0.491850
     42          6           0       -4.153405   -1.487238   -0.983068
     43          6           0       -3.344930   -1.498216   -2.132401
     44          6           0       -3.095623   -2.684215   -2.821173
     45          6           0       -3.648660   -3.886209   -2.375544
     46          6           0       -4.463401   -3.889859   -1.241356
     47          6           0       -4.722110   -2.701755   -0.559967
     48          6           0       -6.871675   -0.186418   -0.969580
     49          6           0       -8.227622   -0.004358   -0.702744
     50          1           0       -9.707148    0.487604    0.790444
     51          1           0       -8.020853    0.793614    2.595698
     52          1           0       -5.615830    0.494309    2.111948
     53          1           0       -2.512874    1.931048    2.312211
     54          1           0       -2.994604    4.223773    3.102394
     55          1           0       -4.528956    5.695302    1.806926
     56          1           0       -5.578394    4.839521   -0.281703
     57          1           0       -5.118926    2.534717   -1.048082
     58          1           0       -2.199839   -1.558916    1.048916
     59          1           0        0.222694   -2.037941    1.013382
     60          1           0        3.202594   -4.432008    0.023674
     61          1           0        4.734900   -6.401560    0.004567
     62          1           0        7.202357   -6.031124    0.017759
     63          1           0        8.118187   -3.777508    0.056716
     64          1           0        8.801325   -1.955528    0.161316
     65          1           0        9.688425    0.312014    0.261862
     66          1           0        8.130006    2.266995    0.297831
     67          1           0        5.713004    1.903834    0.210370
     68          1           0        2.745138    1.768898    2.148723
     69          1           0        2.658765    4.258189    2.210469
     70          1           0        3.119615    5.566320    0.147879
     71          1           0        3.662175    4.386231   -1.972784
     72          1           0        3.736274    1.895809   -2.023583
     73          1           0        0.919487    1.701172   -0.989593
     74          1           0       -1.469840    2.189068   -0.917369
     75          1           0       -2.912172   -0.567225   -2.485137
     76          1           0       -2.469364   -2.668191   -3.709302
     77          1           0       -3.451341   -4.811125   -2.910864
     78          1           0       -4.902167   -4.819424   -0.887936
     79          1           0       -5.366600   -2.710143    0.314593
     80          1           0       -6.551937   -0.478214   -1.966013
     81          1           0       -8.956236   -0.147541   -1.496597
 ---------------------------------------------------------------------

 SCF Done:  E(RB3LYP) =  -1919.82196197     A.U. after   16 cycles

 Excitation energies and oscillator strengths:

 Excited state symmetry could not be determined.
 Excited State   1:      Triplet-?Sym    2.3238 eV  533.55 nm  f=0.0000  <S**2>=2.000
     163 ->165         0.34349
     163 ->166         0.17104
     164 ->165         0.54887
 This state for optimization and/or second-order correction.
 Total Energy, E(TD-HF/TD-DFT) =  -1919.73656529
 Copying the excited state density for this state as the 1-particle RhoCI density.

 Excited state symmetry could not be determined.
 Excited State   2:      Triplet-?Sym    2.7140 eV  456.83 nm  f=0.0000  <S**2>=2.000
     162 ->167        -0.16896
     162 ->169         0.11062
     163 ->165         0.33745
     163 ->170         0.12885
     164 ->165        -0.19942
     164 ->166         0.41973
     164 ->169         0.14896

 Excited state symmetry could not be determined.
 Excited State   3:      Singlet-?Sym    3.2160 eV  385.52 nm  f=0.8121  <S**2>=0.000
     164 ->165         0.70028

 Excited state symmetry could not be determined.
 Excited State   4:      Singlet-?Sym    3.6741 eV  337.45 nm  f=0.0718  <S**2>=0.000
     163 ->165         0.58110
     164 ->166        -0.19286
     164 ->167         0.30461

 Alpha  occ. eigenvalues --  -14.39625 -14.30920 -10.25075 -10.24644 -10.21983
 Alpha  occ. eigenvalues --  -10.21051 -10.20995 -10.20961 -10.20945 -10.20912
 Alpha  occ. eigenvalues --  -10.20440 -10.20203 -10.20069 -10.19996 -10.19985
 Alpha  occ. eigenvalues --  -10.19855 -10.19639 -10.19572 -10.19476 -10.19386
 Alpha  occ. eigenvalues --  -10.19275 -10.18890 -10.18826 -10.18788 -10.18770
 Alpha  occ. eigenvalues --  -10.18699 -10.18697 -10.18630 -10.18609 -10.18609
 Alpha  occ. eigenvalues --  -10.18594 -10.18583 -10.18557 -10.18556 -10.18551
 Alpha  occ. eigenvalues --  -10.18498 -10.18481 -10.18476 -10.18466 -10.18460
 Alpha  occ. eigenvalues --  -10.18435 -10.18430 -10.18381 -10.18356 -10.18348
 Alpha  occ. eigenvalues --  -10.18188 -10.18050 -10.17995 -10.17589  -1.01754
 Alpha  occ. eigenvalues --   -0.90503  -0.87181  -0.86873  -0.85890  -0.85345
 Alpha  occ. eigenvalues --   -0.84857  -0.84387  -0.83666  -0.81001  -0.79376
 Alpha  occ. eigenvalues --   -0.77064  -0.76546  -0.76347  -0.76057  -0.74922
 Alpha  occ. eigenvalues --   -0.74295  -0.74068  -0.73934  -0.73848  -0.73769
 Alpha  occ. eigenvalues --   -0.73416  -0.71529  -0.70986  -0.69318  -0.64966
 Alpha  occ. eigenvalues --   -0.63951  -0.62916  -0.62423  -0.61932  -0.61643
 Alpha  occ. eigenvalues --   -0.60355  -0.60267  -0.60003  -0.59616  -0.59131
 Alpha  occ. eigenvalues --   -0.58931  -0.57716  -0.57437  -0.56738  -0.54667
 Alpha  occ. eigenvalues --   -0.54264  -0.53815  -0.51949  -0.51762  -0.50881
 Alpha  occ. eigenvalues --   -0.50579  -0.49625  -0.49007  -0.48145  -0.47946
 Alpha  occ. eigenvalues --   -0.47086  -0.46476  -0.46358  -0.45608  -0.45302
 Alpha  occ. eigenvalues --   -0.45096  -0.44428  -0.44109  -0.44037  -0.43944
 Alpha  occ. eigenvalues --   -0.43833  -0.43505  -0.43199  -0.42826  -0.42341
 Alpha  occ. eigenvalues --   -0.42225  -0.41659  -0.41588  -0.41545  -0.41395
 Alpha  occ. eigenvalues --   -0.41368  -0.41101  -0.40854  -0.40499  -0.39374
 Alpha  occ. eigenvalues --   -0.38382  -0.38159  -0.37647  -0.36946  -0.36624
 Alpha  occ. eigenvalues --   -0.36255  -0.36183  -0.36068  -0.35601  -0.35433
 Alpha  occ. eigenvalues --   -0.35228  -0.35081  -0.34843  -0.34694  -0.34173
 Alpha  occ. eigenvalues --   -0.33752  -0.33726  -0.33230  -0.33101  -0.32395
 Alpha  occ. eigenvalues --   -0.31882  -0.29588  -0.29155  -0.28196  -0.27678
 Alpha  occ. eigenvalues --   -0.27504  -0.26895  -0.25985  -0.25736  -0.25356
 Alpha  occ. eigenvalues --   -0.25205  -0.24960  -0.24304  -0.24092  -0.23856
 Alpha  occ. eigenvalues --   -0.23570  -0.21320  -0.20227  -0.18504
 Alpha virt. eigenvalues --   -0.05175  -0.03026  -0.02813  -0.02261  -0.02044
 Alpha virt. eigenvalues --   -0.01368  -0.00827  -0.00276   0.00565   0.00860
 Alpha virt. eigenvalues --    0.01160   0.01329   0.02219   0.04494   0.05576

 Mulliken charges:
               1
     1  C   -0.127314
     2  C   -0.133430
     3  C   -0.155759
     4  C    0.075105
     5  C   -0.033389
     6  C   -0.033714
     7  C    0.073574
     8  C   -0.165914
     9  C   -0.134622
    10  C   -0.127636
    11  C   -0.133335
    12  C   -0.155536
    13  C    0.086367
    14  C   -0.167922
    15  C   -0.161144
    16  C    0.103009
    17  C    0.430105
    18  N   -0.569939
    19  C    0.145012
    20  C    0.084254
    21  C   -0.185157
    22  C   -0.137052
    23  C   -0.130509
    24  C   -0.211118
    25  C    0.075685
    26  C    0.050547
    27  C   -0.206467
    28  C   -0.131536
    29  C   -0.140105
    30  C   -0.206202
    31  C    0.151630
    32  C    0.239021
    33  N   -0.687457
    34  C    0.193666
    35  C   -0.113222
    36  C   -0.140989
    37  C   -0.118349
    38  C   -0.138712
    39  C   -0.135922
    40  C   -0.176413
    41  C   -0.187597
    42  C    0.072767
    43  C   -0.155618
    44  C   -0.131576
    45  C   -0.126127
    46  C   -0.133972
    47  C   -0.166265
    48  C   -0.166796
    49  C   -0.134469
    50  H    0.128123
    51  H    0.129635
    52  H    0.136857
    53  H    0.136179
    54  H    0.127334
    55  H    0.127525
    56  H    0.129795
    57  H    0.137243
    58  H    0.140386
    59  H    0.159467
    60  H    0.154416
    61  H    0.127106
    62  H    0.124071
    63  H    0.130047
    64  H    0.133477
    65  H    0.126579
    66  H    0.126628
    67  H    0.148874
    68  H    0.155426
    69  H    0.144786
    70  H    0.141269
    71  H    0.144979
    72  H    0.156246
    73  H    0.144051
    74  H    0.138518
    75  H    0.136140
    76  H    0.131530
    77  H    0.129449
    78  H    0.129560
    79  H    0.137531
    80  H    0.138105
    81  H    0.129211
 Sum of Mulliken charges =  -0.00000

 Dipole moment (field-independent basis, Debye):
    X=             -0.3238    Y=              3.8176    Z=              0.0723  Tot=              3.8320
 Quadrupole moment (field-independent basis, Debye-Ang):
   XX=           -259.9113   YY=           -253.4001   ZZ=           -270.4017
   XY=              9.5562   XZ=             -1.6692   YZ=              2.2880

 Normal termination of Gaussian 16 at Sat Nov  5 10:55:31 2022.
