 Gaussian 16, Revision B.01,
 Gaussian 16:  ES64L-G16RevB.01 20-Dec-2017

 -------------------------------------------------------------------
 #p b3lyp/6-31g(d) 6D 10F nosymm GFInput td=(50-50,nstate=2) SCF=XQC
 -------------------------------------------------------------------

 ------------------------------
 Gaussian input prepared by ASE
 ------------------------------
 Symbolic Z-matrix:
 Charge =  0 Multiplicity = 1

                          Input orientation:
 ---------------------------------------------------------------------
 Center     Atomic      Atomic             Coordinates (Angstroms)
 Number     Number       Type             X           Y           Z
 ---------------------------------------------------------------------
      1          8           0       -2.614900   -1.795143    2.109183
      2          6           0       -3.146341   -1.072495    1.263495
      3          6           0       -4.588604   -0.950964    1.104438
      4          6           0       -5.159154   -0.157915    0.157550
      5          6           0       -6.607182    0.016456   -0.069489
      6          6           0       -7.088244    1.139419   -0.763810
      7          6           0       -8.455813    1.314777   -0.964253
      8          6           0       -9.365249    0.372566   -0.481197
      9          6           0       -8.896132   -0.752136    0.201559
     10          6           0       -7.530456   -0.931572    0.403650
     11          8           0       -4.411116    0.593192   -0.694348
     12          6           0       -3.038223    0.559316   -0.609993
     13          6           0       -2.325265    1.357646   -1.511745
     14          6           0       -0.943100    1.356356   -1.471105
     15          6           0       -0.230856    0.559585   -0.537067
     16          7           0        1.153396    0.625628   -0.512792
     17          6           0        1.939056   -0.374249    0.188214
     18          6           0        3.393734   -0.182283   -0.128414
     19          6           0        4.517605   -0.428504    0.625390
     20          7           0        5.558596   -0.100822   -0.191873
     21          6           0        6.957361   -0.161170    0.068157
     22          6           0        7.431391   -0.032162    1.376482
     23          6           0        8.802619   -0.109307    1.618316
     24          6           0        9.695679   -0.296313    0.562413
     25          6           0        9.210727   -0.408761   -0.742657
     26          6           0        7.842397   -0.348726   -0.997770
     27          7           0        5.097057    0.335430   -1.391180
     28          7           0        3.796306    0.279584   -1.348996
     29          6           0       -0.965141   -0.234291    0.349411
     30          6           0       -2.366721   -0.237487    0.320605
     31          1           0       -5.209768   -1.511011    1.792322
     32          1           0       -6.385066    1.874776   -1.137905
     33          1           0       -8.811283    2.191850   -1.498182
     34          1           0      -10.431351    0.509880   -0.639761
     35          1           0       -9.595130   -1.497730    0.570245
     36          1           0       -7.178366   -1.823062    0.912613
     37          1           0       -2.865550    1.965494   -2.230591
     38          1           0       -0.386185    1.980348   -2.166056
     39          1           0        1.597148    0.950561   -1.363985
     40          1           0        1.784196   -0.284260    1.271298
     41          1           0        1.626075   -1.398074   -0.086226
     42          1           0        4.656316   -0.819082    1.620770
     43          1           0        6.741765    0.148342    2.194956
     44          1           0        9.170674   -0.009577    2.635329
     45          1           0       10.763209   -0.350675    0.754673
     46          1           0        9.899755   -0.553246   -1.569800
     47          1           0        7.450725   -0.441683   -2.003786
     48          1           0       -0.490592   -0.868507    1.089392
 ---------------------------------------------------------------------

 SCF Done:  E(RB3LYP) =  -1294.81675731     A.U. after   16 cycles

 Excitation energies and oscillator strengths:

 Excited state symmetry could not be determined.
 Excited State   1:      Triplet-?Sym    2.6343 eV  470.65 nm  f=0.0000  <S**2>=2.000
     101 ->104         0.22721
     102 ->104        -0.14507
     103 ->104         0.60699
     103 ->107        -0.19000
 This state for optimization and/or second-order correction.
 Total Energy, E(TD-HF/TD-DFT) =  -1294.71994732
 Copying the excited state density for this state as the 1-particle RhoCI density.

 Excited state symmetry could not be determined.
 Excited State   2:      Triplet-?Sym    2.9382 eV  421.97 nm  f=0.0000  <S**2>=2.000
      98 ->108        -0.14144
     101 ->104         0.47573
     101 ->107         0.12754
     102 ->104        -0.35163
     103 ->104        -0.22644
     103 ->107         0.17073

 Excited state symmetry could not be determined.
 Excited State   3:      Singlet-?Sym    3.3090 eV  374.69 nm  f=0.1141  <S**2>=0.000
     103 ->104         0.69996

 Excited state symmetry could not be determined.
 Excited State   4:      Singlet-?Sym    3.5067 eV  353.57 nm  f=0.0011  <S**2>=0.000
     101 ->104         0.33535
     102 ->104         0.59614
     102 ->107        -0.10856

 Alpha  occ. eigenvalues --  -19.21715 -19.10175 -14.44242 -14.39812 -14.36324
 Alpha  occ. eigenvalues --  -14.34413 -10.27215 -10.25734 -10.25213 -10.25198
 Alpha  occ. eigenvalues --  -10.24344 -10.23548 -10.23056 -10.22971 -10.21651
 Alpha  occ. eigenvalues --  -10.21254 -10.21098 -10.21075 -10.21018 -10.20876
 Alpha  occ. eigenvalues --  -10.20050 -10.19921 -10.19818 -10.19798 -10.19745
 Alpha  occ. eigenvalues --  -10.19736 -10.19649 -10.19296 -10.18346 -10.18277
 Alpha  occ. eigenvalues --   -1.10760  -1.10680  -1.00076  -0.94582  -0.93227
 Alpha  occ. eigenvalues --   -0.86844  -0.86637  -0.85210  -0.82361  -0.80491
 Alpha  occ. eigenvalues --   -0.77505  -0.76917  -0.76684  -0.75398  -0.74454
 Alpha  occ. eigenvalues --   -0.73978  -0.70585  -0.66722  -0.65188  -0.64702
 Alpha  occ. eigenvalues --   -0.63659  -0.61251  -0.60831  -0.60303  -0.58791
 Alpha  occ. eigenvalues --   -0.58389  -0.56243  -0.55153  -0.53726  -0.53177
 Alpha  occ. eigenvalues --   -0.51202  -0.49748  -0.49355  -0.48763  -0.47743
 Alpha  occ. eigenvalues --   -0.47331  -0.46537  -0.46330  -0.45847  -0.45616
 Alpha  occ. eigenvalues --   -0.44756  -0.44229  -0.44152  -0.44059  -0.43092
 Alpha  occ. eigenvalues --   -0.42902  -0.41446  -0.41229  -0.40098  -0.39072
 Alpha  occ. eigenvalues --   -0.38719  -0.38242  -0.37997  -0.37783  -0.37218
 Alpha  occ. eigenvalues --   -0.36860  -0.35923  -0.35782  -0.35191  -0.34017
 Alpha  occ. eigenvalues --   -0.33591  -0.32458  -0.30649  -0.28093  -0.27507
 Alpha  occ. eigenvalues --   -0.27144  -0.26632  -0.25809  -0.25243  -0.24909
 Alpha  occ. eigenvalues --   -0.22961  -0.22766  -0.19425
 Alpha virt. eigenvalues --   -0.05659  -0.04495  -0.02208  -0.02109  -0.00692
 Alpha virt. eigenvalues --    0.01262   0.01670   0.03308   0.03829   0.07482
 Alpha virt. eigenvalues --    0.08888   0.09622   0.09950   0.10332   0.11095

 Mulliken charges:
               1
     1  O   -0.532700
     2  C    0.426796
     3  C   -0.274916
     4  C    0.331232
     5  C    0.072875
     6  C   -0.159433
     7  C   -0.133703
     8  C   -0.120201
     9  C   -0.138230
    10  C   -0.164877
    11  O   -0.543097
    12  C    0.290437
    13  C   -0.185908
    14  C   -0.183932
    15  C    0.381214
    16  N   -0.689691
    17  C   -0.161331
    18  C    0.242725
    19  C   -0.009168
    20  N   -0.362541
    21  C    0.326122
    22  C   -0.162448
    23  C   -0.140744
    24  C   -0.118303
    25  C   -0.141111
    26  C   -0.142434
    27  N   -0.067881
    28  N   -0.350787
    29  C   -0.258293
    30  C    0.058765
    31  H    0.151132
    32  H    0.151543
    33  H    0.136446
    34  H    0.136055
    35  H    0.137649
    36  H    0.146034
    37  H    0.145250
    38  H    0.135616
    39  H    0.346173
    40  H    0.165416
    41  H    0.165290
    42  H    0.183210
    43  H    0.146353
    44  H    0.143642
    45  H    0.141054
    46  H    0.145721
    47  H    0.176123
    48  H    0.158852
 Sum of Mulliken charges =  -0.00000

 Dipole moment (field-independent basis, Debye):
    X=              2.7520    Y=              0.7458    Z=              0.0168  Tot=              2.8513
 Quadrupole moment (field-independent basis, Debye-Ang):
   XX=            -99.4228   YY=           -173.2250   ZZ=           -171.7241
   XY=            -11.6304   XZ=             20.3129   YZ=             -0.1166

 Normal termination of Gaussian 16 at Sat Nov  5 10:18:43 2022.
