 Gaussian 16, Revision B.01,
 Gaussian 16:  ES64L-G16RevB.01 20-Dec-2017

 -----------------------------
 #p b3lyp/6-31g(d) opt SCF=XQC
 -----------------------------

 ------------------------------
 Gaussian input prepared by ASE
 ------------------------------
 Symbolic Z-matrix:
 Charge =  0 Multiplicity = 1

 SCF Done:  E(RB3LYP) =  -1294.81032033     A.U. after   16 cycles
 SCF Done:  E(RB3LYP) =  -1294.81576250     A.U. after   12 cycles
 SCF Done:  E(RB3LYP) =  -1294.81606973     A.U. after   11 cycles
 SCF Done:  E(RB3LYP) =  -1294.81619989     A.U. after   11 cycles
 SCF Done:  E(RB3LYP) =  -1294.81628085     A.U. after   11 cycles
 SCF Done:  E(RB3LYP) =  -1294.81636557     A.U. after   11 cycles
 SCF Done:  E(RB3LYP) =  -1294.81646462     A.U. after   12 cycles
 SCF Done:  E(RB3LYP) =  -1294.81658013     A.U. after   11 cycles
 SCF Done:  E(RB3LYP) =  -1294.81670634     A.U. after   12 cycles
 SCF Done:  E(RB3LYP) =  -1294.81672453     A.U. after   11 cycles
 SCF Done:  E(RB3LYP) =  -1294.81673202     A.U. after   10 cycles
 SCF Done:  E(RB3LYP) =  -1294.81675323     A.U. after   11 cycles
 SCF Done:  E(RB3LYP) =  -1294.81675372     A.U. after   10 cycles
 SCF Done:  E(RB3LYP) =  -1294.81675537     A.U. after    9 cycles
 SCF Done:  E(RB3LYP) =  -1294.81675648     A.U. after    9 cycles
 SCF Done:  E(RB3LYP) =  -1294.81675695     A.U. after    8 cycles
 SCF Done:  E(RB3LYP) =  -1294.81675745     A.U. after    8 cycles
 SCF Done:  E(RB3LYP) =  -1294.81675772     A.U. after    8 cycles
 SCF Done:  E(RB3LYP) =  -1294.81675777     A.U. after    7 cycles
 SCF Done:  E(RB3LYP) =  -1294.81675779     A.U. after    7 cycles
 Optimization completed.
    -- Stationary point found.

                         Standard orientation:
 ---------------------------------------------------------------------
 Center     Atomic      Atomic             Coordinates (Angstroms)
 Number     Number       Type             X           Y           Z
 ---------------------------------------------------------------------
      1          8           0       -2.507538    2.858641    0.185966
      2          6           0       -3.061739    1.760728    0.100611
      3          6           0       -4.507753    1.589768    0.103732
      4          6           0       -5.103527    0.369414    0.021038
      5          6           0       -6.557058    0.112533    0.021341
      6          6           0       -7.065478   -1.098876   -0.477203
      7          6           0       -8.438236   -1.336435   -0.493768
      8          6           0       -9.325726   -0.374047   -0.009673
      9          6           0       -8.829371    0.829263    0.497136
     10          6           0       -7.458417    1.070588    0.516045
     11          8           0       -4.379077   -0.776055   -0.090883
     12          6           0       -3.004830   -0.715608   -0.120699
     13          6           0       -2.316876   -1.928437   -0.241373
     14          6           0       -0.934464   -1.922684   -0.271946
     15          6           0       -0.197132   -0.713404   -0.179489
     16          7           0        1.186050   -0.760464   -0.254966
     17          6           0        1.997071    0.377956    0.138314
     18          6           0        3.444153   -0.020346    0.160697
     19          6           0        4.581646    0.711583   -0.088949
     20          7           0        5.606378   -0.163217    0.119878
     21          6           0        7.009216    0.054428    0.008187
     22          6           0        7.498092    1.028005   -0.867146
     23          6           0        8.873438    1.241338   -0.954402
     24          6           0        9.755595    0.478507   -0.188016
     25          6           0        9.255570   -0.501936    0.672062
     26          6           0        7.883229   -0.716031    0.780949
     27          7           0        5.122146   -1.380623    0.473592
     28          7           0        3.823145   -1.287447    0.501322
     29          6           0       -0.906680    0.484878   -0.053332
     30          6           0       -2.308276    0.491729   -0.025967
     31          1           0       -5.110628    2.487781    0.156602
     32          1           0       -6.379388   -1.847492   -0.856691
     33          1           0       -8.814969   -2.276231   -0.888170
     34          1           0      -10.395914   -0.561465   -0.021727
     35          1           0       -9.511185    1.579426    0.888063
     36          1           0       -7.085152    1.998709    0.936795
     37          1           0       -2.876383   -2.856127   -0.308237
     38          1           0       -0.396965   -2.862656   -0.372066
     39          1           0        1.613276   -1.649056   -0.020640
     40          1           0        1.854897    1.204835   -0.569646
     41          1           0        1.697361    0.763145    1.129927
     42          1           0        4.739712    1.743648   -0.358075
     43          1           0        6.816335    1.598388   -1.489991
     44          1           0        9.253043    1.998473   -1.634384
     45          1           0       10.826290    0.644475   -0.262899
     46          1           0        9.936027   -1.100466    1.270847
     47          1           0        7.480045   -1.467764    1.449123
     48          1           0       -0.412188    1.446478    0.022833
 ---------------------------------------------------------------------

 The electronic state is 1-A.
 Alpha  occ. eigenvalues --  -19.21715 -19.10175 -14.44242 -14.39812 -14.36324
 Alpha  occ. eigenvalues --  -14.34413 -10.27215 -10.25734 -10.25213 -10.25198
 Alpha  occ. eigenvalues --  -10.24344 -10.23548 -10.23056 -10.22971 -10.21651
 Alpha  occ. eigenvalues --  -10.21254 -10.21098 -10.21075 -10.21018 -10.20876
 Alpha  occ. eigenvalues --  -10.20050 -10.19921 -10.19818 -10.19798 -10.19745
 Alpha  occ. eigenvalues --  -10.19736 -10.19650 -10.19296 -10.18346 -10.18277
 Alpha  occ. eigenvalues --   -1.10760  -1.10680  -1.00076  -0.94582  -0.93227
 Alpha  occ. eigenvalues --   -0.86844  -0.86638  -0.85210  -0.82361  -0.80491
 Alpha  occ. eigenvalues --   -0.77505  -0.76917  -0.76684  -0.75398  -0.74454
 Alpha  occ. eigenvalues --   -0.73978  -0.70585  -0.66722  -0.65188  -0.64702
 Alpha  occ. eigenvalues --   -0.63659  -0.61251  -0.60831  -0.60303  -0.58791
 Alpha  occ. eigenvalues --   -0.58389  -0.56243  -0.55153  -0.53726  -0.53177
 Alpha  occ. eigenvalues --   -0.51202  -0.49748  -0.49355  -0.48763  -0.47743
 Alpha  occ. eigenvalues --   -0.47331  -0.46537  -0.46330  -0.45847  -0.45616
 Alpha  occ. eigenvalues --   -0.44756  -0.44229  -0.44152  -0.44059  -0.43092
 Alpha  occ. eigenvalues --   -0.42902  -0.41446  -0.41229  -0.40098  -0.39072
 Alpha  occ. eigenvalues --   -0.38719  -0.38242  -0.37997  -0.37783  -0.37218
 Alpha  occ. eigenvalues --   -0.36860  -0.35923  -0.35782  -0.35191  -0.34017
 Alpha  occ. eigenvalues --   -0.33591  -0.32458  -0.30649  -0.28093  -0.27507
 Alpha  occ. eigenvalues --   -0.27144  -0.26632  -0.25809  -0.25243  -0.24909
 Alpha  occ. eigenvalues --   -0.22961  -0.22766  -0.19425
 Alpha virt. eigenvalues --   -0.05659  -0.04495  -0.02208  -0.02109  -0.00692
 Alpha virt. eigenvalues --    0.01262   0.01670   0.03308   0.03829   0.07482
 Alpha virt. eigenvalues --    0.08888   0.09622   0.09950   0.10332   0.11095

 Mulliken charges:
               1
     1  O   -0.532701
     2  C    0.426800
     3  C   -0.274923
     4  C    0.331246
     5  C    0.072878
     6  C   -0.159433
     7  C   -0.133703
     8  C   -0.120199
     9  C   -0.138229
    10  C   -0.164882
    11  O   -0.543094
    12  C    0.290423
    13  C   -0.185914
    14  C   -0.183934
    15  C    0.381221
    16  N   -0.689688
    17  C   -0.161330
    18  C    0.242727
    19  C   -0.009173
    20  N   -0.362526
    21  C    0.326088
    22  C   -0.162434
    23  C   -0.140751
    24  C   -0.118297
    25  C   -0.141125
    26  C   -0.142414
    27  N   -0.067880
    28  N   -0.350787
    29  C   -0.258296
    30  C    0.058764
    31  H    0.151132
    32  H    0.151543
    33  H    0.136446
    34  H    0.136055
    35  H    0.137649
    36  H    0.146033
    37  H    0.145252
    38  H    0.135617
    39  H    0.346172
    40  H    0.165414
    41  H    0.165290
    42  H    0.183209
    43  H    0.146353
    44  H    0.143643
    45  H    0.141054
    46  H    0.145722
    47  H    0.176123
    48  H    0.158853
 Sum of Mulliken charges =  -0.00000

 Dipole moment (field-independent basis, Debye):
    X=              2.7394    Y=             -0.4797    Z=             -0.6290  Tot=              2.8514
 Quadrupole moment (field-independent basis, Debye-Ang):
   XX=            -98.2707   YY=           -173.0835   ZZ=           -172.7335
   XY=             21.8813   XZ=             -3.0910   YZ=             -0.7562

 Normal termination of Gaussian 16 at Sat Nov  5 00:27:53 2022.
