 Gaussian 16, Revision B.01,
 Gaussian 16:  ES64L-G16RevB.01 20-Dec-2017

 -------------------------------------------------------------------
 #p b3lyp/6-31g(d) 6D 10F nosymm GFInput td=(50-50,nstate=2) SCF=XQC
 -------------------------------------------------------------------

 ------------------------------
 Gaussian input prepared by ASE
 ------------------------------
 Symbolic Z-matrix:
 Charge =  0 Multiplicity = 1

                          Input orientation:
 ---------------------------------------------------------------------
 Center     Atomic      Atomic             Coordinates (Angstroms)
 Number     Number       Type             X           Y           Z
 ---------------------------------------------------------------------
      1          6           0       -5.690331    1.454128   -5.200271
      2          6           0       -6.693805    0.510890   -4.499437
      3          6           0       -8.019921    1.258108   -4.232811
      4          6           0       -6.925853   -0.760442   -5.315882
      5          6           0       -7.446771   -0.887492   -6.598530
      6          6           0       -7.573570   -2.163060   -7.161997
      7          6           0       -7.180923   -3.296838   -6.443373
      8          6           0       -6.657051   -3.175653   -5.154252
      9          6           0       -6.530744   -1.903215   -4.592222
     10          6           0       -6.024425   -1.478688   -3.281497
     11          6           0       -5.531026   -2.226446   -2.216317
     12          6           0       -5.111910   -1.544120   -1.068057
     13          6           0       -4.578268   -1.978987    0.206318
     14          6           0       -4.267788   -3.232677    0.741456
     15          6           0       -3.722857   -3.328734    2.026675
     16          6           0       -3.442000   -4.658100    2.632889
     17          6           0       -4.456204   -5.625572    2.691304
     18          6           0       -4.266010   -6.874192    3.298859
     19          6           0       -3.046710   -7.213487    3.884124
     20          6           0       -2.042292   -6.259675    3.810192
     21          8           0       -0.771697   -6.439804    4.305836
     22          6           0       -0.076118   -5.298522    3.984453
     23          6           0        1.260117   -5.072820    4.279678
     24          6           0        1.809880   -3.870389    3.841543
     25          6           0        1.057457   -2.920433    3.112823
     26          6           0        1.691467   -1.661628    2.639135
     27          6           0        3.040987   -1.651630    2.214102
     28          6           0        3.674252   -0.498286    1.763374
     29          6           0        2.931788    0.684091    1.723434
     30          6           0        1.579439    0.710532    2.145123
     31          6           0        0.970609   -0.461040    2.601673
     32          6           0        1.124989    2.079496    2.008897
     33          6           0       -0.098856    2.717260    2.240159
     34          6           0       -0.214217    4.079635    1.978708
     35          6           0        0.880392    4.806271    1.479987
     36          6           0        2.109020    4.194974    1.237179
     37          6           0        2.222352    2.830011    1.514676
     38          7           0        3.318547    1.974284    1.342814
     39          6           0        4.600459    2.351044    0.864853
     40          6           0        5.308074    3.391553    1.479372
     41          6           0        6.560747    3.765102    0.998787
     42          6           0        7.152555    3.099122   -0.086528
     43          6           0        8.471428    3.536490   -0.615340
     44          6           0        8.672277    4.888905   -0.929268
     45          6           0        9.876397    5.361466   -1.467836
     46          6           0       10.941282    4.497055   -1.716040
     47          6           0       10.742426    3.163390   -1.390477
     48          8           0       11.698150    2.187833   -1.539584
     49          6           0       11.135343    1.028189   -1.061881
     50          6           0       11.785489   -0.196922   -1.013090
     51          6           0       11.072134   -1.265004   -0.469112
     52          6           0        9.762162   -1.092293    0.006430
     53          6           0        9.126589    0.146341   -0.056903
     54          6           0        9.817187    1.235550   -0.608892
     55          6           0        9.548425    2.651096   -0.841529
     56          6           0        6.434109    2.053477   -0.689157
     57          6           0        5.171728    1.687320   -0.228965
     58          6           0       -0.294274   -3.182845    2.841979
     59          6           0       -0.878693   -4.372579    3.291873
     60          6           0       -2.191944   -5.001137    3.192459
     61          6           0       -3.499490   -2.145546    2.768042
     62          6           0       -3.807218   -0.886022    2.262693
     63          6           0       -4.354730   -0.811825    0.979100
     64          7           0       -4.729368    0.308280    0.232155
     65          6           0       -4.659396    1.659521    0.669747
     66          6           0       -3.917904    2.596785   -0.060000
     67          6           0       -3.863267    3.923888    0.366350
     68          6           0       -4.528528    4.318941    1.529099
     69          6           0       -5.257084    3.380080    2.262822
     70          6           0       -5.332810    2.055658    1.832509
     71          6           0       -5.191012   -0.126175   -1.015910
     72          6           0       -5.698769    0.630814   -2.079726
     73          6           0       -6.109408   -0.063863   -3.208048
     74          1           0       -5.483647    2.332625   -4.577612
     75          1           0       -6.094075    1.807699   -6.156196
     76          1           0       -4.742280    0.943770   -5.397823
     77          1           0       -8.745511    0.606588   -3.735578
     78          1           0       -8.462394    1.608519   -5.172641
     79          1           0       -7.851131    2.132986   -3.593963
     80          1           0       -7.754563   -0.011046   -7.164578
     81          1           0       -7.979462   -2.272457   -8.164169
     82          1           0       -7.283995   -4.281506   -6.891912
     83          1           0       -6.353299   -4.061268   -4.601548
     84          1           0       -5.474192   -3.310863   -2.267262
     85          1           0       -4.429696   -4.134916    0.157777
     86          1           0       -5.429617   -5.379436    2.276926
     87          1           0       -5.088386   -7.583537    3.326600
     88          1           0       -2.878544   -8.169802    4.367612
     89          1           0        1.843807   -5.802142    4.831635
     90          1           0        2.844955   -3.649758    4.083792
     91          1           0        3.599350   -2.583012    2.216246
     92          1           0        4.711964   -0.525434    1.448038
     93          1           0       -0.057741   -0.436440    2.950951
     94          1           0       -0.951463    2.154053    2.610031
     95          1           0       -1.161130    4.581716    2.153666
     96          1           0        0.769579    5.867607    1.273905
     97          1           0        2.945053    4.760742    0.839706
     98          1           0        4.880130    3.892471    2.342045
     99          1           0        7.104513    4.566633    1.490716
    100          1           0        7.851973    5.583960   -0.775330
    101          1           0        9.976395    6.416852   -1.704416
    102          1           0       11.882365    4.837288   -2.134478
    103          1           0       12.801647   -0.304864   -1.377479
    104          1           0       11.540676   -2.243216   -0.409417
    105          1           0        9.234142   -1.940429    0.432891
    106          1           0        8.116760    0.262662    0.319586
    107          1           0        6.856805    1.542222   -1.549106
    108          1           0        4.613662    0.901134   -0.727835
    109          1           0       -0.874842   -2.477004    2.259692
    110          1           0       -3.090656   -2.226372    3.770988
    111          1           0       -3.634156    0.006700    2.854918
    112          1           0       -3.380777    2.277905   -0.947701
    113          1           0       -3.286552    4.645590   -0.205171
    114          1           0       -4.481132    5.352422    1.860765
    115          1           0       -5.781288    3.680786    3.165767
    116          1           0       -5.919158    1.326761    2.383408
    117          1           0       -5.769101    1.712373   -2.016032
 ---------------------------------------------------------------------

 SCF Done:  E(RB3LYP) =  -2915.92347224     A.U. after   15 cycles

 Excitation energies and oscillator strengths:

 Excited state symmetry could not be determined.
 Excited State   1:      Triplet-?Sym    2.8981 eV  427.82 nm  f=0.0000  <S**2>=2.000
     236 -> 247       -0.15636
     238 -> 247       -0.11337
     242 -> 247       -0.15960
     242 -> 249        0.17967
     243 -> 247        0.16954
     243 -> 249        0.18335
     243 -> 253        0.13600
     244 -> 246       -0.20757
     244 -> 247        0.25205
     244 -> 249        0.22080
     244 -> 253        0.16709
 This state for optimization and/or second-order correction.
 Total Energy, E(TD-HF/TD-DFT) =  -2915.81697067
 Copying the excited state density for this state as the 1-particle RhoCI density.

 Excited state symmetry could not be determined.
 Excited State   2:      Triplet-?Sym    2.9775 eV  416.40 nm  f=0.0000  <S**2>=2.000
     238 -> 245       -0.11295
     239 -> 245       -0.17765
     240 -> 246        0.23214
     241 -> 248       -0.14233
     242 -> 246       -0.21104
     243 -> 245        0.18855
     243 -> 250       -0.14102
     243 -> 254       -0.14537
     244 -> 245       -0.14049
     244 -> 246        0.15637
     244 -> 247        0.20462
     244 -> 250        0.10787
     244 -> 254        0.13860

 Excited state symmetry could not be determined.
 Excited State   3:      Singlet-?Sym    3.4528 eV  359.08 nm  f=0.2486  <S**2>=0.000
     243 -> 245       -0.48249
     244 -> 245        0.49380

 Excited state symmetry could not be determined.
 Excited State   4:      Singlet-?Sym    3.6631 eV  338.47 nm  f=0.0158  <S**2>=0.000
     243 -> 245        0.49035
     244 -> 245        0.47538
     244 -> 246        0.15669

 Alpha  occ. eigenvalues --  -19.21079 -19.20309 -14.38508 -14.38439 -10.25165
 Alpha  occ. eigenvalues --  -10.24948 -10.24298 -10.24287 -10.24275 -10.24094
 Alpha  occ. eigenvalues --  -10.22691 -10.22666 -10.22525 -10.22451 -10.21187
 Alpha  occ. eigenvalues --  -10.21081 -10.20591 -10.20481 -10.20448 -10.20445
 Alpha  occ. eigenvalues --  -10.20398 -10.20396 -10.20377 -10.20344 -10.20316
 Alpha  occ. eigenvalues --  -10.20310 -10.20310 -10.20266 -10.20122 -10.20024
 Alpha  occ. eigenvalues --  -10.19925 -10.19786 -10.19728 -10.19710 -10.19566
 Alpha  occ. eigenvalues --  -10.19449 -10.19431 -10.19346 -10.19334 -10.19220
 Alpha  occ. eigenvalues --  -10.19176 -10.19163 -10.19093 -10.19086 -10.19050
 Alpha  occ. eigenvalues --  -10.19045 -10.19011 -10.18988 -10.18965 -10.18951
 Alpha  occ. eigenvalues --  -10.18951 -10.18949 -10.18939 -10.18906 -10.18866
 Alpha  occ. eigenvalues --  -10.18862 -10.18856 -10.18833 -10.18801 -10.18697
 Alpha  occ. eigenvalues --  -10.18673 -10.18663 -10.18636 -10.18523 -10.18448
 Alpha  occ. eigenvalues --  -10.18422 -10.18408 -10.18370 -10.18340 -10.18303
 Alpha  occ. eigenvalues --  -10.18193 -10.17814 -10.17773  -1.10817  -1.09978
 Alpha  occ. eigenvalues --   -0.99233  -0.99107  -0.88299  -0.88085  -0.87255
 Alpha  occ. eigenvalues --   -0.86596  -0.86321  -0.85866  -0.85727  -0.84242
 Alpha  occ. eigenvalues --   -0.84141  -0.83994  -0.83636  -0.81100  -0.79808
 Alpha  occ. eigenvalues --   -0.78854  -0.78599  -0.78038  -0.77328  -0.77217
 Alpha  occ. eigenvalues --   -0.76660  -0.76022  -0.75900  -0.75787  -0.75397
 Alpha  occ. eigenvalues --   -0.74994  -0.74049  -0.73396  -0.73164  -0.72908
 Alpha  occ. eigenvalues --   -0.72432  -0.72298  -0.71495  -0.70962  -0.70332
 Alpha  occ. eigenvalues --   -0.69977  -0.68480  -0.66082  -0.65735  -0.64604
 Alpha  occ. eigenvalues --   -0.63816  -0.63186  -0.62983  -0.62464  -0.62377
 Alpha  occ. eigenvalues --   -0.62002  -0.61677  -0.61142  -0.60760  -0.59557
 Alpha  occ. eigenvalues --   -0.59284  -0.59074  -0.58802  -0.57958  -0.57665
 Alpha  occ. eigenvalues --   -0.57299  -0.57243  -0.57043  -0.55985  -0.55212
 Alpha  occ. eigenvalues --   -0.53953  -0.53904  -0.53278  -0.52694  -0.52478
 Alpha  occ. eigenvalues --   -0.51856  -0.51540  -0.51299  -0.50595  -0.50007
 Alpha  occ. eigenvalues --   -0.49834  -0.49064  -0.48544  -0.47718  -0.47532
 Alpha  occ. eigenvalues --   -0.47347  -0.47252  -0.46747  -0.46681  -0.46270
 Alpha  occ. eigenvalues --   -0.46085  -0.45803  -0.45532  -0.45406  -0.45321
 Alpha  occ. eigenvalues --   -0.45206  -0.44806  -0.44542  -0.44131  -0.43874
 Alpha  occ. eigenvalues --   -0.43692  -0.43580  -0.43549  -0.43437  -0.43367
 Alpha  occ. eigenvalues --   -0.43316  -0.43145  -0.43120  -0.42960  -0.42785
 Alpha  occ. eigenvalues --   -0.42612  -0.42459  -0.42348  -0.41981  -0.41727
 Alpha  occ. eigenvalues --   -0.41568  -0.41463  -0.40793  -0.40710  -0.40481
 Alpha  occ. eigenvalues --   -0.39631  -0.39228  -0.39008  -0.38911  -0.38591
 Alpha  occ. eigenvalues --   -0.37950  -0.37894  -0.37613  -0.37445  -0.37228
 Alpha  occ. eigenvalues --   -0.37192  -0.36885  -0.36680  -0.36597  -0.36348
 Alpha  occ. eigenvalues --   -0.36191  -0.36078  -0.35808  -0.35760  -0.35397
 Alpha  occ. eigenvalues --   -0.35079  -0.35036  -0.34967  -0.34750  -0.34652
 Alpha  occ. eigenvalues --   -0.34194  -0.34121  -0.33949  -0.33819  -0.33684
 Alpha  occ. eigenvalues --   -0.33250  -0.33210  -0.32597  -0.32247  -0.32164
 Alpha  occ. eigenvalues --   -0.31621  -0.31476  -0.29072  -0.28461  -0.28180
 Alpha  occ. eigenvalues --   -0.27865  -0.27290  -0.27006  -0.26571  -0.26488
 Alpha  occ. eigenvalues --   -0.26381  -0.25932  -0.25106  -0.24368  -0.24041
 Alpha  occ. eigenvalues --   -0.23338  -0.22756  -0.22444  -0.22061  -0.21803
 Alpha  occ. eigenvalues --   -0.21064  -0.20454  -0.19136  -0.18804
 Alpha virt. eigenvalues --   -0.04728  -0.03522  -0.03179  -0.02730  -0.02306
 Alpha virt. eigenvalues --   -0.01930  -0.01697  -0.01598  -0.01462  -0.01119
 Alpha virt. eigenvalues --    0.00282   0.00480   0.00542   0.01265   0.02007

 Mulliken charges:
               1
     1  C   -0.436770
     2  C   -0.064342
     3  C   -0.436655
     4  C    0.101123
     5  C   -0.203951
     6  C   -0.133326
     7  C   -0.136347
     8  C   -0.193214
     9  C    0.078282
    10  C    0.075165
    11  C   -0.272639
    12  C    0.063967
    13  C    0.060503
    14  C   -0.250056
    15  C    0.069359
    16  C    0.022488
    17  C   -0.186815
    18  C   -0.139369
    19  C   -0.201897
    20  C    0.317039
    21  O   -0.551501
    22  C    0.317442
    23  C   -0.207180
    24  C   -0.189084
    25  C    0.080400
    26  C    0.088302
    27  C   -0.195840
    28  C   -0.177930
    29  C    0.317630
    30  C    0.065544
    31  C   -0.258216
    32  C    0.057658
    33  C   -0.198510
    34  C   -0.148303
    35  C   -0.143024
    36  C   -0.176132
    37  C    0.311401
    38  N   -0.741005
    39  C    0.276152
    40  C   -0.157274
    41  C   -0.182346
    42  C    0.088346
    43  C    0.017719
    44  C   -0.185072
    45  C   -0.139670
    46  C   -0.198762
    47  C    0.319585
    48  O   -0.547547
    49  C    0.315392
    50  C   -0.201814
    51  C   -0.135164
    52  C   -0.146457
    53  C   -0.197365
    54  C    0.079093
    55  C    0.027896
    56  C   -0.188374
    57  C   -0.159306
    58  C   -0.259408
    59  C    0.084945
    60  C    0.023281
    61  C   -0.190492
    62  C   -0.182453
    63  C    0.321729
    64  N   -0.744814
    65  C    0.258454
    66  C   -0.145983
    67  C   -0.141179
    68  C   -0.124689
    69  C   -0.143137
    70  C   -0.148441
    71  C    0.323366
    72  C   -0.260885
    73  C    0.093905
    74  H    0.140968
    75  H    0.143758
    76  H    0.157711
    77  H    0.157789
    78  H    0.143375
    79  H    0.142885
    80  H    0.121909
    81  H    0.124662
    82  H    0.125931
    83  H    0.126484
    84  H    0.133317
    85  H    0.136612
    86  H    0.131007
    87  H    0.132731
    88  H    0.144587
    89  H    0.144558
    90  H    0.132998
    91  H    0.129641
    92  H    0.138180
    93  H    0.135861
    94  H    0.134560
    95  H    0.124505
    96  H    0.124391
    97  H    0.138483
    98  H    0.154676
    99  H    0.144010
   100  H    0.132484
   101  H    0.136489
   102  H    0.148770
   103  H    0.147594
   104  H    0.134951
   105  H    0.131005
   106  H    0.150020
   107  H    0.152717
   108  H    0.156423
   109  H    0.159328
   110  H    0.141840
   111  H    0.141887
   112  H    0.156370
   113  H    0.142891
   114  H    0.136460
   115  H    0.140462
   116  H    0.153323
   117  H    0.137974
 Sum of Mulliken charges =  -0.00000

 Dipole moment (field-independent basis, Debye):
    X=              0.1482    Y=              3.5841    Z=             -0.5740  Tot=              3.6328
 Quadrupole moment (field-independent basis, Debye-Ang):
   XX=           -390.3049   YY=           -379.0423   ZZ=           -411.6337
   XY=             -6.1486   XZ=             -3.1758   YZ=              1.1156

 Normal termination of Gaussian 16 at Sat Nov  5 12:23:42 2022.
