 Gaussian 16, Revision B.01,
 Gaussian 16:  ES64L-G16RevB.01 20-Dec-2017

 -----------------------------
 #p b3lyp/6-31g(d) opt SCF=XQC
 -----------------------------

 ------------------------------
 Gaussian input prepared by ASE
 ------------------------------
 Symbolic Z-matrix:
 Charge =  0 Multiplicity = 1

 SCF Done:  E(RB3LYP) =  -2915.90579319     A.U. after   16 cycles
 SCF Done:  E(RB3LYP) =  -2915.91681109     A.U. after   13 cycles
 SCF Done:  E(RB3LYP) =  -2915.91862492     A.U. after   13 cycles
 SCF Done:  E(RB3LYP) =  -2915.92229097     A.U. after   12 cycles
 SCF Done:  E(RB3LYP) =  -2915.92271400     A.U. after   11 cycles
 SCF Done:  E(RB3LYP) =  -2915.92300317     A.U. after   12 cycles
 SCF Done:  E(RB3LYP) =  -2915.92320778     A.U. after   12 cycles
 SCF Done:  E(RB3LYP) =  -2915.92324194     A.U. after   11 cycles
 SCF Done:  E(RB3LYP) =  -2915.92319973     A.U. after   12 cycles
 SCF Done:  E(RB3LYP) =  -2915.92331434     A.U. after   11 cycles
 SCF Done:  E(RB3LYP) =  -2915.92336336     A.U. after   11 cycles
 SCF Done:  E(RB3LYP) =  -2915.92338353     A.U. after   11 cycles
 SCF Done:  E(RB3LYP) =  -2915.92346212     A.U. after   11 cycles
 SCF Done:  E(RB3LYP) =  -2915.92343448     A.U. after   10 cycles
 SCF Done:  E(RB3LYP) =  -2915.92346860     A.U. after   11 cycles
 SCF Done:  E(RB3LYP) =  -2915.92345607     A.U. after   10 cycles
 SCF Done:  E(RB3LYP) =  -2915.92347049     A.U. after    9 cycles
 SCF Done:  E(RB3LYP) =  -2915.92347051     A.U. after    6 cycles
 SCF Done:  E(RB3LYP) =  -2915.92347055     A.U. after    7 cycles
 SCF Done:  E(RB3LYP) =  -2915.92347057     A.U. after    6 cycles
 Optimization completed.
    -- Stationary point found.

                         Standard orientation:
 ---------------------------------------------------------------------
 Center     Atomic      Atomic             Coordinates (Angstroms)
 Number     Number       Type             X           Y           Z
 ---------------------------------------------------------------------
      1          6           0        5.806277   -5.487142   -1.672180
      2          6           0        6.947696   -4.458856   -1.505997
      3          6           0        8.018801   -5.013497   -0.540018
      4          6           0        7.557658   -4.081584   -2.855932
      5          6           0        8.202952   -4.898237   -3.777537
      6          6           0        8.690488   -4.337812   -4.964500
      7          6           0        8.530543   -2.972240   -5.220768
      8          6           0        7.883292   -2.146591   -4.298634
      9          6           0        7.397132   -2.705700   -3.114584
     10          6           0        6.689712   -2.093425   -1.983541
     11          6           0        6.306782   -0.773624   -1.762897
     12          6           0        5.633645   -0.470965   -0.573354
     13          6           0        5.116154    0.759182   -0.010455
     14          6           0        5.081130    2.082466   -0.460123
     15          6           0        4.467777    3.069641    0.319138
     16          6           0        4.473946    4.491887   -0.117636
     17          6           0        5.687406    5.114886   -0.445374
     18          6           0        5.760910    6.466097   -0.810304
     19          6           0        4.617867    7.263174   -0.859997
     20          6           0        3.418583    6.638838   -0.550160
     21          8           0        2.194339    7.265638   -0.579619
     22          6           0        1.267995    6.298870   -0.268348
     23          6           0       -0.102865    6.501368   -0.210366
     24          6           0       -0.893561    5.393294    0.084616
     25          6           0       -0.340013    4.110141    0.300698
     26          6           0       -1.222897    2.947971    0.584977
     27          6           0       -2.490654    2.839408   -0.033863
     28          6           0       -3.348653    1.770526    0.202170
     29          6           0       -2.922054    0.768415    1.076612
     30          6           0       -1.660314    0.847351    1.716261
     31          6           0       -0.821875    1.936813    1.467696
     32          6           0       -1.549542   -0.318557    2.569217
     33          6           0       -0.546904   -0.801659    3.417363
     34          6           0       -0.750822   -2.000188    4.095356
     35          6           0       -1.943971   -2.722895    3.925116
     36          6           0       -2.956787   -2.266397    3.083700
     37          6           0       -2.751661   -1.055676    2.416579
     38          7           0       -3.582223   -0.388554    1.506324
     39          6           0       -4.871121   -0.813127    1.091388
     40          6           0       -5.865197   -1.088887    2.038373
     41          6           0       -7.124860   -1.516656    1.626118
     42          6           0       -7.436646   -1.656797    0.264198
     43          6           0       -8.771831   -2.154893   -0.159522
     44          6           0       -9.273833   -3.338787    0.401111
     45          6           0      -10.506179   -3.884555    0.018052
     46          6           0      -11.297761   -3.265246   -0.947684
     47          6           0      -10.803341   -2.087373   -1.488387
     48          8           0      -11.470620   -1.334853   -2.424233
     49          6           0      -10.681378   -0.234288   -2.659986
     50          6           0      -11.009072    0.793193   -3.533408
     51          6           0      -10.103024    1.849437   -3.628335
     52          6           0       -8.923117    1.860715   -2.866962
     53          6           0       -8.611578    0.815564   -1.999331
     54          6           0       -9.500214   -0.264630   -1.892091
     55          6           0       -9.571803   -1.503949   -1.124573
     56          6           0       -6.431876   -1.370844   -0.674613
     57          6           0       -5.162912   -0.963237   -0.270831
     58          6           0        1.052790    3.948869    0.241662
     59          6           0        1.872757    5.050666   -0.028736
     60          6           0        3.304382    5.278925   -0.195897
     61          6           0        3.894559    2.707373    1.559958
     62          6           0        3.922898    1.399681    2.034947
     63          6           0        4.544021    0.429466    1.243890
     64          7           0        4.692436   -0.942177    1.466342
     65          6           0        4.251872   -1.648947    2.618998
     66          6           0        3.367219   -2.726333    2.486965
     67          6           0        2.948413   -3.424584    3.619665
     68          6           0        3.391554   -3.042104    4.887718
     69          6           0        4.263776   -1.959215    5.018797
     70          6           0        4.702609   -1.268338    3.889588
     71          6           0        5.353781   -1.500041    0.365914
     72          6           0        5.748158   -2.827693    0.155297
     73          6           0        6.414451   -3.106971   -1.028919
     74          1           0        5.335010   -5.703318   -0.706076
     75          1           0        6.190996   -6.430671   -2.076602
     76          1           0        5.035225   -5.112879   -2.353135
     77          1           0        8.837393   -4.298879   -0.408004
     78          1           0        8.440278   -5.949218   -0.925550
     79          1           0        7.583592   -5.221352    0.444572
     80          1           0        8.331621   -5.961343   -3.586353
     81          1           0        9.196111   -4.968219   -5.691134
     82          1           0        8.913079   -2.549221   -6.146027
     83          1           0        7.761952   -1.085971   -4.504603
     84          1           0        6.525308    0.005645   -2.488687
     85          1           0        5.511704    2.347775   -1.421970
     86          1           0        6.601494    4.531630   -0.381491
     87          1           0        6.727920    6.902580   -1.044005
     88          1           0        4.650883    8.312958   -1.131000
     89          1           0       -0.533007    7.482360   -0.383258
     90          1           0       -1.967990    5.525052    0.168184
     91          1           0       -2.798595    3.606045   -0.738622
     92          1           0       -4.315851    1.720462   -0.286750
     93          1           0        0.133979    2.012294    1.978333
     94          1           0        0.383379   -0.253005    3.537769
     95          1           0        0.023143   -2.382993    4.753976
     96          1           0       -2.082414   -3.660930    4.456253
     97          1           0       -3.869321   -2.837264    2.947975
     98          1           0       -5.651287   -0.950774    3.093563
     99          1           0       -7.890949   -1.717075    2.369803
    100          1           0       -8.668068   -3.861988    1.135281
    101          1           0      -10.843909   -4.810397    0.474740
    102          1           0      -12.253903   -3.668557   -1.263310
    103          1           0      -11.931183    0.768067   -4.104450
    104          1           0      -10.317672    2.676796   -4.298706
    105          1           0       -8.240258    2.700910   -2.955192
    106          1           0       -7.698700    0.843250   -1.415449
    107          1           0       -6.638396   -1.500184   -1.733002
    108          1           0       -4.386230   -0.780656   -1.006918
    109          1           0        1.488373    2.965807    0.376514
    110          1           0        3.433209    3.479926    2.168148
    111          1           0        3.483181    1.148524    2.994741
    112          1           0        3.004983   -3.001654    1.501478
    113          1           0        2.262498   -4.259733    3.509491
    114          1           0        3.060761   -3.585459    5.768441
    115          1           0        4.616730   -1.658684    6.001461
    116          1           0        5.401390   -0.442659    3.982025
    117          1           0        5.542259   -3.598248    0.891928
 ---------------------------------------------------------------------

 The electronic state is 1-A.
 Alpha  occ. eigenvalues --  -19.21079 -19.20309 -14.38508 -14.38439 -10.25165
 Alpha  occ. eigenvalues --  -10.24948 -10.24297 -10.24287 -10.24275 -10.24094
 Alpha  occ. eigenvalues --  -10.22691 -10.22666 -10.22525 -10.22451 -10.21187
 Alpha  occ. eigenvalues --  -10.21081 -10.20591 -10.20481 -10.20448 -10.20445
 Alpha  occ. eigenvalues --  -10.20398 -10.20396 -10.20377 -10.20344 -10.20316
 Alpha  occ. eigenvalues --  -10.20310 -10.20310 -10.20266 -10.20122 -10.20024
 Alpha  occ. eigenvalues --  -10.19925 -10.19786 -10.19728 -10.19710 -10.19566
 Alpha  occ. eigenvalues --  -10.19449 -10.19431 -10.19346 -10.19334 -10.19220
 Alpha  occ. eigenvalues --  -10.19176 -10.19163 -10.19093 -10.19086 -10.19049
 Alpha  occ. eigenvalues --  -10.19045 -10.19011 -10.18988 -10.18965 -10.18951
 Alpha  occ. eigenvalues --  -10.18951 -10.18950 -10.18939 -10.18906 -10.18866
 Alpha  occ. eigenvalues --  -10.18863 -10.18856 -10.18833 -10.18801 -10.18697
 Alpha  occ. eigenvalues --  -10.18673 -10.18663 -10.18636 -10.18523 -10.18448
 Alpha  occ. eigenvalues --  -10.18422 -10.18408 -10.18370 -10.18340 -10.18303
 Alpha  occ. eigenvalues --  -10.18193 -10.17814 -10.17773  -1.10817  -1.09978
 Alpha  occ. eigenvalues --   -0.99233  -0.99107  -0.88299  -0.88085  -0.87255
 Alpha  occ. eigenvalues --   -0.86596  -0.86321  -0.85866  -0.85727  -0.84242
 Alpha  occ. eigenvalues --   -0.84141  -0.83994  -0.83636  -0.81100  -0.79808
 Alpha  occ. eigenvalues --   -0.78854  -0.78599  -0.78038  -0.77328  -0.77217
 Alpha  occ. eigenvalues --   -0.76660  -0.76022  -0.75900  -0.75787  -0.75397
 Alpha  occ. eigenvalues --   -0.74994  -0.74049  -0.73396  -0.73164  -0.72908
 Alpha  occ. eigenvalues --   -0.72432  -0.72298  -0.71495  -0.70962  -0.70332
 Alpha  occ. eigenvalues --   -0.69977  -0.68480  -0.66082  -0.65735  -0.64604
 Alpha  occ. eigenvalues --   -0.63816  -0.63186  -0.62983  -0.62464  -0.62377
 Alpha  occ. eigenvalues --   -0.62002  -0.61677  -0.61142  -0.60760  -0.59557
 Alpha  occ. eigenvalues --   -0.59284  -0.59074  -0.58802  -0.57958  -0.57665
 Alpha  occ. eigenvalues --   -0.57299  -0.57243  -0.57043  -0.55985  -0.55212
 Alpha  occ. eigenvalues --   -0.53953  -0.53904  -0.53278  -0.52694  -0.52478
 Alpha  occ. eigenvalues --   -0.51856  -0.51540  -0.51299  -0.50595  -0.50007
 Alpha  occ. eigenvalues --   -0.49834  -0.49064  -0.48544  -0.47718  -0.47532
 Alpha  occ. eigenvalues --   -0.47347  -0.47252  -0.46747  -0.46681  -0.46270
 Alpha  occ. eigenvalues --   -0.46085  -0.45803  -0.45532  -0.45406  -0.45321
 Alpha  occ. eigenvalues --   -0.45207  -0.44806  -0.44542  -0.44131  -0.43874
 Alpha  occ. eigenvalues --   -0.43692  -0.43580  -0.43549  -0.43437  -0.43367
 Alpha  occ. eigenvalues --   -0.43315  -0.43145  -0.43120  -0.42960  -0.42785
 Alpha  occ. eigenvalues --   -0.42612  -0.42459  -0.42348  -0.41981  -0.41727
 Alpha  occ. eigenvalues --   -0.41568  -0.41463  -0.40793  -0.40710  -0.40481
 Alpha  occ. eigenvalues --   -0.39631  -0.39228  -0.39008  -0.38911  -0.38591
 Alpha  occ. eigenvalues --   -0.37950  -0.37894  -0.37613  -0.37445  -0.37228
 Alpha  occ. eigenvalues --   -0.37192  -0.36885  -0.36680  -0.36597  -0.36348
 Alpha  occ. eigenvalues --   -0.36191  -0.36078  -0.35808  -0.35760  -0.35397
 Alpha  occ. eigenvalues --   -0.35079  -0.35036  -0.34967  -0.34750  -0.34652
 Alpha  occ. eigenvalues --   -0.34194  -0.34121  -0.33949  -0.33819  -0.33684
 Alpha  occ. eigenvalues --   -0.33250  -0.33210  -0.32597  -0.32247  -0.32164
 Alpha  occ. eigenvalues --   -0.31621  -0.31476  -0.29072  -0.28461  -0.28180
 Alpha  occ. eigenvalues --   -0.27865  -0.27290  -0.27006  -0.26571  -0.26488
 Alpha  occ. eigenvalues --   -0.26381  -0.25932  -0.25106  -0.24368  -0.24041
 Alpha  occ. eigenvalues --   -0.23338  -0.22756  -0.22444  -0.22061  -0.21803
 Alpha  occ. eigenvalues --   -0.21064  -0.20454  -0.19136  -0.18804
 Alpha virt. eigenvalues --   -0.04729  -0.03522  -0.03179  -0.02730  -0.02306
 Alpha virt. eigenvalues --   -0.01930  -0.01697  -0.01598  -0.01462  -0.01119
 Alpha virt. eigenvalues --    0.00282   0.00480   0.00542   0.01265   0.02007

 Mulliken charges:
               1
     1  C   -0.436781
     2  C   -0.064335
     3  C   -0.436657
     4  C    0.101142
     5  C   -0.203950
     6  C   -0.133330
     7  C   -0.136353
     8  C   -0.193205
     9  C    0.078288
    10  C    0.075159
    11  C   -0.272644
    12  C    0.063970
    13  C    0.060481
    14  C   -0.250064
    15  C    0.069377
    16  C    0.022483
    17  C   -0.186819
    18  C   -0.139368
    19  C   -0.201897
    20  C    0.317042
    21  O   -0.551500
    22  C    0.317440
    23  C   -0.207181
    24  C   -0.189084
    25  C    0.080405
    26  C    0.088313
    27  C   -0.195854
    28  C   -0.177942
    29  C    0.317659
    30  C    0.065529
    31  C   -0.258221
    32  C    0.057674
    33  C   -0.198512
    34  C   -0.148312
    35  C   -0.143023
    36  C   -0.176117
    37  C    0.311378
    38  N   -0.740994
    39  C    0.276114
    40  C   -0.157252
    41  C   -0.182346
    42  C    0.088312
    43  C    0.017736
    44  C   -0.185070
    45  C   -0.139668
    46  C   -0.198778
    47  C    0.319591
    48  O   -0.547546
    49  C    0.315390
    50  C   -0.201810
    51  C   -0.135155
    52  C   -0.146465
    53  C   -0.197375
    54  C    0.079083
    55  C    0.027913
    56  C   -0.188355
    57  C   -0.159303
    58  C   -0.259411
    59  C    0.084945
    60  C    0.023287
    61  C   -0.190505
    62  C   -0.182472
    63  C    0.321775
    64  N   -0.744812
    65  C    0.258452
    66  C   -0.145983
    67  C   -0.141173
    68  C   -0.124683
    69  C   -0.143151
    70  C   -0.148440
    71  C    0.323359
    72  C   -0.260867
    73  C    0.093864
    74  H    0.140971
    75  H    0.143760
    76  H    0.157712
    77  H    0.157789
    78  H    0.143376
    79  H    0.142885
    80  H    0.121908
    81  H    0.124663
    82  H    0.125932
    83  H    0.126483
    84  H    0.133318
    85  H    0.136611
    86  H    0.131007
    87  H    0.132731
    88  H    0.144587
    89  H    0.144558
    90  H    0.132998
    91  H    0.129643
    92  H    0.138182
    93  H    0.135859
    94  H    0.134566
    95  H    0.124505
    96  H    0.124391
    97  H    0.138480
    98  H    0.154676
    99  H    0.144009
   100  H    0.132483
   101  H    0.136489
   102  H    0.148770
   103  H    0.147594
   104  H    0.134950
   105  H    0.131006
   106  H    0.150021
   107  H    0.152716
   108  H    0.156424
   109  H    0.159336
   110  H    0.141838
   111  H    0.141887
   112  H    0.156371
   113  H    0.142891
   114  H    0.136461
   115  H    0.140463
   116  H    0.153323
   117  H    0.137975
 Sum of Mulliken charges =  -0.00000

 Dipole moment (field-independent basis, Debye):
    X=             -0.9822    Y=             -3.0188    Z=              1.7663  Tot=              3.6329
 Quadrupole moment (field-independent basis, Debye-Ang):
   XX=           -393.6425   YY=           -392.2658   ZZ=           -393.9643
   XY=              0.5787   XZ=              5.3308   YZ=            -17.7491

 Normal termination of Gaussian 16 at Sat Nov  5 02:13:54 2022.
