 Gaussian 16, Revision B.01,
 Gaussian 16:  ES64L-G16RevB.01 20-Dec-2017

 -----------------------------
 #p b3lyp/6-31g(d) opt SCF=XQC
 -----------------------------

 ------------------------------
 Gaussian input prepared by ASE
 ------------------------------
 Symbolic Z-matrix:
 Charge =  0 Multiplicity = 1

 SCF Done:  E(RB3LYP) =  -3771.36835144     A.U. after   15 cycles
 SCF Done:  E(RB3LYP) =  -3771.38895886     A.U. after   13 cycles
 SCF Done:  E(RB3LYP) =  -3771.38975549     A.U. after   12 cycles
 SCF Done:  E(RB3LYP) =  -3771.38983733     A.U. after   10 cycles
 SCF Done:  E(RB3LYP) =  -3771.38986565     A.U. after   10 cycles
 SCF Done:  E(RB3LYP) =  -3771.38987841     A.U. after   10 cycles
 SCF Done:  E(RB3LYP) =  -3771.38988346     A.U. after   10 cycles
 SCF Done:  E(RB3LYP) =  -3771.38988539     A.U. after    9 cycles
 SCF Done:  E(RB3LYP) =  -3771.38988581     A.U. after    9 cycles
 SCF Done:  E(RB3LYP) =  -3771.38988586     A.U. after    6 cycles
 SCF Done:  E(RB3LYP) =  -3771.38988590     A.U. after    6 cycles
 Optimization completed.
    -- Stationary point found.

                         Standard orientation:
 ---------------------------------------------------------------------
 Center     Atomic      Atomic             Coordinates (Angstroms)
 Number     Number       Type             X           Y           Z
 ---------------------------------------------------------------------
      1          9           0      -14.348352    0.066855   -1.836206
      2          6           0      -13.277085    0.471615   -1.119053
      3          6           0      -13.077928    1.831509   -0.907266
      4          6           0      -11.966543    2.246413   -0.177912
      5          6           0      -11.068742    1.308004    0.357954
      6          7           0       -9.939666    1.739725    1.106972
      7          6           0      -10.099121    2.742878    2.103907
      8          6           0       -9.139726    3.758374    2.249097
      9          6           0       -9.299344    4.741345    3.223117
     10          6           0      -10.421293    4.742068    4.055737
     11          6           0      -11.380587    3.738868    3.907901
     12          6           0      -11.220724    2.740528    2.947842
     13          6           0       -8.685749    1.103163    0.921908
     14          6           0       -8.255094    0.764584   -0.393921
     15          6           0       -7.043878    0.155150   -0.607802
     16          6           0       -6.164221   -0.146090    0.471207
     17          6           0       -4.898979   -0.764595    0.318346
     18          6           0       -4.067334   -1.022754    1.412198
     19          6           0       -4.516646   -0.697481    2.718553
     20          6           0       -5.742657   -0.099503    2.895787
     21          6           0       -6.591147    0.204231    1.797104
     22          6           0       -7.855449    0.813151    1.990802
     23          6           0       -2.822805   -1.663975    0.931262
     24          6           0       -2.934331   -1.830788   -0.444612
     25          6           0       -1.927201   -2.445753   -1.203833
     26          6           0       -0.800935   -2.919866   -0.569801
     27          6           0       -0.621328   -2.772487    0.834695
     28          6           0        0.566552   -3.243467    1.492895
     29          6           0        1.619955   -4.016509    0.770891
     30          6           0        1.311842   -5.228646    0.130243
     31          6           0        2.341177   -5.939998   -0.469285
     32          9           0        2.049280   -7.105745   -1.087271
     33          6           0        3.659347   -5.506438   -0.475390
     34          6           0        3.973408   -4.302464    0.173487
     35          7           0        5.310513   -3.832851    0.203919
     36          6           0        6.387946   -4.757477    0.316321
     37          6           0        6.337019   -5.796547    1.259369
     38          6           0        7.393164   -6.698611    1.367061
     39          6           0        8.522238   -6.570237    0.554353
     40          6           0        8.579439   -5.531981   -0.376941
     41          6           0        7.518911   -4.636025   -0.505476
     42          6           0        5.595848   -2.451758    0.024673
     43          6           0        6.611058   -1.839260    0.813868
     44          6           0        6.910973   -0.507307    0.670034
     45          6           0        6.210632    0.313735   -0.259620
     46          6           0        6.465351    1.694079   -0.452412
     47          6           0        5.746410    2.454411   -1.379398
     48          6           0        4.734387    1.830829   -2.154538
     49          6           0        4.465159    0.492558   -1.986547
     50          6           0        5.179085   -0.300082   -1.048153
     51          6           0        4.905238   -1.681628   -0.893559
     52          6           0        6.240180    3.849536   -1.347279
     53          6           0        7.259012    3.918927   -0.401624
     54          6           0        7.951489    5.109938   -0.122714
     55          6           0        7.612871    6.253247   -0.808368
     56          6           0        6.579053    6.244852   -1.784016
     57          6           0        6.239809    7.434663   -2.481988
     58          6           0        5.240863    7.448599   -3.427489
     59          6           0        4.534354    6.258838   -3.712965
     60          6           0        4.837944    5.086229   -3.055224
     61          6           0        5.864170    5.027834   -2.073130
     62          6           0        7.500684    2.562362    0.258216
     63          6           0        7.365421    2.642009    1.783740
     64          6           0        6.246434    2.971001    2.538776
     65          6           0        6.360869    3.010850    3.932634
     66          6           0        7.581952    2.729277    4.555624
     67          6           0        8.708128    2.399944    3.798226
     68          6           0        8.596170    2.356309    2.406661
     69          6           0        9.583575    2.027382    1.368909
     70          6           0       10.927832    1.660572    1.465343
     71          6           0       11.636054    1.379382    0.295002
     72          6           0       11.011125    1.463247   -0.954348
     73          6           0        9.665574    1.833408   -1.054278
     74          6           0        8.958820    2.111409    0.109190
     75          6           0        2.947084   -3.570782    0.795651
     76          6           0        0.750678   -2.978704    2.838754
     77          6           0       -0.214125   -2.268259    3.579942
     78          6           0       -1.379616   -1.845475    2.983148
     79          6           0       -1.632453   -2.090146    1.607333
     80          6           0       -4.249446   -1.260129   -0.971891
     81          6           0       -5.052262   -2.305647   -1.755076
     82          6           0       -5.591372   -3.503016   -1.301061
     83          6           0       -6.266423   -4.326326   -2.208791
     84          6           0       -6.392442   -3.953154   -3.551661
     85          6           0       -5.849681   -2.750877   -4.010162
     86          6           0       -5.177766   -1.925565   -3.105615
     87          6           0       -4.532027   -0.618003   -3.288337
     88          6           0       -4.399488    0.189346   -4.420394
     89          6           0       -3.743351    1.416388   -4.300869
     90          6           0       -3.226589    1.831870   -3.068486
     91          6           0       -3.354927    1.023889   -1.933473
     92          6           0       -4.009252   -0.196211   -2.050101
     93          6           0      -11.304280   -0.058762    0.137756
     94          6           0      -12.401550   -0.480318   -0.611142
     95          1           0      -13.777862    2.548001   -1.324719
     96          1           0      -11.789809    3.305001   -0.017845
     97          1           0       -8.272844    3.769198    1.596093
     98          1           0       -8.547580    5.520248    3.320769
     99          1           0      -10.545739    5.514742    4.809007
    100          1           0      -12.255559    3.721447    4.552502
    101          1           0      -11.963271    1.955436    2.846362
    102          1           0       -8.897416    1.003431   -1.235269
    103          1           0       -6.744149   -0.081723   -1.621546
    104          1           0       -3.923752   -0.934074    3.592449
    105          1           0       -6.083871    0.146114    3.898570
    106          1           0       -8.168791    1.058367    3.001174
    107          1           0       -2.039371   -2.549084   -2.279428
    108          1           0       -0.020758   -3.397151   -1.151086
    109          1           0        0.302254   -5.623218    0.114911
    110          1           0        4.417827   -6.096061   -0.976182
    111          1           0        5.468288   -5.889925    1.903458
    112          1           0        7.338046   -7.497735    2.101609
    113          1           0        9.347103   -7.270945    0.646733
    114          1           0        9.448697   -5.423217   -1.020154
    115          1           0        7.560524   -3.839023   -1.241044
    116          1           0        7.145893   -2.441568    1.541031
    117          1           0        7.685213   -0.070428    1.289025
    118          1           0        4.160798    2.386136   -2.884877
    119          1           0        3.687742    0.019100   -2.581227
    120          1           0        4.131860   -2.133938   -1.507267
    121          1           0        8.741065    5.119937    0.623243
    122          1           0        8.133924    7.187105   -0.612204
    123          1           0        6.791239    8.343090   -2.250424
    124          1           0        4.993412    8.367100   -3.952600
    125          1           0        3.743188    6.267004   -4.458025
    126          1           0        4.273406    4.196891   -3.298350
    127          1           0        5.298054    3.191460    2.056176
    128          1           0        5.493213    3.262833    4.536306
    129          1           0        7.654379    2.765556    5.639351
    130          1           0        9.653658    2.180068    4.287522
    131          1           0       11.417807    1.592055    2.433332
    132          1           0       12.682199    1.091365    0.355411
    133          1           0       11.575587    1.239305   -1.855466
    134          1           0        9.181963    1.900349   -2.025159
    135          1           0        3.185605   -2.637819    1.293721
    136          1           0        1.648661   -3.339906    3.331796
    137          1           0       -0.037571   -2.062419    4.632191
    138          1           0       -2.094210   -1.285550    3.569757
    139          1           0       -5.492498   -3.794805   -0.258920
    140          1           0       -6.696116   -5.264214   -1.867474
    141          1           0       -6.918784   -4.604479   -4.244275
    142          1           0       -5.952070   -2.465208   -5.054023
    143          1           0       -4.800665   -0.127469   -5.379783
    144          1           0       -3.634682    2.055354   -5.173193
    145          1           0       -2.720960    2.790622   -2.991577
    146          1           0       -2.951280    1.346546   -0.977482
    147          1           0      -10.621834   -0.792323    0.554309
    148          1           0      -12.590750   -1.533866   -0.789250
 ---------------------------------------------------------------------

 The electronic state is 1-A.
 Alpha  occ. eigenvalues --  -24.70065 -24.69908 -14.36863 -14.36678 -10.26960
 Alpha  occ. eigenvalues --  -10.26850 -10.23855 -10.23288 -10.23096 -10.23070
 Alpha  occ. eigenvalues --  -10.23053 -10.23046 -10.21446 -10.21431 -10.20697
 Alpha  occ. eigenvalues --  -10.20159 -10.20091 -10.20032 -10.20004 -10.19858
 Alpha  occ. eigenvalues --  -10.19835 -10.19791 -10.19783 -10.19779 -10.19759
 Alpha  occ. eigenvalues --  -10.19738 -10.19722 -10.19706 -10.19700 -10.19623
 Alpha  occ. eigenvalues --  -10.19613 -10.19601 -10.19596 -10.19593 -10.19592
 Alpha  occ. eigenvalues --  -10.19582 -10.19548 -10.19546 -10.19505 -10.19502
 Alpha  occ. eigenvalues --  -10.19474 -10.19465 -10.19433 -10.19401 -10.19240
 Alpha  occ. eigenvalues --  -10.19221 -10.19220 -10.19216 -10.19214 -10.19192
 Alpha  occ. eigenvalues --  -10.19178 -10.19166 -10.19119 -10.19115 -10.19106
 Alpha  occ. eigenvalues --  -10.19085 -10.19083 -10.19075 -10.19066 -10.19054
 Alpha  occ. eigenvalues --  -10.19049 -10.19035 -10.19023 -10.19004 -10.18990
 Alpha  occ. eigenvalues --  -10.18984 -10.18973 -10.18968 -10.18964 -10.18956
 Alpha  occ. eigenvalues --  -10.18947 -10.18933 -10.18932 -10.18896 -10.18894
 Alpha  occ. eigenvalues --  -10.18893 -10.18886 -10.18876 -10.18863 -10.18856
 Alpha  occ. eigenvalues --  -10.18848 -10.18843 -10.18840 -10.18824 -10.18821
 Alpha  occ. eigenvalues --  -10.18820 -10.18812 -10.18767 -10.18765 -10.18749
 Alpha  occ. eigenvalues --  -10.18725 -10.18681 -10.18578 -10.18541  -1.21170
 Alpha  occ. eigenvalues --   -1.21042  -0.96767  -0.96614  -0.90395  -0.90376
 Alpha  occ. eigenvalues --   -0.87843  -0.87626  -0.87123  -0.86650  -0.86145
 Alpha  occ. eigenvalues --   -0.85915  -0.84990  -0.84686  -0.84344  -0.84339
 Alpha  occ. eigenvalues --   -0.83978  -0.83551  -0.81325  -0.81247  -0.80132
 Alpha  occ. eigenvalues --   -0.80051  -0.78783  -0.78332  -0.77939  -0.77056
 Alpha  occ. eigenvalues --   -0.76401  -0.76290  -0.76249  -0.75921  -0.75597
 Alpha  occ. eigenvalues --   -0.75311  -0.74913  -0.74507  -0.74440  -0.74248
 Alpha  occ. eigenvalues --   -0.74243  -0.74060  -0.73923  -0.73458  -0.72990
 Alpha  occ. eigenvalues --   -0.72719  -0.71925  -0.71540  -0.71410  -0.71405
 Alpha  occ. eigenvalues --   -0.69385  -0.69271  -0.68390  -0.68365  -0.64312
 Alpha  occ. eigenvalues --   -0.63969  -0.63796  -0.63762  -0.63599  -0.63125
 Alpha  occ. eigenvalues --   -0.62888  -0.62195  -0.62017  -0.61611  -0.61504
 Alpha  occ. eigenvalues --   -0.60795  -0.60669  -0.60422  -0.60265  -0.60051
 Alpha  occ. eigenvalues --   -0.59222  -0.59127  -0.59067  -0.58407  -0.58401
 Alpha  occ. eigenvalues --   -0.58209  -0.57523  -0.57519  -0.57407  -0.56555
 Alpha  occ. eigenvalues --   -0.56305  -0.56041  -0.54281  -0.53984  -0.53500
 Alpha  occ. eigenvalues --   -0.53292  -0.52745  -0.52685  -0.51871  -0.51513
 Alpha  occ. eigenvalues --   -0.51399  -0.50634  -0.50490  -0.50053  -0.49671
 Alpha  occ. eigenvalues --   -0.49359  -0.49358  -0.49343  -0.49249  -0.49028
 Alpha  occ. eigenvalues --   -0.48671  -0.48436  -0.48324  -0.48285  -0.48142
 Alpha  occ. eigenvalues --   -0.47997  -0.47143  -0.47042  -0.46776  -0.46197
 Alpha  occ. eigenvalues --   -0.45930  -0.45485  -0.45381  -0.45363  -0.45124
 Alpha  occ. eigenvalues --   -0.44923  -0.44800  -0.44569  -0.44226  -0.44223
 Alpha  occ. eigenvalues --   -0.44209  -0.44127  -0.43979  -0.43903  -0.43484
 Alpha  occ. eigenvalues --   -0.43303  -0.43258  -0.43194  -0.43189  -0.42802
 Alpha  occ. eigenvalues --   -0.42622  -0.42240  -0.42169  -0.42057  -0.41923
 Alpha  occ. eigenvalues --   -0.41856  -0.41802  -0.41764  -0.41576  -0.41525
 Alpha  occ. eigenvalues --   -0.41523  -0.41011  -0.40871  -0.40390  -0.40210
 Alpha  occ. eigenvalues --   -0.40050  -0.39935  -0.39799  -0.39436  -0.39357
 Alpha  occ. eigenvalues --   -0.39113  -0.38994  -0.38769  -0.38607  -0.38452
 Alpha  occ. eigenvalues --   -0.38388  -0.37845  -0.37575  -0.37477  -0.37240
 Alpha  occ. eigenvalues --   -0.37004  -0.36829  -0.36532  -0.36415  -0.36384
 Alpha  occ. eigenvalues --   -0.36097  -0.35981  -0.35946  -0.35891  -0.35713
 Alpha  occ. eigenvalues --   -0.35614  -0.35480  -0.35419  -0.35264  -0.34915
 Alpha  occ. eigenvalues --   -0.34795  -0.34723  -0.34579  -0.34453  -0.34385
 Alpha  occ. eigenvalues --   -0.34273  -0.33977  -0.33913  -0.33265  -0.33232
 Alpha  occ. eigenvalues --   -0.32868  -0.32839  -0.32761  -0.32613  -0.32035
 Alpha  occ. eigenvalues --   -0.31864  -0.31742  -0.31698  -0.30355  -0.30104
 Alpha  occ. eigenvalues --   -0.28906  -0.28777  -0.28151  -0.28146  -0.27865
 Alpha  occ. eigenvalues --   -0.27593  -0.26374  -0.26173  -0.25447  -0.25384
 Alpha  occ. eigenvalues --   -0.25325  -0.25238  -0.25042  -0.24826  -0.24672
 Alpha  occ. eigenvalues --   -0.24460  -0.24453  -0.23965  -0.23546  -0.23513
 Alpha  occ. eigenvalues --   -0.22253  -0.22125  -0.21606  -0.21545  -0.20369
 Alpha  occ. eigenvalues --   -0.20111  -0.17961  -0.17729
 Alpha virt. eigenvalues --   -0.05288  -0.05181  -0.03774  -0.03458  -0.03235
 Alpha virt. eigenvalues --   -0.03227  -0.02132  -0.01387  -0.01373  -0.01330
 Alpha virt. eigenvalues --   -0.01327  -0.01228  -0.01057  -0.00893  -0.00395

 Mulliken charges:
               1
     1  F   -0.300308
     2  C    0.379739
     3  C   -0.207446
     4  C   -0.159449
     5  C    0.273556
     6  N   -0.658346
     7  C    0.276371
     8  C   -0.158252
     9  C   -0.140598
    10  C   -0.128264
    11  C   -0.139986
    12  C   -0.165814
    13  C    0.300968
    14  C   -0.182601
    15  C   -0.185646
    16  C    0.104031
    17  C   -0.001141
    18  C    0.079404
    19  C   -0.200699
    20  C   -0.205075
    21  C    0.154349
    22  C   -0.279782
    23  C   -0.052828
    24  C    0.129093
    25  C   -0.189336
    26  C   -0.213273
    27  C    0.105865
    28  C    0.009567
    29  C    0.051000
    30  C   -0.246115
    31  C    0.389224
    32  F   -0.301927
    33  C   -0.255391
    34  C    0.302090
    35  N   -0.664504
    36  C    0.270555
    37  C   -0.157172
    38  C   -0.139720
    39  C   -0.126837
    40  C   -0.139402
    41  C   -0.162669
    42  C    0.293243
    43  C   -0.179021
    44  C   -0.185940
    45  C    0.105318
    46  C   -0.001593
    47  C    0.076711
    48  C   -0.196803
    49  C   -0.204019
    50  C    0.153669
    51  C   -0.271455
    52  C   -0.052743
    53  C    0.123143
    54  C   -0.187061
    55  C   -0.203725
    56  C    0.148108
    57  C   -0.204921
    58  C   -0.129452
    59  C   -0.144786
    60  C   -0.181290
    61  C    0.088101
    62  C   -0.266499
    63  C    0.118438
    64  C   -0.186805
    65  C   -0.135200
    66  C   -0.134909
    67  C   -0.190752
    68  C    0.064556
    69  C    0.064887
    70  C   -0.190470
    71  C   -0.134824
    72  C   -0.135367
    73  C   -0.186979
    74  C    0.118876
    75  C   -0.210974
    76  C   -0.172392
    77  C   -0.145628
    78  C   -0.179222
    79  C    0.082889
    80  C   -0.266527
    81  C    0.119053
    82  C   -0.187193
    83  C   -0.135402
    84  C   -0.134729
    85  C   -0.190216
    86  C    0.064979
    87  C    0.064567
    88  C   -0.190697
    89  C   -0.134987
    90  C   -0.135449
    91  C   -0.187111
    92  C    0.119022
    93  C   -0.163891
    94  C   -0.207328
    95  H    0.148515
    96  H    0.152732
    97  H    0.145015
    98  H    0.132439
    99  H    0.128391
   100  H    0.132140
   101  H    0.143037
   102  H    0.145597
   103  H    0.152709
   104  H    0.140200
   105  H    0.129956
   106  H    0.143119
   107  H    0.140493
   108  H    0.145182
   109  H    0.152115
   110  H    0.159176
   111  H    0.143249
   112  H    0.133406
   113  H    0.129502
   114  H    0.133651
   115  H    0.147551
   116  H    0.146705
   117  H    0.152874
   118  H    0.143388
   119  H    0.132056
   120  H    0.142474
   121  H    0.140553
   122  H    0.129622
   123  H    0.129509
   124  H    0.129226
   125  H    0.128487
   126  H    0.137328
   127  H    0.142227
   128  H    0.130973
   129  H    0.129536
   130  H    0.129995
   131  H    0.130049
   132  H    0.129554
   133  H    0.130588
   134  H    0.141451
   135  H    0.151800
   136  H    0.134847
   137  H    0.130659
   138  H    0.136377
   139  H    0.141138
   140  H    0.130883
   141  H    0.130176
   142  H    0.130406
   143  H    0.130483
   144  H    0.129528
   145  H    0.130648
   146  H    0.141568
   147  H    0.155156
   148  H    0.149129
 Sum of Mulliken charges =  -0.00000

 Dipole moment (field-independent basis, Debye):
    X=              1.5190    Y=              1.6653    Z=              1.2332  Tot=              2.5693
 Quadrupole moment (field-independent basis, Debye-Ang):
   XX=           -505.0272   YY=           -513.5705   ZZ=           -494.9096
   XY=            -10.6782   XZ=              2.3271   YZ=             -2.5802

 Normal termination of Gaussian 16 at Sat Nov  5 01:44:37 2022.
