 Gaussian 16, Revision B.01,
 Gaussian 16:  ES64L-G16RevB.01 20-Dec-2017

 -------------------------------------------------------------------
 #p b3lyp/6-31g(d) 6D 10F nosymm GFInput td=(50-50,nstate=2) SCF=XQC
 -------------------------------------------------------------------

 ------------------------------
 Gaussian input prepared by ASE
 ------------------------------
 Symbolic Z-matrix:
 Charge =  0 Multiplicity = 1

                          Input orientation:
 ---------------------------------------------------------------------
 Center     Atomic      Atomic             Coordinates (Angstroms)
 Number     Number       Type             X           Y           Z
 ---------------------------------------------------------------------
      1          9           0       14.240394    0.868481   -2.961486
      2          6           0       13.156899    0.101133   -2.710551
      3          6           0       12.797971   -0.884058   -3.624004
      4          6           0       11.673933   -1.665474   -3.368645
      5          6           0       10.923046   -1.480847   -2.195661
      6          7           0        9.780165   -2.287292   -1.939354
      7          6           0        9.853212   -3.694388   -2.140265
      8          6           0        8.781022   -4.383984   -2.729856
      9          6           0        8.855824   -5.760654   -2.928879
     10          6           0       10.001723   -6.471058   -2.562456
     11          6           0       11.072168   -5.786828   -1.984106
     12          6           0       10.999611   -4.411886   -1.764512
     13          6           0        8.609247   -1.698463   -1.397136
     14          6           0        8.171293   -0.430117   -1.877762
     15          6           0        7.038144    0.163204   -1.379625
     16          6           0        6.247583   -0.470791   -0.378692
     17          6           0        5.064487    0.082030    0.170331
     18          6           0        4.316735   -0.592028    1.140541
     19          6           0        4.774465   -1.845601    1.623536
     20          6           0        5.922227   -2.403552    1.110285
     21          6           0        6.680780   -1.754090    0.099301
     22          6           0        7.865801   -2.333436   -0.417272
     23          6           0        3.143702    0.233891    1.505461
     24          6           0        3.219300    1.421580    0.786451
     25          6           0        2.267030    2.441789    0.932271
     26          6           0        1.235570    2.276631    1.828969
     27          6           0        1.096074    1.081052    2.589049
     28          6           0        0.004124    0.897544    3.505606
     29          6           0       -0.972735    1.986295    3.803782
     30          6           0       -0.541678    3.217080    4.327228
     31          6           0       -1.497426    4.170155    4.648450
     32          9           0       -1.087327    5.355504    5.151284
     33          6           0       -2.858627    3.969881    4.467879
     34          6           0       -3.294225    2.737789    3.956573
     35          7           0       -4.677223    2.487473    3.772266
     36          6           0       -5.625089    3.007539    4.699364
     37          6           0       -5.406376    2.888436    6.081239
     38          6           0       -6.336152    3.397593    6.985139
     39          6           0       -7.504453    4.014105    6.530423
     40          6           0       -7.728807    4.124657    5.157106
     41          6           0       -6.794768    3.635548    4.244789
     42          6           0       -5.140099    1.803366    2.615241
     43          6           0       -6.191084    0.850218    2.740042
     44          6           0       -6.660829    0.168515    1.644892
     45          6           0       -6.106984    0.376239    0.349149
     46          6           0       -6.539965   -0.298022   -0.819312
     47          6           0       -5.959979   -0.056361   -2.068111
     48          6           0       -4.910198    0.892512   -2.175283
     49          6           0       -4.469102    1.560247   -1.056696
     50          6           0       -5.039612    1.328940    0.223760
     51          6           0       -4.589069    2.033383    1.367583
     52          6           0       -6.622660   -0.907431   -3.081891
     53          6           0       -7.602956   -1.654631   -2.435509
     54          6           0       -8.427073   -2.568688   -3.114590
     55          6           0       -8.262219   -2.734264   -4.470078
     56          6           0       -7.275914   -2.000986   -5.184392
     57          6           0       -7.116755   -2.185065   -6.583923
     58          6           0       -6.166588   -1.487722   -7.293117
     59          6           0       -5.328983   -0.569836   -6.620745
     60          6           0       -5.456581   -0.365872   -5.263571
     61          6           0       -6.426745   -1.064028   -4.493885
     62          6           0       -7.646079   -1.343329   -0.940418
     63          6           0       -7.460057   -2.607672   -0.092658
     64          6           0       -6.361301   -3.455801   -0.030534
     65          6           0       -6.423172   -4.580507    0.799367
     66          6           0       -7.573156   -4.849668    1.550054
     67          6           0       -8.679092   -3.999141    1.487652
     68          6           0       -8.619109   -2.873845    0.662422
     69          6           0       -9.598905   -1.807327    0.412156
     70          6           0      -10.881696   -1.601630    0.925000
     71          6           0      -11.596083   -0.471277    0.522139
     72          6           0      -11.037761    0.441115   -0.380227
     73          6           0       -9.754247    0.236097   -0.897985
     74          6           0       -9.041195   -0.886802   -0.496616
     75          6           0       -2.343087    1.754546    3.633530
     76          6           0       -0.156912   -0.322626    4.138530
     77          6           0        0.740724   -1.384658    3.912093
     78          6           0        1.818999   -1.219590    3.073430
     79          6           0        2.044422    0.009100    2.398033
     80          6           0        4.430225    1.435081   -0.144506
     81          6           0        5.325065    2.655862    0.100346
     82          6           0        6.027680    2.999227    1.248778
     83          6           0        6.763018    4.189468    1.259455
     84          6           0        6.786782    5.022348    0.135096
     85          6           0        6.079752    4.679721   -1.019458
     86          6           0        5.347142    3.490651   -1.034030
     87          6           0        4.536049    2.869885   -2.090846
     88          6           0        4.257746    3.283256   -3.395684
     89          6           0        3.458680    2.472127   -4.204383
     90          6           0        2.944439    1.265109   -3.717454
     91          6           0        3.218775    0.849962   -2.409803
     92          6           0        4.015295    1.654657   -1.604565
     93          6           0       11.318558   -0.486418   -1.286433
     94          6           0       12.428642    0.315163   -1.546702
     95          1           0       13.385272   -1.019071   -4.526438
     96          1           0       11.372822   -2.427618   -4.079934
     97          1           0        7.893818   -3.834326   -3.027784
     98          1           0        8.017126   -6.278008   -3.387468
     99          1           0       10.059007   -7.543348   -2.726288
    100          1           0       11.967876   -6.326173   -1.687111
    101          1           0       11.829792   -3.887329   -1.302253
    102          1           0        8.744026    0.063757   -2.655938
    103          1           0        6.729513    1.124388   -1.772689
    104          1           0        4.251769   -2.368844    2.413600
    105          1           0        6.270444   -3.363184    1.484690
    106          1           0        8.186745   -3.297613   -0.034488
    107          1           0        2.347509    3.352719    0.345847
    108          1           0        0.498280    3.062054    1.946797
    109          1           0        0.507874    3.424307    4.502406
    110          1           0       -3.557090    4.758736    4.720058
    111          1           0       -4.507375    2.395911    6.438282
    112          1           0       -6.151755    3.297934    8.051565
    113          1           0       -8.230764    4.402885    7.238413
    114          1           0       -8.630220    4.607165    4.788590
    115          1           0       -6.965553    3.736708    3.177736
    116          1           0       -6.616434    0.662932    3.720650
    117          1           0       -7.457876   -0.553606    1.774193
    118          1           0       -4.440679    1.109154   -3.125747
    119          1           0       -3.663345    2.285164   -1.142923
    120          1           0       -3.790732    2.760725    1.253704
    121          1           0       -9.180778   -3.131547   -2.571357
    122          1           0       -8.887594   -3.434066   -5.018940
    123          1           0       -7.767626   -2.896157   -7.087561
    124          1           0       -6.057477   -1.640058   -8.363401
    125          1           0       -4.575938   -0.018793   -7.177880
    126          1           0       -4.795573    0.342217   -4.783558
    127          1           0       -5.468312   -3.248824   -0.614194
    128          1           0       -5.570075   -5.250701    0.861054
    129          1           0       -7.605521   -5.728077    2.189098
    130          1           0       -9.569057   -4.211909    2.074571
    131          1           0      -11.319572   -2.306140    1.627641
    132          1           0      -12.594668   -0.298034    0.914359
    133          1           0      -11.605873    1.316807   -0.682209
    134          1           0       -9.322601    0.944140   -1.600358
    135          1           0       -2.676022    0.803345    3.233833
    136          1           0       -0.981915   -0.454624    4.832704
    137          1           0        0.582651   -2.336491    4.411887
    138          1           0        2.481155   -2.056535    2.902131
    139          1           0        6.008445    2.354242    2.123191
    140          1           0        7.320139    4.469444    2.149397
    141          1           0        7.361919    5.944070    0.159989
    142          1           0        6.103167    5.329632   -1.890551
    143          1           0        4.656141    4.218921   -3.779814
    144          1           0        3.235639    2.780710   -5.222256
    145          1           0        2.326401    0.644092   -4.360220
    146          1           0        2.817065   -0.086447   -2.032014
    147          1           0       10.750692   -0.341096   -0.373323
    148          1           0       12.740749    1.088005   -0.851874
 ---------------------------------------------------------------------

 SCF Done:  E(RB3LYP) =  -3771.38988244     A.U. after   15 cycles

 Excitation energies and oscillator strengths:

 Excited state symmetry could not be determined.
 Excited State   1:      Triplet-?Sym    2.1210 eV  584.57 nm  f=0.0000  <S**2>=2.000
     307 -> 316        0.15037
     310 -> 314       -0.13337
     311 -> 314       -0.26295
     313 -> 314        0.56647
     313 -> 316        0.11264
 This state for optimization and/or second-order correction.
 Total Energy, E(TD-HF/TD-DFT) =  -3771.31193848
 Copying the excited state density for this state as the 1-particle RhoCI density.

 Excited state symmetry could not be determined.
 Excited State   2:      Triplet-?Sym    2.1468 eV  577.53 nm  f=0.0000  <S**2>=2.000
     306 -> 317        0.15515
     310 -> 315       -0.23973
     311 -> 315        0.13853
     312 -> 315        0.57947

 Excited state symmetry could not be determined.
 Excited State   3:      Singlet-?Sym    2.9776 eV  416.39 nm  f=0.5549  <S**2>=0.000
     312 -> 315        0.17653
     313 -> 314        0.66545

 Excited state symmetry could not be determined.
 Excited State   4:      Singlet-?Sym    3.0635 eV  404.71 nm  f=0.4349  <S**2>=0.000
     312 -> 315        0.64636
     313 -> 314       -0.18246
     313 -> 315        0.16096

 Alpha  occ. eigenvalues --  -24.70065 -24.69908 -14.36863 -14.36678 -10.26960
 Alpha  occ. eigenvalues --  -10.26850 -10.23855 -10.23288 -10.23096 -10.23070
 Alpha  occ. eigenvalues --  -10.23053 -10.23046 -10.21446 -10.21431 -10.20697
 Alpha  occ. eigenvalues --  -10.20159 -10.20091 -10.20032 -10.20004 -10.19858
 Alpha  occ. eigenvalues --  -10.19835 -10.19791 -10.19783 -10.19779 -10.19759
 Alpha  occ. eigenvalues --  -10.19738 -10.19722 -10.19706 -10.19700 -10.19623
 Alpha  occ. eigenvalues --  -10.19613 -10.19601 -10.19596 -10.19593 -10.19592
 Alpha  occ. eigenvalues --  -10.19582 -10.19548 -10.19546 -10.19505 -10.19502
 Alpha  occ. eigenvalues --  -10.19474 -10.19465 -10.19433 -10.19402 -10.19240
 Alpha  occ. eigenvalues --  -10.19221 -10.19220 -10.19216 -10.19214 -10.19192
 Alpha  occ. eigenvalues --  -10.19178 -10.19166 -10.19119 -10.19115 -10.19106
 Alpha  occ. eigenvalues --  -10.19085 -10.19083 -10.19075 -10.19066 -10.19054
 Alpha  occ. eigenvalues --  -10.19049 -10.19035 -10.19023 -10.19004 -10.18990
 Alpha  occ. eigenvalues --  -10.18984 -10.18973 -10.18968 -10.18965 -10.18956
 Alpha  occ. eigenvalues --  -10.18947 -10.18933 -10.18932 -10.18896 -10.18894
 Alpha  occ. eigenvalues --  -10.18893 -10.18886 -10.18876 -10.18863 -10.18856
 Alpha  occ. eigenvalues --  -10.18848 -10.18843 -10.18840 -10.18824 -10.18821
 Alpha  occ. eigenvalues --  -10.18820 -10.18812 -10.18767 -10.18765 -10.18749
 Alpha  occ. eigenvalues --  -10.18725 -10.18681 -10.18578 -10.18541  -1.21170
 Alpha  occ. eigenvalues --   -1.21042  -0.96766  -0.96614  -0.90395  -0.90376
 Alpha  occ. eigenvalues --   -0.87843  -0.87626  -0.87123  -0.86650  -0.86145
 Alpha  occ. eigenvalues --   -0.85915  -0.84990  -0.84686  -0.84344  -0.84339
 Alpha  occ. eigenvalues --   -0.83978  -0.83551  -0.81325  -0.81247  -0.80132
 Alpha  occ. eigenvalues --   -0.80051  -0.78783  -0.78332  -0.77939  -0.77056
 Alpha  occ. eigenvalues --   -0.76401  -0.76290  -0.76249  -0.75921  -0.75597
 Alpha  occ. eigenvalues --   -0.75311  -0.74913  -0.74507  -0.74440  -0.74248
 Alpha  occ. eigenvalues --   -0.74243  -0.74060  -0.73923  -0.73458  -0.72990
 Alpha  occ. eigenvalues --   -0.72719  -0.71925  -0.71540  -0.71410  -0.71405
 Alpha  occ. eigenvalues --   -0.69385  -0.69271  -0.68390  -0.68365  -0.64312
 Alpha  occ. eigenvalues --   -0.63969  -0.63796  -0.63762  -0.63599  -0.63125
 Alpha  occ. eigenvalues --   -0.62888  -0.62195  -0.62017  -0.61611  -0.61504
 Alpha  occ. eigenvalues --   -0.60795  -0.60669  -0.60422  -0.60265  -0.60051
 Alpha  occ. eigenvalues --   -0.59222  -0.59127  -0.59067  -0.58407  -0.58401
 Alpha  occ. eigenvalues --   -0.58209  -0.57523  -0.57519  -0.57407  -0.56555
 Alpha  occ. eigenvalues --   -0.56305  -0.56041  -0.54281  -0.53984  -0.53500
 Alpha  occ. eigenvalues --   -0.53292  -0.52745  -0.52685  -0.51871  -0.51513
 Alpha  occ. eigenvalues --   -0.51399  -0.50634  -0.50490  -0.50053  -0.49671
 Alpha  occ. eigenvalues --   -0.49359  -0.49358  -0.49343  -0.49249  -0.49028
 Alpha  occ. eigenvalues --   -0.48671  -0.48436  -0.48324  -0.48285  -0.48142
 Alpha  occ. eigenvalues --   -0.47997  -0.47143  -0.47042  -0.46776  -0.46197
 Alpha  occ. eigenvalues --   -0.45930  -0.45485  -0.45381  -0.45363  -0.45124
 Alpha  occ. eigenvalues --   -0.44923  -0.44800  -0.44569  -0.44226  -0.44223
 Alpha  occ. eigenvalues --   -0.44209  -0.44127  -0.43979  -0.43903  -0.43484
 Alpha  occ. eigenvalues --   -0.43303  -0.43258  -0.43194  -0.43189  -0.42802
 Alpha  occ. eigenvalues --   -0.42622  -0.42240  -0.42169  -0.42057  -0.41923
 Alpha  occ. eigenvalues --   -0.41856  -0.41802  -0.41764  -0.41576  -0.41525
 Alpha  occ. eigenvalues --   -0.41523  -0.41011  -0.40871  -0.40390  -0.40210
 Alpha  occ. eigenvalues --   -0.40050  -0.39935  -0.39799  -0.39436  -0.39357
 Alpha  occ. eigenvalues --   -0.39113  -0.38994  -0.38769  -0.38607  -0.38452
 Alpha  occ. eigenvalues --   -0.38388  -0.37845  -0.37575  -0.37477  -0.37240
 Alpha  occ. eigenvalues --   -0.37004  -0.36828  -0.36532  -0.36415  -0.36384
 Alpha  occ. eigenvalues --   -0.36097  -0.35981  -0.35946  -0.35891  -0.35713
 Alpha  occ. eigenvalues --   -0.35614  -0.35480  -0.35419  -0.35264  -0.34915
 Alpha  occ. eigenvalues --   -0.34795  -0.34723  -0.34579  -0.34453  -0.34385
 Alpha  occ. eigenvalues --   -0.34273  -0.33977  -0.33913  -0.33265  -0.33232
 Alpha  occ. eigenvalues --   -0.32868  -0.32839  -0.32761  -0.32613  -0.32035
 Alpha  occ. eigenvalues --   -0.31864  -0.31742  -0.31698  -0.30355  -0.30104
 Alpha  occ. eigenvalues --   -0.28906  -0.28777  -0.28151  -0.28146  -0.27865
 Alpha  occ. eigenvalues --   -0.27593  -0.26374  -0.26173  -0.25447  -0.25384
 Alpha  occ. eigenvalues --   -0.25325  -0.25238  -0.25042  -0.24826  -0.24672
 Alpha  occ. eigenvalues --   -0.24460  -0.24453  -0.23965  -0.23546  -0.23513
 Alpha  occ. eigenvalues --   -0.22253  -0.22125  -0.21606  -0.21545  -0.20369
 Alpha  occ. eigenvalues --   -0.20111  -0.17961  -0.17729
 Alpha virt. eigenvalues --   -0.05288  -0.05181  -0.03774  -0.03458  -0.03235
 Alpha virt. eigenvalues --   -0.03227  -0.02132  -0.01387  -0.01373  -0.01330
 Alpha virt. eigenvalues --   -0.01327  -0.01228  -0.01057  -0.00893  -0.00395

 Mulliken charges:
               1
     1  F   -0.300308
     2  C    0.379735
     3  C   -0.207442
     4  C   -0.159439
     5  C    0.273531
     6  N   -0.658331
     7  C    0.276396
     8  C   -0.158254
     9  C   -0.140592
    10  C   -0.128267
    11  C   -0.139970
    12  C   -0.165845
    13  C    0.300952
    14  C   -0.182600
    15  C   -0.185645
    16  C    0.104044
    17  C   -0.001153
    18  C    0.079384
    19  C   -0.200689
    20  C   -0.205078
    21  C    0.154352
    22  C   -0.279772
    23  C   -0.052797
    24  C    0.129086
    25  C   -0.189331
    26  C   -0.213280
    27  C    0.105860
    28  C    0.009569
    29  C    0.050997
    30  C   -0.246116
    31  C    0.389223
    32  F   -0.301928
    33  C   -0.255390
    34  C    0.302086
    35  N   -0.664524
    36  C    0.270567
    37  C   -0.157166
    38  C   -0.139735
    39  C   -0.126826
    40  C   -0.139420
    41  C   -0.162661
    42  C    0.293223
    43  C   -0.179017
    44  C   -0.185926
    45  C    0.105299
    46  C   -0.001578
    47  C    0.076665
    48  C   -0.196782
    49  C   -0.204014
    50  C    0.153684
    51  C   -0.271444
    52  C   -0.052714
    53  C    0.123132
    54  C   -0.187067
    55  C   -0.203717
    56  C    0.148083
    57  C   -0.204924
    58  C   -0.129451
    59  C   -0.144782
    60  C   -0.181298
    61  C    0.088125
    62  C   -0.266525
    63  C    0.118442
    64  C   -0.186793
    65  C   -0.135205
    66  C   -0.134908
    67  C   -0.190736
    68  C    0.064539
    69  C    0.064873
    70  C   -0.190475
    71  C   -0.134824
    72  C   -0.135368
    73  C   -0.186969
    74  C    0.118887
    75  C   -0.210958
    76  C   -0.172379
    77  C   -0.145644
    78  C   -0.179215
    79  C    0.082881
    80  C   -0.266527
    81  C    0.119037
    82  C   -0.187174
    83  C   -0.135408
    84  C   -0.134733
    85  C   -0.190199
    86  C    0.064972
    87  C    0.064563
    88  C   -0.190696
    89  C   -0.134983
    90  C   -0.135456
    91  C   -0.187115
    92  C    0.119027
    93  C   -0.163889
    94  C   -0.207325
    95  H    0.148515
    96  H    0.152728
    97  H    0.145014
    98  H    0.132438
    99  H    0.128389
   100  H    0.132138
   101  H    0.143043
   102  H    0.145595
   103  H    0.152705
   104  H    0.140200
   105  H    0.129955
   106  H    0.143117
   107  H    0.140494
   108  H    0.145181
   109  H    0.152114
   110  H    0.159179
   111  H    0.143251
   112  H    0.133406
   113  H    0.129502
   114  H    0.133652
   115  H    0.147552
   116  H    0.146708
   117  H    0.152877
   118  H    0.143388
   119  H    0.132056
   120  H    0.142476
   121  H    0.140553
   122  H    0.129623
   123  H    0.129509
   124  H    0.129226
   125  H    0.128487
   126  H    0.137328
   127  H    0.142228
   128  H    0.130973
   129  H    0.129535
   130  H    0.129994
   131  H    0.130049
   132  H    0.129554
   133  H    0.130588
   134  H    0.141452
   135  H    0.151799
   136  H    0.134844
   137  H    0.130660
   138  H    0.136375
   139  H    0.141135
   140  H    0.130884
   141  H    0.130176
   142  H    0.130405
   143  H    0.130483
   144  H    0.129528
   145  H    0.130649
   146  H    0.141567
   147  H    0.155153
   148  H    0.149129
 Sum of Mulliken charges =  -0.00000

 Dipole moment (field-independent basis, Debye):
    X=             -1.6641    Y=             -1.9225    Z=             -0.3690  Tot=              2.5693
 Quadrupole moment (field-independent basis, Debye-Ang):
   XX=           -508.2831   YY=           -504.2232   ZZ=           -501.6516
   XY=             -6.0386   XZ=             -9.8490   YZ=             -8.5942

 Normal termination of Gaussian 16 at Sat Nov  5 12:32:35 2022.
