 Gaussian 16, Revision B.01,
 Gaussian 16:  ES64L-G16RevB.01 20-Dec-2017

 -------------------------------------------------------------------
 #p b3lyp/6-31g(d) 6D 10F nosymm GFInput td=(50-50,nstate=2) SCF=XQC
 -------------------------------------------------------------------

 ------------------------------
 Gaussian input prepared by ASE
 ------------------------------
 Symbolic Z-matrix:
 Charge =  0 Multiplicity = 1

                          Input orientation:
 ---------------------------------------------------------------------
 Center     Atomic      Atomic             Coordinates (Angstroms)
 Number     Number       Type             X           Y           Z
 ---------------------------------------------------------------------
      1          6           0       10.134356   -1.169380   -1.195702
      2          6           0        9.536178   -1.428787    0.205415
      3          6           0       10.120479   -0.422275    1.222169
      4          6           0        9.769028   -2.871638    0.652584
      5          6           0       10.971908   -3.536301    0.864567
      6          6           0       10.948907   -4.873651    1.277498
      7          6           0        9.733076   -5.537469    1.475780
      8          6           0        8.521673   -4.876574    1.265002
      9          6           0        8.544984   -3.541897    0.852904
     10          6           0        7.452330   -2.609967    0.558881
     11          6           0        6.065424   -2.777095    0.602922
     12          6           0        5.243549   -1.705267    0.266906
     13          6           0        5.789726   -0.465769   -0.113748
     14          6           0        4.900269    0.662736   -0.468899
     15          7           0        5.470618    1.823659   -0.832492
     16          6           0        4.626476    2.817444   -1.147270
     17          6           0        5.208610    4.120040   -1.555204
     18          6           0        6.600812    4.291043   -1.608452
     19          6           0        7.145223    5.514319   -1.991396
     20          6           0        6.307826    6.581490   -2.325664
     21          6           0        4.921224    6.418751   -2.274974
     22          6           0        4.373559    5.196735   -1.892523
     23          7           0        3.289208    2.710319   -1.117444
     24          6           0        2.808342    1.514458   -0.741042
     25          6           0        1.337947    1.344625   -0.690006
     26          6           0        0.770817    0.122507   -0.296819
     27          6           0       -0.608902   -0.034866   -0.249725
     28          6           0       -1.474225    1.020167   -0.591514
     29          6           0       -2.946114    0.851362   -0.542375
     30          6           0       -3.780903    1.470621   -1.486310
     31          6           0       -5.164409    1.306268   -1.438062
     32          6           0       -5.738624    0.521354   -0.445287
     33          6           0       -4.921362   -0.103496    0.503309
     34          6           0       -3.544196    0.060441    0.454743
     35          8           0       -5.445723   -0.882449    1.511954
     36          6           0       -6.822595   -1.013929    1.541248
     37          6           0       -7.374103   -1.789588    2.556029
     38          6           0       -8.761175   -1.960929    2.635769
     39          6           0       -9.576284   -1.349493    1.693148
     40          6           0       -9.019988   -0.561475    0.662687
     41          6           0       -7.638995   -0.393757    0.587287
     42          8           0       -7.110270    0.381896   -0.427836
     43          6           0      -10.104115   -0.043543   -0.180405
     44          6           0      -10.083475    0.774221   -1.313952
     45          6           0      -11.295725    1.111171   -1.920563
     46          6           0      -12.507850    0.640995   -1.406096
     47          6           0      -12.526963   -0.177926   -0.270944
     48          6           0      -11.325924   -0.518863    0.339967
     49          6           0      -11.099106   -1.389249    1.574363
     50          6           0      -11.607787   -2.831018    1.348081
     51          6           0      -11.776424   -0.782096    2.823823
     52          6           0       -0.897238    2.241800   -0.983276
     53          6           0        0.481985    2.402634   -1.033172
     54          7           0        3.573392    0.463944   -0.408285
     55          6           0        7.188440   -0.305655   -0.155473
     56          6           0        8.008792   -1.370801    0.178787
     57          1           0        9.734005   -1.873152   -1.932372
     58          1           0       11.225095   -1.277083   -1.176643
     59          1           0        9.902238   -0.152569   -1.532552
     60          1           0        9.709914   -0.588962    2.223125
     61          1           0        9.888369    0.606586    0.924111
     62          1           0       11.210976   -0.518668    1.278842
     63          1           0       11.923016   -3.030917    0.713683
     64          1           0       11.883982   -5.401318    1.445625
     65          1           0        9.732232   -6.575797    1.796416
     66          1           0        7.579118   -5.395470    1.419991
     67          1           0        5.627037   -3.727996    0.894395
     68          1           0        4.165111   -1.809590    0.293005
     69          1           0        7.240573    3.456014   -1.346939
     70          1           0        8.224391    5.636353   -2.029434
     71          1           0        6.733974    7.535731   -2.624292
     72          1           0        4.265941    7.246051   -2.533947
     73          1           0        3.299271    5.058906   -1.849428
     74          1           0        1.427061   -0.700916   -0.039164
     75          1           0       -1.025104   -0.998358    0.030220
     76          1           0       -3.346353    2.062785   -2.285102
     77          1           0       -5.813151    1.774146   -2.171916
     78          1           0       -2.947147   -0.416519    1.224988
     79          1           0       -6.702359   -2.250572    3.273027
     80          1           0       -9.180669   -2.568955    3.432485
     81          1           0       -9.143685    1.138627   -1.712959
     82          1           0      -11.295447    1.746150   -2.802608
     83          1           0      -13.442058    0.912737   -1.890372
     84          1           0      -13.474166   -0.539460    0.122792
     85          1           0      -11.381560   -3.462312    2.215270
     86          1           0      -11.139800   -3.280265    0.466426
     87          1           0      -12.693966   -2.839130    1.200779
     88          1           0      -12.865276   -0.757520    2.699889
     89          1           0      -11.429472    0.240580    3.002446
     90          1           0      -11.553056   -1.380307    3.714864
     91          1           0       -1.540209    3.083405   -1.224288
     92          1           0        0.914398    3.351868   -1.328207
     93          1           0        7.594100    0.656103   -0.450872
 ---------------------------------------------------------------------

 SCF Done:  E(RB3LYP) =  -2280.50497353     A.U. after   16 cycles

 Excitation energies and oscillator strengths:

 Excited state symmetry could not be determined.
 Excited State   1:      Triplet-?Sym    2.6003 eV  476.81 nm  f=0.0000  <S**2>=2.000
     187 ->191         0.20746
     187 ->192        -0.12526
     188 ->191        -0.31102
     188 ->192        -0.19209
     190 ->191         0.36767
     190 ->192        -0.21332
     190 ->193        -0.16778
     190 ->195        -0.10319
 This state for optimization and/or second-order correction.
 Total Energy, E(TD-HF/TD-DFT) =  -2280.40941388
 Copying the excited state density for this state as the 1-particle RhoCI density.

 Excited state symmetry could not be determined.
 Excited State   2:      Triplet-?Sym    2.6685 eV  464.62 nm  f=0.0000  <S**2>=2.000
     188 ->191         0.41800
     188 ->192         0.26785
     188 ->193         0.14163
     188 ->194         0.11071
     190 ->191         0.29506
     190 ->192        -0.15841
     190 ->193        -0.14149
     190 ->195        -0.10244

 Excited state symmetry could not be determined.
 Excited State   3:      Singlet-?Sym    3.0839 eV  402.04 nm  f=0.4143  <S**2>=0.000
     190 ->191         0.66851
     190 ->192        -0.19501

 Excited state symmetry could not be determined.
 Excited State   4:      Singlet-?Sym    3.2220 eV  384.80 nm  f=0.0302  <S**2>=0.000
     190 ->191         0.20039
     190 ->192         0.67196

 Alpha  occ. eigenvalues --  -19.20740 -19.20313 -14.33224 -14.33221 -14.33218
 Alpha  occ. eigenvalues --  -10.27165 -10.27160 -10.27133 -10.26158 -10.26102
 Alpha  occ. eigenvalues --  -10.25952 -10.25780 -10.20906 -10.20851 -10.20719
 Alpha  occ. eigenvalues --  -10.20653 -10.20044 -10.19998 -10.19862 -10.19861
 Alpha  occ. eigenvalues --  -10.19835 -10.19765 -10.19731 -10.19709 -10.19599
 Alpha  occ. eigenvalues --  -10.19599 -10.19432 -10.19375 -10.19361 -10.19268
 Alpha  occ. eigenvalues --  -10.19263 -10.19259 -10.19236 -10.19218 -10.19215
 Alpha  occ. eigenvalues --  -10.19210 -10.19203 -10.19201 -10.19152 -10.19138
 Alpha  occ. eigenvalues --  -10.19122 -10.19104 -10.19096 -10.19080 -10.19052
 Alpha  occ. eigenvalues --  -10.19041 -10.18992 -10.18924 -10.18885 -10.18828
 Alpha  occ. eigenvalues --  -10.18717 -10.18640 -10.18143 -10.18140 -10.18073
 Alpha  occ. eigenvalues --  -10.18072  -1.11144  -1.07740  -1.01540  -0.90206
 Alpha  occ. eigenvalues --   -0.90167  -0.89333  -0.88830  -0.87494  -0.85579
 Alpha  occ. eigenvalues --   -0.85207  -0.84363  -0.84178  -0.81376  -0.81286
 Alpha  occ. eigenvalues --   -0.78947  -0.78041  -0.77861  -0.76222  -0.76084
 Alpha  occ. eigenvalues --   -0.75018  -0.74722  -0.74557  -0.74304  -0.73441
 Alpha  occ. eigenvalues --   -0.73260  -0.72688  -0.71987  -0.71675  -0.68833
 Alpha  occ. eigenvalues --   -0.68760  -0.67864  -0.67168  -0.66311  -0.64540
 Alpha  occ. eigenvalues --   -0.64199  -0.63014  -0.62296  -0.61804  -0.60849
 Alpha  occ. eigenvalues --   -0.60598  -0.59677  -0.59321  -0.58498  -0.57953
 Alpha  occ. eigenvalues --   -0.57716  -0.57314  -0.56600  -0.55677  -0.54548
 Alpha  occ. eigenvalues --   -0.53800  -0.53117  -0.52143  -0.51369  -0.50958
 Alpha  occ. eigenvalues --   -0.50350  -0.49558  -0.48987  -0.47927  -0.47460
 Alpha  occ. eigenvalues --   -0.47455  -0.47279  -0.46149  -0.46018  -0.45312
 Alpha  occ. eigenvalues --   -0.45183  -0.44971  -0.44814  -0.44538  -0.44453
 Alpha  occ. eigenvalues --   -0.44220  -0.43945  -0.43707  -0.43330  -0.43112
 Alpha  occ. eigenvalues --   -0.43103  -0.43053  -0.42877  -0.42753  -0.42521
 Alpha  occ. eigenvalues --   -0.42255  -0.42003  -0.41682  -0.41283  -0.41184
 Alpha  occ. eigenvalues --   -0.41104  -0.40930  -0.39977  -0.39307  -0.39241
 Alpha  occ. eigenvalues --   -0.38859  -0.38578  -0.38448  -0.38232  -0.38149
 Alpha  occ. eigenvalues --   -0.37925  -0.37807  -0.36971  -0.36427  -0.36294
 Alpha  occ. eigenvalues --   -0.36261  -0.35643  -0.35447  -0.35378  -0.34968
 Alpha  occ. eigenvalues --   -0.34887  -0.34502  -0.34444  -0.34423  -0.34281
 Alpha  occ. eigenvalues --   -0.34101  -0.33379  -0.33067  -0.32624  -0.32492
 Alpha  occ. eigenvalues --   -0.32086  -0.32021  -0.31875  -0.31722  -0.28338
 Alpha  occ. eigenvalues --   -0.27612  -0.27122  -0.25824  -0.25783  -0.25575
 Alpha  occ. eigenvalues --   -0.25415  -0.25197  -0.24957  -0.24612  -0.24429
 Alpha  occ. eigenvalues --   -0.24392  -0.23301  -0.21477  -0.21275  -0.19562
 Alpha virt. eigenvalues --   -0.06981  -0.06632  -0.03486  -0.03085  -0.01584
 Alpha virt. eigenvalues --   -0.00961  -0.00859  -0.00304  -0.00018   0.00247
 Alpha virt. eigenvalues --    0.00744   0.01264   0.02581   0.04035   0.05082

 Mulliken charges:
               1
     1  C   -0.437676
     2  C   -0.061707
     3  C   -0.437665
     4  C    0.103842
     5  C   -0.202982
     6  C   -0.129816
     7  C   -0.136731
     8  C   -0.189661
     9  C    0.077863
    10  C    0.096221
    11  C   -0.202638
    12  C   -0.176281
    13  C    0.081934
    14  C    0.452576
    15  N   -0.544196
    16  C    0.449918
    17  C    0.076766
    18  C   -0.156400
    19  C   -0.140153
    20  C   -0.116165
    21  C   -0.140039
    22  C   -0.156671
    23  N   -0.543679
    24  C    0.451165
    25  C    0.082813
    26  C   -0.165756
    27  C   -0.186129
    28  C    0.103784
    29  C    0.094422
    30  C   -0.180847
    31  C   -0.215728
    32  C    0.364590
    33  C    0.347105
    34  C   -0.266829
    35  O   -0.578442
    36  C    0.363640
    37  C   -0.210424
    38  C   -0.211670
    39  C    0.104816
    40  C   -0.017493
    41  C    0.269620
    42  O   -0.581119
    43  C    0.095380
    44  C   -0.186872
    45  C   -0.138017
    46  C   -0.130755
    47  C   -0.202877
    48  C    0.101620
    49  C   -0.071089
    50  C   -0.436496
    51  C   -0.436495
    52  C   -0.188780
    53  C   -0.165091
    54  N   -0.547124
    55  C   -0.245671
    56  C    0.098627
    57  H    0.158137
    58  H    0.144019
    59  H    0.147984
    60  H    0.158118
    61  H    0.148020
    62  H    0.144023
    63  H    0.126424
    64  H    0.129301
    65  H    0.129907
    66  H    0.131433
    67  H    0.132133
    68  H    0.159729
    69  H    0.159385
    70  H    0.132677
    71  H    0.133339
    72  H    0.133379
    73  H    0.160776
    74  H    0.162179
    75  H    0.136623
    76  H    0.139452
    77  H    0.150650
    78  H    0.152589
    79  H    0.145954
    80  H    0.129369
    81  H    0.145784
    82  H    0.127886
    83  H    0.127360
    84  H    0.124235
    85  H    0.143845
    86  H    0.158439
    87  H    0.144994
    88  H    0.144985
    89  H    0.158488
    90  H    0.143882
    91  H    0.135344
    92  H    0.161666
    93  H    0.156955
 Sum of Mulliken charges =  -0.00000

 Dipole moment (field-independent basis, Debye):
    X=             -0.0777    Y=             -0.3596    Z=              0.2590  Tot=              0.4499
 Quadrupole moment (field-independent basis, Debye-Ang):
   XX=           -257.5312   YY=           -295.9298   ZZ=           -316.6940
   XY=              3.4688   XZ=             -4.0015   YZ=            -17.2565

 Normal termination of Gaussian 16 at Sat Nov  5 10:21:02 2022.
