 Gaussian 16, Revision B.01,
 Gaussian 16:  ES64L-G16RevB.01 20-Dec-2017

 -----------------------------
 #p b3lyp/6-31g(d) opt SCF=XQC
 -----------------------------

 ------------------------------
 Gaussian input prepared by ASE
 ------------------------------
 Symbolic Z-matrix:
 Charge =  0 Multiplicity = 1

 SCF Done:  E(RB3LYP) =  -2280.49523993     A.U. after   16 cycles
 SCF Done:  E(RB3LYP) =  -2280.50469589     A.U. after   12 cycles
 SCF Done:  E(RB3LYP) =  -2280.50495688     A.U. after   10 cycles
 SCF Done:  E(RB3LYP) =  -2280.50497511     A.U. after   10 cycles
 SCF Done:  E(RB3LYP) =  -2280.50497761     A.U. after    9 cycles
 SCF Done:  E(RB3LYP) =  -2280.50497784     A.U. after    7 cycles
 SCF Done:  E(RB3LYP) =  -2280.50497787     A.U. after    6 cycles
 SCF Done:  E(RB3LYP) =  -2280.50497788     A.U. after    6 cycles
 SCF Done:  E(RB3LYP) =  -2280.50497790     A.U. after    6 cycles
 SCF Done:  E(RB3LYP) =  -2280.50497793     A.U. after    7 cycles
 SCF Done:  E(RB3LYP) =  -2280.50497794     A.U. after    5 cycles
 Optimization completed.
    -- Stationary point found.

                         Standard orientation:
 ---------------------------------------------------------------------
 Center     Atomic      Atomic             Coordinates (Angstroms)
 Number     Number       Type             X           Y           Z
 ---------------------------------------------------------------------
      1          6           0       10.249999   -0.786020   -1.212243
      2          6           0        9.607271   -1.563544   -0.041519
      3          6           0       10.152662   -1.034832    1.304318
      4          6           0        9.832513   -3.068746   -0.181624
      5          6           0       11.031080   -3.773381   -0.205217
      6          6           0       11.001211   -5.165980   -0.344221
      7          6           0        9.782862   -5.844818   -0.458322
      8          6           0        8.575754   -5.144053   -0.435355
      9          6           0        8.605919   -3.754243   -0.296612
     10          6           0        7.518875   -2.772348   -0.241378
     11          6           0        6.132129   -2.932171   -0.310472
     12          6           0        5.316394   -1.807250   -0.230910
     13          6           0        5.868576   -0.521623   -0.083204
     14          6           0        4.985641    0.663509   -0.001475
     15          7           0        5.561815    1.869900    0.132257
     16          6           0        4.723518    2.914832    0.200397
     17          6           0        5.312219    4.268904    0.348605
     18          6           0        6.704541    4.435825    0.410892
     19          6           0        7.255117    5.707404    0.550140
     20          6           0        6.423833    6.827480    0.629004
     21          6           0        5.037150    6.669122    0.567746
     22          6           0        4.483334    5.398923    0.428428
     23          7           0        3.386549    2.815422    0.143083
     24          6           0        2.899562    1.571132    0.010495
     25          6           0        1.429158    1.406784   -0.055904
     26          6           0        0.855532    0.132487   -0.186002
     27          6           0       -0.524179   -0.019588   -0.248268
     28          6           0       -1.383064    1.092445   -0.181943
     29          6           0       -2.854905    0.929792   -0.249739
     30          6           0       -3.661229    1.873398   -0.906104
     31          6           0       -5.044729    1.714474   -0.970135
     32          6           0       -5.647401    0.610721   -0.378587
     33          6           0       -4.858719   -0.339705    0.279337
     34          6           0       -3.481544   -0.180988    0.342709
     35          8           0       -5.412119   -1.444523    0.889428
     36          6           0       -6.788529   -1.565852    0.820899
     37          6           0       -7.369279   -2.669792    1.437042
     38          6           0       -8.757346   -2.847340    1.399194
     39          6           0       -9.544005   -1.911614    0.741642
     40          6           0       -8.958014   -0.790241    0.116003
     41          6           0       -7.576148   -0.617666    0.156247
     42          8           0       -7.018157    0.486587   -0.460950
     43          6           0      -10.016352    0.022900   -0.494827
     44          6           0       -9.962472    1.216028   -1.221213
     45          6           0      -11.155746    1.771699   -1.688533
     46          6           0      -12.381790    1.148712   -1.436157
     47          6           0      -12.434192   -0.046117   -0.708693
     48          6           0      -11.252244   -0.607038   -0.239320
     49          6           0      -11.061864   -1.889790    0.567559
     50          6           0      -11.555545   -3.126818   -0.216469
     51          6           0      -11.783051   -1.809132    1.932084
     52          6           0       -0.799632    2.365662   -0.050401
     53          6           0        0.579658    2.522017    0.010610
     54          7           0        3.658505    0.467585   -0.065640
     55          6           0        7.267082   -0.369258   -0.014315
     56          6           0        8.081320   -1.487327   -0.092952
     57          1           0        9.877699   -1.145793   -2.176720
     58          1           0       11.340045   -0.901570   -1.201184
     59          1           0       10.023996    0.283708   -1.135716
     60          1           0        9.710167   -1.573256    2.148449
     61          1           0        9.925327    0.030960    1.421253
     62          1           0       11.241169   -1.154540    1.354404
     63          1           0       11.984090   -3.256799   -0.117458
     64          1           0       11.932880   -5.725156   -0.363744
     65          1           0        9.776674   -6.926193   -0.565664
     66          1           0        7.631226   -5.674751   -0.524297
     67          1           0        5.689164   -3.918089   -0.424922
     68          1           0        4.238220   -1.904741   -0.282200
     69          1           0        7.339528    3.559542    0.348645
     70          1           0        8.334324    5.825842    0.597324
     71          1           0        6.854785    7.819352    0.737762
     72          1           0        4.386605    7.537422    0.628834
     73          1           0        3.408916    5.263925    0.379935
     74          1           0        1.507063   -0.731738   -0.246770
     75          1           0       -0.944529   -1.012822   -0.377502
     76          1           0       -3.203568    2.725408   -1.398227
     77          1           0       -5.671273    2.435572   -1.485671
     78          1           0       -2.907818   -0.924148    0.886573
     79          1           0       -6.719225   -3.378188    1.940468
     80          1           0       -9.199810   -3.713288    1.883742
     81          1           0       -9.011885    1.698970   -1.417055
     82          1           0      -11.129587    2.698993   -2.254787
     83          1           0      -13.300882    1.594577   -1.807084
     84          1           0      -13.392028   -0.524308   -0.516832
     85          1           0      -11.354854   -4.046800    0.344854
     86          1           0      -11.056493   -3.202844   -1.187714
     87          1           0      -12.636224   -3.068328   -0.390430
     88          1           0      -12.867335   -1.729552    1.792240
     89          1           0      -11.447328   -0.938596    2.504452
     90          1           0      -11.586170   -2.707847    2.528115
     91          1           0       -1.438537    3.240083    0.033178
     92          1           0        1.016779    3.507829    0.120940
     93          1           0        7.677413    0.628456    0.099671
 ---------------------------------------------------------------------

 The electronic state is 1-A.
 Alpha  occ. eigenvalues --  -19.20740 -19.20313 -14.33224 -14.33221 -14.33218
 Alpha  occ. eigenvalues --  -10.27165 -10.27160 -10.27133 -10.26158 -10.26102
 Alpha  occ. eigenvalues --  -10.25952 -10.25780 -10.20906 -10.20851 -10.20719
 Alpha  occ. eigenvalues --  -10.20653 -10.20044 -10.19998 -10.19862 -10.19861
 Alpha  occ. eigenvalues --  -10.19835 -10.19765 -10.19731 -10.19709 -10.19599
 Alpha  occ. eigenvalues --  -10.19599 -10.19432 -10.19375 -10.19362 -10.19268
 Alpha  occ. eigenvalues --  -10.19263 -10.19259 -10.19236 -10.19218 -10.19215
 Alpha  occ. eigenvalues --  -10.19210 -10.19204 -10.19201 -10.19152 -10.19138
 Alpha  occ. eigenvalues --  -10.19122 -10.19104 -10.19096 -10.19080 -10.19052
 Alpha  occ. eigenvalues --  -10.19041 -10.18993 -10.18924 -10.18885 -10.18828
 Alpha  occ. eigenvalues --  -10.18717 -10.18640 -10.18143 -10.18140 -10.18073
 Alpha  occ. eigenvalues --  -10.18072  -1.11144  -1.07740  -1.01540  -0.90206
 Alpha  occ. eigenvalues --   -0.90167  -0.89333  -0.88830  -0.87494  -0.85579
 Alpha  occ. eigenvalues --   -0.85207  -0.84363  -0.84178  -0.81376  -0.81286
 Alpha  occ. eigenvalues --   -0.78947  -0.78041  -0.77861  -0.76222  -0.76084
 Alpha  occ. eigenvalues --   -0.75018  -0.74722  -0.74557  -0.74304  -0.73441
 Alpha  occ. eigenvalues --   -0.73260  -0.72688  -0.71987  -0.71675  -0.68833
 Alpha  occ. eigenvalues --   -0.68760  -0.67864  -0.67168  -0.66311  -0.64540
 Alpha  occ. eigenvalues --   -0.64199  -0.63014  -0.62296  -0.61804  -0.60849
 Alpha  occ. eigenvalues --   -0.60598  -0.59677  -0.59321  -0.58498  -0.57953
 Alpha  occ. eigenvalues --   -0.57716  -0.57314  -0.56600  -0.55677  -0.54548
 Alpha  occ. eigenvalues --   -0.53800  -0.53117  -0.52143  -0.51369  -0.50958
 Alpha  occ. eigenvalues --   -0.50350  -0.49558  -0.48987  -0.47927  -0.47460
 Alpha  occ. eigenvalues --   -0.47455  -0.47279  -0.46149  -0.46018  -0.45312
 Alpha  occ. eigenvalues --   -0.45183  -0.44971  -0.44814  -0.44538  -0.44453
 Alpha  occ. eigenvalues --   -0.44220  -0.43945  -0.43707  -0.43330  -0.43112
 Alpha  occ. eigenvalues --   -0.43103  -0.43053  -0.42877  -0.42753  -0.42521
 Alpha  occ. eigenvalues --   -0.42255  -0.42003  -0.41682  -0.41283  -0.41184
 Alpha  occ. eigenvalues --   -0.41104  -0.40930  -0.39977  -0.39307  -0.39241
 Alpha  occ. eigenvalues --   -0.38859  -0.38578  -0.38448  -0.38232  -0.38149
 Alpha  occ. eigenvalues --   -0.37925  -0.37807  -0.36971  -0.36427  -0.36294
 Alpha  occ. eigenvalues --   -0.36261  -0.35643  -0.35447  -0.35378  -0.34968
 Alpha  occ. eigenvalues --   -0.34887  -0.34502  -0.34444  -0.34423  -0.34281
 Alpha  occ. eigenvalues --   -0.34101  -0.33379  -0.33067  -0.32624  -0.32492
 Alpha  occ. eigenvalues --   -0.32086  -0.32021  -0.31875  -0.31722  -0.28338
 Alpha  occ. eigenvalues --   -0.27612  -0.27122  -0.25824  -0.25783  -0.25575
 Alpha  occ. eigenvalues --   -0.25415  -0.25197  -0.24957  -0.24612  -0.24429
 Alpha  occ. eigenvalues --   -0.24392  -0.23301  -0.21477  -0.21275  -0.19562
 Alpha virt. eigenvalues --   -0.06981  -0.06632  -0.03486  -0.03085  -0.01584
 Alpha virt. eigenvalues --   -0.00961  -0.00859  -0.00304  -0.00018   0.00247
 Alpha virt. eigenvalues --    0.00744   0.01264   0.02581   0.04035   0.05082

 Mulliken charges:
               1
     1  C   -0.437674
     2  C   -0.061718
     3  C   -0.437661
     4  C    0.103863
     5  C   -0.202985
     6  C   -0.129819
     7  C   -0.136730
     8  C   -0.189646
     9  C    0.077850
    10  C    0.096218
    11  C   -0.202640
    12  C   -0.176277
    13  C    0.081938
    14  C    0.452548
    15  N   -0.544190
    16  C    0.449933
    17  C    0.076762
    18  C   -0.156403
    19  C   -0.140152
    20  C   -0.116164
    21  C   -0.140043
    22  C   -0.156665
    23  N   -0.543667
    24  C    0.451129
    25  C    0.082827
    26  C   -0.165756
    27  C   -0.186130
    28  C    0.103781
    29  C    0.094435
    30  C   -0.180850
    31  C   -0.215731
    32  C    0.364604
    33  C    0.347106
    34  C   -0.266838
    35  O   -0.578450
    36  C    0.363645
    37  C   -0.210426
    38  C   -0.211678
    39  C    0.104824
    40  C   -0.017463
    41  C    0.269606
    42  O   -0.581121
    43  C    0.095345
    44  C   -0.186850
    45  C   -0.138019
    46  C   -0.130760
    47  C   -0.202871
    48  C    0.101616
    49  C   -0.071088
    50  C   -0.436503
    51  C   -0.436494
    52  C   -0.188783
    53  C   -0.165095
    54  N   -0.547102
    55  C   -0.245672
    56  C    0.098614
    57  H    0.158138
    58  H    0.144020
    59  H    0.147982
    60  H    0.158117
    61  H    0.148018
    62  H    0.144023
    63  H    0.126424
    64  H    0.129301
    65  H    0.129907
    66  H    0.131433
    67  H    0.132133
    68  H    0.159729
    69  H    0.159385
    70  H    0.132678
    71  H    0.133339
    72  H    0.133379
    73  H    0.160776
    74  H    0.162178
    75  H    0.136623
    76  H    0.139451
    77  H    0.150651
    78  H    0.152589
    79  H    0.145955
    80  H    0.129369
    81  H    0.145783
    82  H    0.127886
    83  H    0.127360
    84  H    0.124236
    85  H    0.143846
    86  H    0.158440
    87  H    0.144994
    88  H    0.144986
    89  H    0.158489
    90  H    0.143880
    91  H    0.135344
    92  H    0.161667
    93  H    0.156958
 Sum of Mulliken charges =  -0.00000

 Dipole moment (field-independent basis, Debye):
    X=             -0.0844    Y=             -0.4312    Z=              0.0967  Tot=              0.4499
 Quadrupole moment (field-independent basis, Debye-Ang):
   XX=           -257.3863   YY=           -286.7144   ZZ=           -325.9872
   XY=              4.6332   XZ=             -0.1578   YZ=             -4.4927

 Normal termination of Gaussian 16 at Sat Nov  5 00:20:52 2022.
