 Gaussian 16, Revision B.01,
 Gaussian 16:  ES64L-G16RevB.01 20-Dec-2017

 -------------------------------------------------------------------
 #p b3lyp/6-31g(d) 6D 10F nosymm GFInput td=(50-50,nstate=2) SCF=XQC
 -------------------------------------------------------------------

 ------------------------------
 Gaussian input prepared by ASE
 ------------------------------
 Symbolic Z-matrix:
 Charge =  0 Multiplicity = 1

                          Input orientation:
 ---------------------------------------------------------------------
 Center     Atomic      Atomic             Coordinates (Angstroms)
 Number     Number       Type             X           Y           Z
 ---------------------------------------------------------------------
      1          6           0        9.442178    1.392272   -2.149017
      2          6           0        8.846389    2.442084   -2.850282
      3          6           0        7.458378    2.517061   -2.956990
      4          6           0        6.633938    1.544648   -2.365923
      5          6           0        5.154277    1.628163   -2.482358
      6          6           0        4.548212    2.062047   -3.674322
      7          6           0        3.159903    2.128883   -3.769690
      8          6           0        2.349495    1.777093   -2.691567
      9          6           0        2.935561    1.331525   -1.496617
     10          7           0        2.146437    0.959638   -0.371691
     11          6           0        0.852577    0.392366   -0.562528
     12          6           0        0.684671   -0.648845   -1.506519
     13          6           0       -0.551507   -1.244938   -1.727001
     14          6           0       -1.641675   -0.803436   -0.972068
     15          6           0       -1.489146    0.217000   -0.002057
     16          6           0       -0.243153    0.824872    0.188290
     17          6           0       -2.785383    0.405125    0.611155
     18          6           0       -3.274653    1.255680    1.609123
     19          6           0       -4.615567    1.189307    1.964231
     20          6           0       -5.504805    0.285549    1.334832
     21          6           0       -6.936982    0.245318    1.727934
     22          6           0       -7.946534    0.050982    0.769250
     23          6           0       -9.289964    0.009466    1.139114
     24          6           0       -9.656752    0.164104    2.477273
     25          6           0       -8.666068    0.359792    3.441270
     26          6           0       -7.322677    0.399309    3.070903
     27          6           0       -5.024204   -0.570891    0.334663
     28          6           0       -3.673695   -0.509379   -0.009890
     29          7           0       -2.970351   -1.244950   -0.970380
     30          6           0       -3.509033   -2.263101   -1.802679
     31          6           0       -3.391562   -2.167310   -3.195295
     32          6           0       -3.912011   -3.173742   -4.008511
     33          6           0       -4.568695   -4.268506   -3.442901
     34          6           0       -4.693999   -4.357927   -2.055140
     35          6           0       -4.158300   -3.366251   -1.233684
     36          6           0        2.489005    1.499582    0.902156
     37          6           0        2.769928    2.866667    1.038493
     38          6           0        3.110910    3.429052    2.274363
     39          6           0        3.170940    2.653893    3.432859
     40          6           0        2.889715    1.303693    3.283666
     41          8           0        2.934920    0.390792    4.310291
     42          6           0        2.645473   -0.830472    3.747395
     43          6           0        2.603215   -2.028698    4.445234
     44          6           0        2.308694   -3.174852    3.705277
     45          6           0        2.069543   -3.103765    2.323647
     46          6           0        2.113569   -1.888564    1.641880
     47          6           0        2.404586   -0.722408    2.363130
     48          6           0        2.560113    0.691283    2.056744
     49          6           0        4.333725    1.259727   -1.408072
     50          6           0        7.248497    0.493664   -1.664357
     51          6           0        8.636375    0.418524   -1.556242
     52          1           0       10.524031    1.333618   -2.065130
     53          1           0        9.463101    3.210802   -3.308839
     54          1           0        7.004418    3.352552   -3.482658
     55          1           0        5.164556    2.317888   -4.530801
     56          1           0        2.698703    2.465956   -4.694513
     57          1           0        1.269940    1.847802   -2.769706
     58          1           0        1.547065   -0.985898   -2.072749
     59          1           0       -0.653547   -2.044267   -2.453487
     60          1           0       -0.123322    1.620244    0.916498
     61          1           0       -2.615490    1.970179    2.095120
     62          1           0       -5.001545    1.867338    2.719092
     63          1           0       -7.675063   -0.041544   -0.278720
     64          1           0      -10.052646   -0.133809    0.377926
     65          1           0      -10.703992    0.133395    2.765775
     66          1           0       -8.938405    0.473477    4.487448
     67          1           0       -6.559028    0.525205    3.833289
     68          1           0       -5.688534   -1.283036   -0.142384
     69          1           0       -2.903941   -1.300650   -3.630772
     70          1           0       -3.815478   -3.093393   -5.087808
     71          1           0       -4.980096   -5.046752   -4.079416
     72          1           0       -5.198497   -5.209296   -1.606569
     73          1           0       -4.229697   -3.444114   -0.153345
     74          1           0        2.718558    3.496645    0.156472
     75          1           0        3.319206    4.493572    2.331451
     76          1           0        3.429690    3.070591    4.399989
     77          1           0        2.794564   -2.061716    5.512652
     78          1           0        2.265410   -4.136480    4.208973
     79          1           0        1.843117   -4.013549    1.774846
     80          1           0        1.918343   -1.848502    0.576986
     81          1           0        4.782219    0.934206   -0.475100
     82          1           0        6.632871   -0.283754   -1.220640
     83          1           0        9.088985   -0.407833   -1.014316
 ---------------------------------------------------------------------

 SCF Done:  E(RB3LYP) =  -2033.16150011     A.U. after   15 cycles

 Excitation energies and oscillator strengths:

 Excited state symmetry could not be determined.
 Excited State   1:      Triplet-?Sym    2.7849 eV  445.21 nm  f=0.0000  <S**2>=2.000
     169 ->172        -0.19587
     169 ->173        -0.10579
     170 ->172         0.17487
     171 ->172         0.60268
 This state for optimization and/or second-order correction.
 Total Energy, E(TD-HF/TD-DFT) =  -2033.05915839
 Copying the excited state density for this state as the 1-particle RhoCI density.

 Excited state symmetry could not be determined.
 Excited State   2:      Triplet-?Sym    2.8412 eV  436.38 nm  f=0.0000  <S**2>=2.000
     168 ->173         0.13264
     169 ->172        -0.12610
     169 ->173         0.16673
     170 ->172         0.14310
     171 ->172        -0.12994
     171 ->173         0.55186
     171 ->178        -0.10536

 Excited state symmetry could not be determined.
 Excited State   3:      Singlet-?Sym    3.2322 eV  383.59 nm  f=0.0602  <S**2>=0.000
     171 ->172         0.67571
     171 ->173        -0.17301

 Excited state symmetry could not be determined.
 Excited State   4:      Singlet-?Sym    3.3500 eV  370.10 nm  f=0.1260  <S**2>=0.000
     171 ->172         0.16542
     171 ->173         0.67311

 Alpha  occ. eigenvalues --  -19.20425 -14.38299 -14.36128 -10.24582 -10.24245
 Alpha  occ. eigenvalues --  -10.24113 -10.23212 -10.22731 -10.22482 -10.22442
 Alpha  occ. eigenvalues --  -10.22376 -10.20281 -10.20250 -10.20195 -10.20147
 Alpha  occ. eigenvalues --  -10.20019 -10.19745 -10.19712 -10.19675 -10.19583
 Alpha  occ. eigenvalues --  -10.19555 -10.19531 -10.19432 -10.19309 -10.19127
 Alpha  occ. eigenvalues --  -10.19090 -10.19067 -10.19030 -10.18915 -10.18890
 Alpha  occ. eigenvalues --  -10.18874 -10.18821 -10.18761 -10.18757 -10.18743
 Alpha  occ. eigenvalues --  -10.18724 -10.18724 -10.18719 -10.18716 -10.18658
 Alpha  occ. eigenvalues --  -10.18641 -10.18616 -10.18610 -10.18578 -10.18566
 Alpha  occ. eigenvalues --  -10.18554 -10.18482 -10.18392 -10.18371 -10.18301
 Alpha  occ. eigenvalues --  -10.18102  -1.10123  -0.99038  -0.96045  -0.87230
 Alpha  occ. eigenvalues --   -0.86272  -0.85915  -0.85503  -0.85057  -0.84399
 Alpha  occ. eigenvalues --   -0.83737  -0.83169  -0.79208  -0.78241  -0.77216
 Alpha  occ. eigenvalues --   -0.76329  -0.75916  -0.75594  -0.75250  -0.74730
 Alpha  occ. eigenvalues --   -0.74206  -0.74017  -0.73606  -0.72871  -0.72304
 Alpha  occ. eigenvalues --   -0.71574  -0.70661  -0.69843  -0.65361  -0.64113
 Alpha  occ. eigenvalues --   -0.62945  -0.62540  -0.62105  -0.61954  -0.61301
 Alpha  occ. eigenvalues --   -0.60804  -0.59840  -0.59661  -0.59300  -0.58632
 Alpha  occ. eigenvalues --   -0.58026  -0.57408  -0.56808  -0.55986  -0.54016
 Alpha  occ. eigenvalues --   -0.53341  -0.52868  -0.52348  -0.52132  -0.50742
 Alpha  occ. eigenvalues --   -0.49863  -0.49694  -0.49336  -0.48548  -0.47820
 Alpha  occ. eigenvalues --   -0.47157  -0.46839  -0.46778  -0.46026  -0.45633
 Alpha  occ. eigenvalues --   -0.45610  -0.45400  -0.45192  -0.44643  -0.44331
 Alpha  occ. eigenvalues --   -0.43978  -0.43731  -0.43427  -0.43225  -0.43046
 Alpha  occ. eigenvalues --   -0.42748  -0.42628  -0.42514  -0.42122  -0.41758
 Alpha  occ. eigenvalues --   -0.41589  -0.41487  -0.41435  -0.41382  -0.39994
 Alpha  occ. eigenvalues --   -0.39415  -0.37824  -0.37508  -0.37344  -0.37210
 Alpha  occ. eigenvalues --   -0.37151  -0.36842  -0.36759  -0.36369  -0.36183
 Alpha  occ. eigenvalues --   -0.36007  -0.35736  -0.35621  -0.35243  -0.35050
 Alpha  occ. eigenvalues --   -0.34922  -0.34693  -0.34114  -0.33812  -0.33626
 Alpha  occ. eigenvalues --   -0.33444  -0.33181  -0.33044  -0.32571  -0.29836
 Alpha  occ. eigenvalues --   -0.28539  -0.28316  -0.26859  -0.26276  -0.26108
 Alpha  occ. eigenvalues --   -0.25895  -0.25193  -0.24763  -0.24684  -0.24677
 Alpha  occ. eigenvalues --   -0.22972  -0.22118  -0.21934  -0.21106  -0.20356
 Alpha  occ. eigenvalues --   -0.17668
 Alpha virt. eigenvalues --   -0.03869  -0.03332  -0.02233  -0.01797  -0.01348
 Alpha virt. eigenvalues --   -0.00523  -0.00098   0.00223   0.00277   0.00461
 Alpha virt. eigenvalues --    0.01483   0.01927   0.02924   0.03803   0.04754

 Mulliken charges:
               1
     1  C   -0.126636
     2  C   -0.133934
     3  C   -0.174170
     4  C    0.087133
     5  C    0.086705
     6  C   -0.175754
     7  C   -0.143682
     8  C   -0.175123
     9  C    0.280959
    10  N   -0.669942
    11  C    0.297877
    12  C   -0.186877
    13  C   -0.181354
    14  C    0.321479
    15  C    0.064227
    16  C   -0.267821
    17  C    0.063521
    18  C   -0.200171
    19  C   -0.196748
    20  C    0.089593
    21  C    0.083325
    22  C   -0.172930
    23  C   -0.134811
    24  C   -0.127255
    25  C   -0.134481
    26  C   -0.174243
    27  C   -0.237901
    28  C    0.319560
    29  N   -0.746087
    30  C    0.263095
    31  C   -0.149896
    32  C   -0.142838
    33  C   -0.121454
    34  C   -0.142879
    35  C   -0.149210
    36  C    0.182197
    37  C   -0.170276
    38  C   -0.149680
    39  C   -0.198942
    40  C    0.309827
    41  O   -0.550055
    42  C    0.315362
    43  C   -0.204473
    44  C   -0.134299
    45  C   -0.154036
    46  C   -0.180012
    47  C    0.084879
    48  C    0.080851
    49  C   -0.217346
    50  C   -0.171729
    51  C   -0.134454
    52  H    0.128745
    53  H    0.129250
    54  H    0.131462
    55  H    0.129268
    56  H    0.130107
    57  H    0.144039
    58  H    0.144781
    59  H    0.143987
    60  H    0.147493
    61  H    0.135013
    62  H    0.128789
    63  H    0.132501
    64  H    0.128852
    65  H    0.128066
    66  H    0.129354
    67  H    0.133034
    68  H    0.143461
    69  H    0.150872
    70  H    0.138692
    71  H    0.135774
    72  H    0.139869
    73  H    0.155035
    74  H    0.142020
    75  H    0.135870
    76  H    0.144941
    77  H    0.144156
    78  H    0.130971
    79  H    0.128326
    80  H    0.154555
    81  H    0.145874
    82  H    0.135033
    83  H    0.130721
 Sum of Mulliken charges =  -0.00000

 Dipole moment (field-independent basis, Debye):
    X=             -1.1479    Y=             -1.3167    Z=             -1.7265  Tot=              2.4561
 Quadrupole moment (field-independent basis, Debye-Ang):
   XX=           -272.1055   YY=           -270.9312   ZZ=           -271.5317
   XY=             12.2554   XZ=              2.4178   YZ=              3.5184

 Normal termination of Gaussian 16 at Fri Nov  4 21:54:33 2022.
