 Gaussian 16, Revision B.01,
 Gaussian 16:  ES64L-G16RevB.01 20-Dec-2017

 -----------------------------
 #p b3lyp/6-31g(d) opt SCF=XQC
 -----------------------------

 ------------------------------
 Gaussian input prepared by ASE
 ------------------------------
 Symbolic Z-matrix:
 Charge =  0 Multiplicity = 1

 SCF Done:  E(RB3LYP) =  -2033.14762946     A.U. after   16 cycles
 SCF Done:  E(RB3LYP) =  -2033.15899152     A.U. after   15 cycles
 SCF Done:  E(RB3LYP) =  -2033.16045928     A.U. after   12 cycles
 SCF Done:  E(RB3LYP) =  -2033.16129081     A.U. after   12 cycles
 SCF Done:  E(RB3LYP) =  -2033.16142823     A.U. after   11 cycles
 SCF Done:  E(RB3LYP) =  -2033.16147367     A.U. after   11 cycles
 SCF Done:  E(RB3LYP) =  -2033.16148500     A.U. after   10 cycles
 SCF Done:  E(RB3LYP) =  -2033.16148961     A.U. after   10 cycles
 SCF Done:  E(RB3LYP) =  -2033.16149104     A.U. after    9 cycles
 SCF Done:  E(RB3LYP) =  -2033.16149160     A.U. after    9 cycles
 SCF Done:  E(RB3LYP) =  -2033.16149171     A.U. after    7 cycles
 Optimization completed.
    -- Stationary point found.

                         Standard orientation:
 ---------------------------------------------------------------------
 Center     Atomic      Atomic             Coordinates (Angstroms)
 Number     Number       Type             X           Y           Z
 ---------------------------------------------------------------------
      1          6           0       -9.692245    0.956103    0.068228
      2          6           0       -9.383400    1.438069   -1.205022
      3          6           0       -8.055438    1.649681   -1.572884
      4          6           0       -7.005750    1.385055   -0.676906
      5          6           0       -5.591074    1.612376   -1.073069
      6          6           0       -5.232949    2.716579   -1.866057
      7          6           0       -3.901791    2.919195   -2.223731
      8          6           0       -2.906337    2.034393   -1.812556
      9          6           0       -3.242548    0.931909   -1.011681
     10          7           0       -2.258181    0.004708   -0.566939
     11          6           0       -0.923960    0.442221   -0.320508
     12          6           0       -0.709025    1.618482    0.436886
     13          6           0        0.569826    2.086280    0.715777
     14          6           0        1.659940    1.350289    0.243252
     15          6           0        1.467041    0.155222   -0.491650
     16          6           0        0.172566   -0.287141   -0.786419
     17          6           0        2.782527   -0.364577   -0.793241
     18          6           0        3.248865   -1.487766   -1.485876
     19          6           0        4.616772   -1.693265   -1.609002
     20          6           0        5.554599   -0.788308   -1.056554
     21          6           0        7.012232   -1.028470   -1.214369
     22          6           0        7.902539    0.036677   -1.435397
     23          6           0        9.270641   -0.188786   -1.579577
     24          6           0        9.781543   -1.486128   -1.508853
     25          6           0        8.910137   -2.555017   -1.291675
     26          6           0        7.542345   -2.328587   -1.145700
     27          6           0        5.097432    0.339202   -0.360475
     28          6           0        3.722400    0.534780   -0.228521
     29          7           0        3.032501    1.574836    0.404424
     30          6           0        3.620427    2.671348    1.091110
     31          6           0        3.302953    3.984323    0.720086
     32          6           0        3.873638    5.057930    1.403300
     33          6           0        4.776996    4.831822    2.443721
     34          6           0        5.100381    3.522735    2.806060
     35          6           0        4.518427    2.443292    2.141744
     36          6           0       -2.514045   -1.386869   -0.739059
     37          6           0       -3.002984   -1.870198   -1.961253
     38          6           0       -3.266209   -3.230261   -2.163393
     39          6           0       -3.037604   -4.171046   -1.158777
     40          6           0       -2.552969   -3.679285    0.044420
     41          8           0       -2.304078   -4.458377    1.149165
     42          6           0       -1.888780   -3.596603    2.137594
     43          6           0       -1.549911   -3.981808    3.426506
     44          6           0       -1.166167   -2.966283    4.303659
     45          6           0       -1.129813   -1.625585    3.888500
     46          6           0       -1.471150   -1.260128    2.587197
     47          6           0       -1.857385   -2.262016    1.686168
     48          6           0       -2.291131   -2.316982    0.298569
     49          6           0       -4.583394    0.736177   -0.648809
     50          6           0       -7.332679    0.901369    0.601222
     51          6           0       -8.660295    0.688448    0.969519
     52          1           0      -10.727161    0.790526    0.355311
     53          1           0      -10.177844    1.642042   -1.918315
     54          1           0       -7.825019    2.000057   -2.575178
     55          1           0       -5.992923    3.427613   -2.175512
     56          1           0       -3.632822    3.775001   -2.837630
     57          1           0       -1.874950    2.191329   -2.109463
     58          1           0       -1.569310    2.167843    0.805744
     59          1           0        0.708368    2.988575    1.302115
     60          1           0        0.017560   -1.191775   -1.365102
     61          1           0        2.548693   -2.188009   -1.933779
     62          1           0        4.979118   -2.549664   -2.169186
     63          1           0        7.512962    1.047302   -1.521210
     64          1           0        9.937689    0.650764   -1.757964
     65          1           0       10.847759   -1.662453   -1.622787
     66          1           0        9.296713   -3.568876   -1.226651
     67          1           0        6.877475   -3.165240   -0.950247
     68          1           0        5.803445    1.030699    0.086106
     69          1           0        2.620933    4.154376   -0.107226
     70          1           0        3.621189    6.073548    1.110990
     71          1           0        5.226002    5.670250    2.968603
     72          1           0        5.798025    3.337912    3.618277
     73          1           0        4.746052    1.423786    2.436848
     74          1           0       -3.178285   -1.162907   -2.765294
     75          1           0       -3.643303   -3.558219   -3.127806
     76          1           0       -3.231711   -5.229050   -1.296182
     77          1           0       -1.588160   -5.023423    3.727605
     78          1           0       -0.892608   -3.220089    5.323982
     79          1           0       -0.827228   -0.857439    4.594581
     80          1           0       -1.429979   -0.222280    2.279150
     81          1           0       -4.840838   -0.129107   -0.046683
     82          1           0       -6.539799    0.713720    1.319823
     83          1           0       -8.888775    0.320298    1.966348
 ---------------------------------------------------------------------

 The electronic state is 1-A.
 Alpha  occ. eigenvalues --  -19.20425 -14.38299 -14.36128 -10.24582 -10.24245
 Alpha  occ. eigenvalues --  -10.24113 -10.23212 -10.22731 -10.22482 -10.22442
 Alpha  occ. eigenvalues --  -10.22376 -10.20281 -10.20250 -10.20195 -10.20147
 Alpha  occ. eigenvalues --  -10.20019 -10.19745 -10.19712 -10.19675 -10.19583
 Alpha  occ. eigenvalues --  -10.19555 -10.19531 -10.19432 -10.19309 -10.19127
 Alpha  occ. eigenvalues --  -10.19090 -10.19067 -10.19030 -10.18915 -10.18890
 Alpha  occ. eigenvalues --  -10.18874 -10.18821 -10.18761 -10.18757 -10.18743
 Alpha  occ. eigenvalues --  -10.18724 -10.18724 -10.18718 -10.18716 -10.18658
 Alpha  occ. eigenvalues --  -10.18641 -10.18616 -10.18610 -10.18578 -10.18566
 Alpha  occ. eigenvalues --  -10.18553 -10.18482 -10.18392 -10.18371 -10.18301
 Alpha  occ. eigenvalues --  -10.18102  -1.10123  -0.99038  -0.96045  -0.87230
 Alpha  occ. eigenvalues --   -0.86272  -0.85915  -0.85503  -0.85057  -0.84399
 Alpha  occ. eigenvalues --   -0.83737  -0.83169  -0.79208  -0.78241  -0.77216
 Alpha  occ. eigenvalues --   -0.76329  -0.75916  -0.75594  -0.75250  -0.74730
 Alpha  occ. eigenvalues --   -0.74206  -0.74017  -0.73606  -0.72871  -0.72304
 Alpha  occ. eigenvalues --   -0.71574  -0.70661  -0.69843  -0.65361  -0.64113
 Alpha  occ. eigenvalues --   -0.62945  -0.62540  -0.62105  -0.61954  -0.61301
 Alpha  occ. eigenvalues --   -0.60804  -0.59840  -0.59661  -0.59300  -0.58632
 Alpha  occ. eigenvalues --   -0.58026  -0.57408  -0.56808  -0.55986  -0.54016
 Alpha  occ. eigenvalues --   -0.53341  -0.52868  -0.52348  -0.52132  -0.50742
 Alpha  occ. eigenvalues --   -0.49863  -0.49694  -0.49336  -0.48548  -0.47820
 Alpha  occ. eigenvalues --   -0.47157  -0.46839  -0.46778  -0.46026  -0.45633
 Alpha  occ. eigenvalues --   -0.45610  -0.45400  -0.45192  -0.44643  -0.44331
 Alpha  occ. eigenvalues --   -0.43978  -0.43731  -0.43427  -0.43225  -0.43046
 Alpha  occ. eigenvalues --   -0.42748  -0.42628  -0.42514  -0.42122  -0.41758
 Alpha  occ. eigenvalues --   -0.41589  -0.41487  -0.41435  -0.41382  -0.39994
 Alpha  occ. eigenvalues --   -0.39415  -0.37824  -0.37508  -0.37344  -0.37210
 Alpha  occ. eigenvalues --   -0.37151  -0.36842  -0.36759  -0.36369  -0.36183
 Alpha  occ. eigenvalues --   -0.36007  -0.35736  -0.35621  -0.35243  -0.35050
 Alpha  occ. eigenvalues --   -0.34922  -0.34693  -0.34114  -0.33812  -0.33626
 Alpha  occ. eigenvalues --   -0.33444  -0.33181  -0.33044  -0.32571  -0.29836
 Alpha  occ. eigenvalues --   -0.28539  -0.28316  -0.26859  -0.26276  -0.26108
 Alpha  occ. eigenvalues --   -0.25895  -0.25193  -0.24763  -0.24684  -0.24677
 Alpha  occ. eigenvalues --   -0.22972  -0.22118  -0.21934  -0.21106  -0.20356
 Alpha  occ. eigenvalues --   -0.17668
 Alpha virt. eigenvalues --   -0.03869  -0.03332  -0.02233  -0.01797  -0.01348
 Alpha virt. eigenvalues --   -0.00523  -0.00098   0.00223   0.00277   0.00461
 Alpha virt. eigenvalues --    0.01483   0.01927   0.02924   0.03803   0.04754

 Mulliken charges:
               1
     1  C   -0.126637
     2  C   -0.133934
     3  C   -0.174170
     4  C    0.087137
     5  C    0.086723
     6  C   -0.175760
     7  C   -0.143684
     8  C   -0.175123
     9  C    0.280983
    10  N   -0.669950
    11  C    0.297859
    12  C   -0.186884
    13  C   -0.181344
    14  C    0.321467
    15  C    0.064230
    16  C   -0.267806
    17  C    0.063536
    18  C   -0.200180
    19  C   -0.196747
    20  C    0.089600
    21  C    0.083327
    22  C   -0.172940
    23  C   -0.134796
    24  C   -0.127263
    25  C   -0.134482
    26  C   -0.174236
    27  C   -0.237908
    28  C    0.319568
    29  N   -0.746104
    30  C    0.263100
    31  C   -0.149896
    32  C   -0.142841
    33  C   -0.121455
    34  C   -0.142871
    35  C   -0.149216
    36  C    0.182190
    37  C   -0.170278
    38  C   -0.149676
    39  C   -0.198948
    40  C    0.309828
    41  O   -0.550053
    42  C    0.315360
    43  C   -0.204470
    44  C   -0.134305
    45  C   -0.154040
    46  C   -0.179989
    47  C    0.084874
    48  C    0.080855
    49  C   -0.217376
    50  C   -0.171731
    51  C   -0.134453
    52  H    0.128745
    53  H    0.129250
    54  H    0.131461
    55  H    0.129267
    56  H    0.130107
    57  H    0.144041
    58  H    0.144783
    59  H    0.143990
    60  H    0.147491
    61  H    0.135013
    62  H    0.128788
    63  H    0.132501
    64  H    0.128850
    65  H    0.128066
    66  H    0.129353
    67  H    0.133034
    68  H    0.143460
    69  H    0.150872
    70  H    0.138692
    71  H    0.135774
    72  H    0.139869
    73  H    0.155035
    74  H    0.142020
    75  H    0.135870
    76  H    0.144941
    77  H    0.144157
    78  H    0.130971
    79  H    0.128328
    80  H    0.154553
    81  H    0.145879
    82  H    0.135031
    83  H    0.130721
 Sum of Mulliken charges =  -0.00000

 Dipole moment (field-independent basis, Debye):
    X=              1.1137    Y=              2.0878    Z=              0.6581  Tot=              2.4561
 Quadrupole moment (field-independent basis, Debye-Ang):
   XX=           -268.6645   YY=           -268.6330   ZZ=           -276.8570
   XY=              5.9192   XZ=             10.2501   YZ=              3.2665

 Normal termination of Gaussian 16 at Sat Nov  5 00:30:16 2022.
