 Gaussian 16, Revision B.01,
 Gaussian 16:  ES64L-G16RevB.01 20-Dec-2017

 -----------------------------
 #p b3lyp/6-31g(d) opt SCF=XQC
 -----------------------------

 ------------------------------
 Gaussian input prepared by ASE
 ------------------------------
 Symbolic Z-matrix:
 Charge =  0 Multiplicity = 1

 SCF Done:  E(RB3LYP) =  -1629.76809012     A.U. after   15 cycles
 SCF Done:  E(RB3LYP) =  -1629.77603875     A.U. after   13 cycles
 SCF Done:  E(RB3LYP) =  -1629.77699079     A.U. after   12 cycles
 SCF Done:  E(RB3LYP) =  -1629.77750522     A.U. after   12 cycles
 SCF Done:  E(RB3LYP) =  -1629.77757729     A.U. after   11 cycles
 SCF Done:  E(RB3LYP) =  -1629.77761284     A.U. after   10 cycles
 SCF Done:  E(RB3LYP) =  -1629.77762136     A.U. after   10 cycles
 SCF Done:  E(RB3LYP) =  -1629.77762462     A.U. after    9 cycles
 SCF Done:  E(RB3LYP) =  -1629.77762607     A.U. after    9 cycles
 SCF Done:  E(RB3LYP) =  -1629.77762714     A.U. after    9 cycles
 SCF Done:  E(RB3LYP) =  -1629.77762786     A.U. after    9 cycles
 SCF Done:  E(RB3LYP) =  -1629.77762819     A.U. after    7 cycles
 SCF Done:  E(RB3LYP) =  -1629.77762825     A.U. after    7 cycles
 SCF Done:  E(RB3LYP) =  -1629.77762827     A.U. after    6 cycles
 SCF Done:  E(RB3LYP) =  -1629.77762828     A.U. after    6 cycles
 Optimization completed.
    -- Stationary point found.

                         Standard orientation:
 ---------------------------------------------------------------------
 Center     Atomic      Atomic             Coordinates (Angstroms)
 Number     Number       Type             X           Y           Z
 ---------------------------------------------------------------------
      1          6           0       -6.750208    0.373458   -0.252941
      2          6           0       -5.527924   -0.156896   -0.422706
      3          6           0       -5.154636   -1.557831   -0.202748
      4          6           0       -3.847992   -1.959842   -0.095181
      5          6           0       -2.687851   -1.110392   -0.119055
      6          6           0       -1.385706   -1.506191   -0.036816
      7          6           0       -0.917481   -2.932738    0.082976
      8          6           0       -0.332657   -0.470942   -0.073404
      9          7           0        0.943174   -0.886086   -0.037030
     10          6           0        1.874410    0.083056   -0.082371
     11          6           0        3.297159   -0.326511   -0.040702
     12          6           0        4.319120    0.635408   -0.032147
     13          6           0        5.653195    0.248286    0.006736
     14          6           0        6.016856   -1.110176    0.038209
     15          6           0        7.442133   -1.520858    0.079337
     16          6           0        8.385670   -0.783411    0.815390
     17          6           0        9.724418   -1.169449    0.854534
     18          6           0       10.150704   -2.301479    0.157397
     19          6           0        9.225490   -3.044025   -0.578670
     20          6           0        7.886609   -2.658345   -0.616674
     21          6           0        4.985616   -2.066604    0.030364
     22          6           0        3.649956   -1.684453   -0.007697
     23          7           0        1.601389    1.392299   -0.156287
     24          6           0        0.294220    1.719315   -0.182424
     25          6           0       -0.030189    3.167454   -0.313940
     26          6           0        0.887919    3.947767   -1.001760
     27          6           0        0.664557    5.316887   -1.248155
     28          6           0       -0.483074    5.916511   -0.786639
     29          6           0       -1.442103    5.175582   -0.048012
     30          6           0       -2.608490    5.811971    0.456770
     31          6           0       -3.530973    5.116232    1.201375
     32          6           0       -3.313563    3.746876    1.477183
     33          6           0       -2.199000    3.095604    0.994660
     34          6           0       -1.229259    3.775796    0.204745
     35          7           0       -0.698681    0.826247   -0.144503
     36          6           0       -6.221820   -2.591405   -0.090426
     37          6           0       -7.261007   -2.675026   -1.034654
     38          6           0       -8.224786   -3.678449   -0.949577
     39          6           0       -8.178751   -4.614009    0.086334
     40          6           0       -7.157977   -4.539515    1.035271
     41          6           0       -6.189750   -3.539878    0.946473
     42          1           0       -7.602598   -0.214974    0.071579
     43          1           0       -6.923118    1.431254   -0.428207
     44          1           0       -4.728457    0.511230   -0.731873
     45          1           0       -3.680911   -3.027222    0.016838
     46          1           0       -2.843679   -0.040542   -0.205504
     47          1           0       -1.748607   -3.638963    0.124662
     48          1           0       -0.279161   -3.203913   -0.765769
     49          1           0       -0.303233   -3.067404    0.980431
     50          1           0        4.050111    1.685346   -0.061445
     51          1           0        6.429041    1.008282   -0.013650
     52          1           0        8.060265    0.083706    1.383218
     53          1           0       10.434372   -0.588964    1.437866
     54          1           0       11.194430   -2.602280    0.187492
     55          1           0        9.547881   -3.922077   -1.132179
     56          1           0        7.180582   -3.228293   -1.214100
     57          1           0        5.236247   -3.122271    0.082448
     58          1           0        2.862458   -2.429604   -0.003586
     59          1           0        1.792106    3.474993   -1.368005
     60          1           0        1.399869    5.888223   -1.807647
     61          1           0       -0.671210    6.971266   -0.973605
     62          1           0       -2.751153    6.869617    0.247398
     63          1           0       -4.417215    5.614675    1.584753
     64          1           0       -4.033348    3.198921    2.079666
     65          1           0       -2.054097    2.046490    1.211115
     66          1           0       -7.297632   -1.958684   -1.849589
     67          1           0       -9.011454   -3.732326   -1.697649
     68          1           0       -8.933870   -5.392490    0.154470
     69          1           0       -7.117835   -5.256512    1.851115
     70          1           0       -5.407987   -3.475368    1.698165
 ---------------------------------------------------------------------

 The electronic state is 1-A.
 Alpha  occ. eigenvalues --  -14.33027 -14.33010 -14.32976 -10.27067 -10.26914
 Alpha  occ. eigenvalues --  -10.26713 -10.21048 -10.20400 -10.20218 -10.20189
 Alpha  occ. eigenvalues --  -10.20155 -10.20113 -10.20068 -10.19789 -10.19670
 Alpha  occ. eigenvalues --  -10.19648 -10.19467 -10.19447 -10.19422 -10.19348
 Alpha  occ. eigenvalues --  -10.19297 -10.19270 -10.19225 -10.19201 -10.19198
 Alpha  occ. eigenvalues --  -10.19174 -10.19152 -10.19124 -10.19095 -10.19088
 Alpha  occ. eigenvalues --  -10.19072 -10.19043 -10.19040 -10.18986 -10.18982
 Alpha  occ. eigenvalues --  -10.18944 -10.18902 -10.18874 -10.18761 -10.18217
 Alpha  occ. eigenvalues --  -10.17850  -1.01302  -0.90030  -0.89874  -0.86830
 Alpha  occ. eigenvalues --   -0.86612  -0.86341  -0.84443  -0.82718  -0.81894
 Alpha  occ. eigenvalues --   -0.79891  -0.78103  -0.77555  -0.75422  -0.74948
 Alpha  occ. eigenvalues --   -0.74532  -0.74204  -0.74013  -0.73703  -0.73107
 Alpha  occ. eigenvalues --   -0.72321  -0.69005  -0.67398  -0.66591  -0.63211
 Alpha  occ. eigenvalues --   -0.62055  -0.61511  -0.61377  -0.60848  -0.60549
 Alpha  occ. eigenvalues --   -0.59881  -0.59293  -0.58435  -0.57118  -0.55537
 Alpha  occ. eigenvalues --   -0.54346  -0.53383  -0.52341  -0.51161  -0.50807
 Alpha  occ. eigenvalues --   -0.50603  -0.49760  -0.49020  -0.48669  -0.47397
 Alpha  occ. eigenvalues --   -0.46555  -0.45946  -0.45529  -0.45236  -0.44872
 Alpha  occ. eigenvalues --   -0.44134  -0.44095  -0.43790  -0.43454  -0.42994
 Alpha  occ. eigenvalues --   -0.42423  -0.42240  -0.42170  -0.41590  -0.41441
 Alpha  occ. eigenvalues --   -0.41347  -0.40915  -0.40646  -0.39949  -0.39478
 Alpha  occ. eigenvalues --   -0.38834  -0.37822  -0.37715  -0.37646  -0.37121
 Alpha  occ. eigenvalues --   -0.36943  -0.36553  -0.36203  -0.36070  -0.35294
 Alpha  occ. eigenvalues --   -0.35099  -0.34524  -0.33971  -0.33931  -0.33619
 Alpha  occ. eigenvalues --   -0.33459  -0.33228  -0.33057  -0.32724  -0.32224
 Alpha  occ. eigenvalues --   -0.31583  -0.27893  -0.27558  -0.26806  -0.25635
 Alpha  occ. eigenvalues --   -0.25547  -0.25297  -0.25210  -0.25171  -0.25113
 Alpha  occ. eigenvalues --   -0.24175  -0.22311  -0.21300  -0.20365
 Alpha virt. eigenvalues --   -0.07932  -0.06549  -0.04327  -0.01232  -0.00895
 Alpha virt. eigenvalues --   -0.00577  -0.00536  -0.00324  -0.00186   0.00242
 Alpha virt. eigenvalues --    0.02391   0.05203   0.05822   0.09365   0.09576

 Mulliken charges:
               1
     1  C   -0.348572
     2  C   -0.109804
     3  C    0.080068
     4  C   -0.194143
     5  C   -0.162907
     6  C    0.091448
     7  C   -0.514197
     8  C    0.449075
     9  N   -0.541997
    10  C    0.442979
    11  C    0.085263
    12  C   -0.167765
    13  C   -0.186122
    14  C    0.103423
    15  C    0.087716
    16  C   -0.172413
    17  C   -0.133943
    18  C   -0.125611
    19  C   -0.133922
    20  C   -0.172338
    21  C   -0.185881
    22  C   -0.167605
    23  N   -0.525601
    24  C    0.396060
    25  C    0.050616
    26  C   -0.166589
    27  C   -0.141337
    28  C   -0.177420
    29  C    0.121426
    30  C   -0.195526
    31  C   -0.130414
    32  C   -0.144252
    33  C   -0.178562
    34  C    0.090009
    35  N   -0.531001
    36  C    0.063435
    37  C   -0.167935
    38  C   -0.134269
    39  C   -0.125374
    40  C   -0.134164
    41  C   -0.167559
    42  H    0.159462
    43  H    0.149442
    44  H    0.149804
    45  H    0.139034
    46  H    0.176859
    47  H    0.151667
    48  H    0.171276
    49  H    0.169626
    50  H    0.161366
    51  H    0.135245
    52  H    0.135018
    53  H    0.132080
    54  H    0.131124
    55  H    0.131935
    56  H    0.134523
    57  H    0.135039
    58  H    0.159851
    59  H    0.158541
    60  H    0.133831
    61  H    0.132578
    62  H    0.129242
    63  H    0.129418
    64  H    0.132113
    65  H    0.162530
    66  H    0.141292
    67  H    0.132675
    68  H    0.131806
    69  H    0.132620
    70  H    0.135709
 Sum of Mulliken charges =  -0.00000

 Dipole moment (field-independent basis, Debye):
    X=             -0.7931    Y=             -0.4268    Z=             -0.0822  Tot=              0.9044
 Quadrupole moment (field-independent basis, Debye-Ang):
   XX=           -196.5304   YY=           -210.1220   ZZ=           -236.2014
   XY=              0.8989   XZ=             -1.2107   YZ=             -2.6209

 1\1\GINC-NODE57\FOpt\RB3LYP\6-31G(d)\C38H29N3\WYKGROUP\05-Nov-2022\0\\
 #p b3lyp/6-31g(d) opt SCF=XQC\\Gaussian input prepared by ASE\\0,1\C,6
 .442473889,1.56479263,-0.1476122307\C,5.323518619,0.9023708317,0.18885
 55405\C,5.1795236499,-0.5528354345,0.2983163995\C,3.9540865845,-1.1668
 878172,0.3401256714\C,2.6722043404,-0.5246125702,0.2291261626\C,1.4504
 315787,-1.1263243703,0.2940583986\C,1.2177900268,-2.5985434815,0.51101
 14239\C,0.2443238148,-0.2857771526,0.1499217271\N,-0.9479429838,-0.891
 7569793,0.2626185123\C,-2.0230839516,-0.0939188091,0.1360506182\C,-3.3

 Normal termination of Gaussian 16 at Sat Nov  5 00:28:36 2022.
