 Gaussian 16, Revision B.01,
 Gaussian 16:  ES64L-G16RevB.01 20-Dec-2017

 -------------------------------------------------------------------
 #p b3lyp/6-31g(d) 6D 10F nosymm GFInput td=(50-50,nstate=2) SCF=XQC
 -------------------------------------------------------------------

 ------------------------------
 Gaussian input prepared by ASE
 ------------------------------
 Symbolic Z-matrix:
 Charge =  0 Multiplicity = 1

                          Input orientation:
 ---------------------------------------------------------------------
 Center     Atomic      Atomic             Coordinates (Angstroms)
 Number     Number       Type             X           Y           Z
 ---------------------------------------------------------------------
      1          6           0        6.442474    1.564793   -0.147612
      2          6           0        5.323519    0.902371    0.188856
      3          6           0        5.179524   -0.552835    0.298316
      4          6           0        3.954087   -1.166888    0.340126
      5          6           0        2.672204   -0.524613    0.229126
      6          6           0        1.450432   -1.126324    0.294058
      7          6           0        1.217790   -2.598543    0.511011
      8          6           0        0.244324   -0.285777    0.149922
      9          7           0       -0.947943   -0.891757    0.262619
     10          6           0       -2.023084   -0.093919    0.136051
     11          6           0       -3.361281   -0.718563    0.248944
     12          6           0       -4.525270    0.046168    0.075492
     13          6           0       -5.779562   -0.542467    0.182209
     14          6           0       -5.919224   -1.913169    0.465633
     15          6           0       -7.259731   -2.539158    0.579411
     16          6           0       -8.316608   -2.140870   -0.257394
     17          6           0       -9.575690   -2.729247   -0.150961
     18          6           0       -9.807178   -3.728915    0.795764
     19          6           0       -8.767558   -4.134956    1.634521
     20          6           0       -7.508297   -3.547157    1.527049
     21          6           0       -4.746973   -2.671332    0.636772
     22          6           0       -3.490319   -2.087417    0.530274
     23          7           0       -1.964534    1.224819   -0.091157
     24          6           0       -0.727195    1.748586   -0.195914
     25          6           0       -0.639857    3.221839   -0.399734
     26          6           0       -1.665750    3.983670    0.140696
     27          6           0       -1.664327    5.390860    0.070691
     28          6           0       -0.632859    6.043097   -0.561973
     29          6           0        0.426596    5.314167   -1.162389
     30          6           0        1.470243    5.995020   -1.846123
     31          6           0        2.486278    5.302553   -2.460635
     32          6           0        2.490501    3.889484   -2.419511
     33          6           0        1.500199    3.197391   -1.756531
     34          6           0        0.440449    3.877681   -1.092332
     35          7           0        0.396573    1.035195   -0.081554
     36          6           0        6.398627   -1.406506    0.367638
     37          6           0        7.446127   -1.114264    1.259719
     38          6           0        8.558563   -1.948911    1.353616
     39          6           0        8.654972   -3.087871    0.551133
     40          6           0        7.627074   -3.387084   -0.344362
     41          6           0        6.510894   -2.555940   -0.433602
     42          1           0        7.375783    1.058596   -0.373077
     43          1           0        6.443772    2.648679   -0.216433
     44          1           0        4.429421    1.490047    0.379515
     45          1           0        3.960659   -2.244949    0.472429
     46          1           0        2.653898    0.548359    0.071863
     47          1           0        2.151693   -3.158153    0.587986
     48          1           0        0.639337   -2.768972    1.426272
     49          1           0        0.625319   -3.024285   -0.306658
     50          1           0       -4.429183    1.104802   -0.138176
     51          1           0       -6.667793    0.072715    0.070211
     52          1           0       -8.140705   -1.382878   -1.015494
     53          1           0      -10.375328   -2.411520   -0.814966
     54          1           0      -10.788817   -4.187377    0.879119
     55          1           0       -8.938849   -4.906201    2.380928
     56          1           0       -6.714111   -3.852204    2.202658
     57          1           0       -4.824202   -3.737716    0.828665
     58          1           0       -2.592842   -2.682864    0.654358
     59          1           0       -2.478337    3.470044    0.641794
     60          1           0       -2.477223    5.951346    0.523675
     61          1           0       -0.615939    7.129041   -0.619405
     62          1           0        1.442024    7.081685   -1.880314
     63          1           0        3.276854    5.834256   -2.983254
     64          1           0        3.283911    3.339468   -2.918826
     65          1           0        1.524766    2.117004   -1.731013
     66          1           0        7.373863   -0.237104    1.895309
     67          1           0        9.350302   -1.711173    2.059302
     68          1           0        9.525306   -3.734738    0.621572
     69          1           0        7.695966   -4.265624   -0.980536
     70          1           0        5.722246   -2.783494   -1.145367
 ---------------------------------------------------------------------

 SCF Done:  E(RB3LYP) =  -1629.77762917     A.U. after   15 cycles

 Excitation energies and oscillator strengths:

 Excited state symmetry could not be determined.
 Excited State   1:      Triplet-?Sym    1.6931 eV  732.30 nm  f=0.0000  <S**2>=2.000
     139 ->140         0.66605
     139 ->142         0.18167
     139 <-140         0.12971
 This state for optimization and/or second-order correction.
 Total Energy, E(TD-HF/TD-DFT) =  -1629.71540999
 Copying the excited state density for this state as the 1-particle RhoCI density.

 Excited state symmetry could not be determined.
 Excited State   2:      Triplet-?Sym    2.4881 eV  498.31 nm  f=0.0000  <S**2>=2.000
     136 ->146         0.10444
     138 ->140        -0.19958
     138 ->141         0.50035
     138 ->142         0.38006
     138 ->143        -0.14429

 Excited state symmetry could not be determined.
 Excited State   3:      Singlet-?Sym    3.1156 eV  397.95 nm  f=0.1192  <S**2>=0.000
     138 ->140         0.64917
     139 ->140         0.25730

 Excited state symmetry could not be determined.
 Excited State   4:      Singlet-?Sym    3.1744 eV  390.57 nm  f=0.6693  <S**2>=0.000
     138 ->140        -0.19546
     138 ->141        -0.15661
     139 ->140         0.57134
     139 ->141         0.29777

 Alpha  occ. eigenvalues --  -14.33027 -14.33010 -14.32975 -10.27067 -10.26914
 Alpha  occ. eigenvalues --  -10.26713 -10.21048 -10.20400 -10.20218 -10.20189
 Alpha  occ. eigenvalues --  -10.20156 -10.20113 -10.20068 -10.19789 -10.19670
 Alpha  occ. eigenvalues --  -10.19648 -10.19467 -10.19447 -10.19422 -10.19348
 Alpha  occ. eigenvalues --  -10.19297 -10.19270 -10.19225 -10.19201 -10.19198
 Alpha  occ. eigenvalues --  -10.19174 -10.19152 -10.19124 -10.19095 -10.19088
 Alpha  occ. eigenvalues --  -10.19072 -10.19043 -10.19039 -10.18986 -10.18982
 Alpha  occ. eigenvalues --  -10.18944 -10.18902 -10.18874 -10.18760 -10.18217
 Alpha  occ. eigenvalues --  -10.17850  -1.01302  -0.90030  -0.89874  -0.86829
 Alpha  occ. eigenvalues --   -0.86612  -0.86341  -0.84443  -0.82717  -0.81894
 Alpha  occ. eigenvalues --   -0.79891  -0.78103  -0.77555  -0.75422  -0.74948
 Alpha  occ. eigenvalues --   -0.74532  -0.74204  -0.74013  -0.73703  -0.73107
 Alpha  occ. eigenvalues --   -0.72321  -0.69005  -0.67398  -0.66591  -0.63211
 Alpha  occ. eigenvalues --   -0.62055  -0.61511  -0.61377  -0.60848  -0.60549
 Alpha  occ. eigenvalues --   -0.59881  -0.59293  -0.58435  -0.57118  -0.55537
 Alpha  occ. eigenvalues --   -0.54346  -0.53382  -0.52341  -0.51161  -0.50807
 Alpha  occ. eigenvalues --   -0.50603  -0.49760  -0.49020  -0.48669  -0.47397
 Alpha  occ. eigenvalues --   -0.46555  -0.45946  -0.45529  -0.45236  -0.44872
 Alpha  occ. eigenvalues --   -0.44134  -0.44095  -0.43790  -0.43454  -0.42994
 Alpha  occ. eigenvalues --   -0.42423  -0.42240  -0.42171  -0.41590  -0.41441
 Alpha  occ. eigenvalues --   -0.41347  -0.40915  -0.40646  -0.39949  -0.39478
 Alpha  occ. eigenvalues --   -0.38834  -0.37822  -0.37715  -0.37646  -0.37121
 Alpha  occ. eigenvalues --   -0.36943  -0.36553  -0.36203  -0.36070  -0.35294
 Alpha  occ. eigenvalues --   -0.35099  -0.34524  -0.33971  -0.33931  -0.33619
 Alpha  occ. eigenvalues --   -0.33459  -0.33228  -0.33057  -0.32724  -0.32224
 Alpha  occ. eigenvalues --   -0.31583  -0.27893  -0.27558  -0.26806  -0.25635
 Alpha  occ. eigenvalues --   -0.25547  -0.25297  -0.25210  -0.25171  -0.25113
 Alpha  occ. eigenvalues --   -0.24175  -0.22311  -0.21300  -0.20366
 Alpha virt. eigenvalues --   -0.07932  -0.06549  -0.04327  -0.01232  -0.00895
 Alpha virt. eigenvalues --   -0.00577  -0.00536  -0.00324  -0.00186   0.00242
 Alpha virt. eigenvalues --    0.02391   0.05203   0.05822   0.09366   0.09576

 Mulliken charges:
               1
     1  C   -0.348571
     2  C   -0.109807
     3  C    0.080064
     4  C   -0.194134
     5  C   -0.162907
     6  C    0.091442
     7  C   -0.514196
     8  C    0.449085
     9  N   -0.542009
    10  C    0.442983
    11  C    0.085268
    12  C   -0.167785
    13  C   -0.186105
    14  C    0.103429
    15  C    0.087716
    16  C   -0.172417
    17  C   -0.133940
    18  C   -0.125613
    19  C   -0.133922
    20  C   -0.172339
    21  C   -0.185893
    22  C   -0.167593
    23  N   -0.525602
    24  C    0.396068
    25  C    0.050604
    26  C   -0.166582
    27  C   -0.141336
    28  C   -0.177422
    29  C    0.121424
    30  C   -0.195526
    31  C   -0.130413
    32  C   -0.144252
    33  C   -0.178556
    34  C    0.090003
    35  N   -0.531001
    36  C    0.063461
    37  C   -0.167966
    38  C   -0.134236
    39  C   -0.125388
    40  C   -0.134154
    41  C   -0.167579
    42  H    0.159462
    43  H    0.149442
    44  H    0.149804
    45  H    0.139033
    46  H    0.176861
    47  H    0.151667
    48  H    0.171275
    49  H    0.169627
    50  H    0.161368
    51  H    0.135243
    52  H    0.135019
    53  H    0.132080
    54  H    0.131123
    55  H    0.131936
    56  H    0.134522
    57  H    0.135040
    58  H    0.159849
    59  H    0.158539
    60  H    0.133831
    61  H    0.132578
    62  H    0.129242
    63  H    0.129417
    64  H    0.132112
    65  H    0.162531
    66  H    0.141292
    67  H    0.132672
    68  H    0.131805
    69  H    0.132619
    70  H    0.135708
 Sum of Mulliken charges =  -0.00000

 Dipole moment (field-independent basis, Debye):
    X=              0.8524    Y=             -0.2690    Z=              0.1382  Tot=              0.9044
 Quadrupole moment (field-independent basis, Debye-Ang):
   XX=           -196.9055   YY=           -210.3760   ZZ=           -235.9032
   XY=              0.9892   XZ=             -2.2541   YZ=             -3.5336

 Normal termination of Gaussian 16 at Sat Nov  5 10:18:34 2022.
