 Gaussian 16, Revision B.01,
 Gaussian 16:  ES64L-G16RevB.01 20-Dec-2017

 -----------------------------
 #p b3lyp/6-31g(d) opt SCF=XQC
 -----------------------------

 ------------------------------
 Gaussian input prepared by ASE
 ------------------------------
 Symbolic Z-matrix:
 Charge =  0 Multiplicity = 1

 SCF Done:  E(RB3LYP) =  -3685.35900435     A.U. after   16 cycles
 SCF Done:  E(RB3LYP) =  -3685.37590737     A.U. after   13 cycles
 SCF Done:  E(RB3LYP) =  -3685.37608704     A.U. after   12 cycles
 SCF Done:  E(RB3LYP) =  -3685.37665834     A.U. after   11 cycles
 SCF Done:  E(RB3LYP) =  -3685.37670560     A.U. after   10 cycles
 SCF Done:  E(RB3LYP) =  -3685.37671865     A.U. after    9 cycles
 SCF Done:  E(RB3LYP) =  -3685.37672668     A.U. after    9 cycles
 SCF Done:  E(RB3LYP) =  -3685.37673085     A.U. after    9 cycles
 SCF Done:  E(RB3LYP) =  -3685.37673216     A.U. after    9 cycles
 SCF Done:  E(RB3LYP) =  -3685.37673248     A.U. after    7 cycles
 SCF Done:  E(RB3LYP) =  -3685.37673250     A.U. after    6 cycles
 Optimization completed.
    -- Stationary point found.

                         Standard orientation:
 ---------------------------------------------------------------------
 Center     Atomic      Atomic             Coordinates (Angstroms)
 Number     Number       Type             X           Y           Z
 ---------------------------------------------------------------------
      1          6           0       14.187715    4.513879   -0.443997
      2          6           0       13.145457    4.565886    0.695871
      3          6           0       13.863130    4.664112    2.061001
      4          6           0       12.163546    5.720259    0.499548
      5          6           0       12.421826    7.085713    0.451242
      6          6           0       11.357655    7.974998    0.260286
      7          6           0       10.049514    7.498844    0.119505
      8          6           0        9.783141    6.129134    0.167075
      9          6           0       10.845676    5.242578    0.357670
     10          6           0       10.864441    3.778440    0.447784
     11          6           0        9.808806    2.867695    0.366079
     12          6           0       10.147194    1.522113    0.489360
     13          6           0       11.481004    1.081681    0.690264
     14          6           0       12.521954    2.016649    0.768623
     15          6           0       12.204363    3.361571    0.646094
     16          6           0       11.445556   -0.368464    0.779641
     17          6           0       12.392359   -1.370498    0.976260
     18          6           0       11.950508   -2.692580    1.042814
     19          6           0       10.599215   -3.066253    0.905968
     20          6           0       10.301186   -4.515318    1.122497
     21          6           0       10.781854   -5.485712    0.230915
     22          6           0       10.561291   -6.844039    0.468312
     23          6           0        9.865710   -7.252972    1.606712
     24          6           0        9.393166   -6.295806    2.508225
     25          6           0        9.610022   -4.939540    2.269336
     26          6           0        9.617381   -2.068329    0.643507
     27          6           0        8.179823   -2.220311    0.357049
     28          6           0        7.529266   -3.454664    0.157864
     29          6           0        6.170308   -3.526899   -0.108644
     30          6           0        5.369082   -2.372277   -0.200784
     31          6           0        3.914543   -2.457897   -0.472513
     32          6           0        3.384526   -3.460331   -1.302414
     33          6           0        2.018763   -3.539391   -1.554351
     34          6           0        1.119245   -2.620866   -0.987986
     35          6           0       -0.338412   -2.708122   -1.257583
     36          6           0       -0.976178   -3.953687   -1.352520
     37          6           0       -2.354286   -4.053906   -1.590300
     38          6           0       -3.012890   -5.382677   -1.689666
     39          6           0       -4.290233   -5.598497   -1.145757
     40          6           0       -4.908419   -6.844517   -1.239110
     41          6           0       -4.262013   -7.904112   -1.878064
     42          6           0       -2.992205   -7.705380   -2.423015
     43          6           0       -2.375449   -6.458610   -2.330144
     44          6           0       -3.096974   -2.873084   -1.733623
     45          6           0       -2.491032   -1.611571   -1.642474
     46          6           0       -3.291693   -0.370234   -1.811158
     47          6           0       -2.767039    0.731029   -2.522299
     48          6           0       -3.480235    1.914912   -2.701578
     49          6           0       -4.755680    1.983536   -2.147560
     50          6           0       -5.317533    0.898221   -1.428833
     51          6           0       -4.580119   -0.273853   -1.264741
     52          6           0       -6.646888    1.310783   -0.990451
     53          6           0       -7.682813    0.733135   -0.260098
     54          6           0       -8.860946    1.470524   -0.022092
     55          6           0       -9.973587    0.865031    0.758761
     56          6           0      -10.688637    1.625449    1.694604
     57          6           0      -11.752241    1.076180    2.424609
     58          6           0      -12.488839    1.893349    3.424371
     59          6           0      -13.880738    1.769817    3.570922
     60          6           0      -14.573949    2.536433    4.506491
     61          6           0      -13.890029    3.444813    5.316469
     62          6           0      -12.506879    3.578509    5.182551
     63          6           0      -11.814201    2.810917    4.247272
     64          6           0      -12.093250   -0.265866    2.203617
     65          6           0      -11.397901   -1.055114    1.276222
     66          6           0      -11.774206   -2.475871    1.054687
     67          6           0      -10.792853   -3.458118    0.839795
     68          6           0      -11.145455   -4.790651    0.631493
     69          6           0      -12.488537   -5.171370    0.634656
     70          6           0      -13.475174   -4.206929    0.847427
     71          6           0      -13.121539   -2.874450    1.054377
     72          6           0      -10.340726   -0.473704    0.561194
     73          6           0       -8.984631    2.781027   -0.522892
     74          6           0       -7.960230    3.394483   -1.261179
     75          6           0       -7.951003    4.738303   -1.843849
     76          6           0       -9.029109    5.633111   -1.728592
     77          6           0       -8.970795    6.898581   -2.298619
     78          6           0       -7.830536    7.308602   -3.002057
     79          6           0       -6.753959    6.441819   -3.128349
     80          6           0       -6.797834    5.160641   -2.558825
     81          6           0       -5.593392    4.302694   -2.748434
     82          8           0       -4.591550    4.652565   -3.359422
     83          7           0       -5.694138    3.038782   -2.163796
     84          6           0       -6.820194    2.621725   -1.465270
     85          6           0       -1.110866   -1.547024   -1.404591
     86          6           0        1.649531   -1.618115   -0.158940
     87          6           0        3.015184   -1.538100    0.092965
     88          6           0        6.008483   -1.141915   -0.040697
     89          6           0        7.380350   -1.050127    0.221751
     90          6           0        7.930660    0.330220    0.286532
     91          8           0        7.252223    1.345962    0.185544
     92          7           0        9.312257    0.381541    0.443712
     93          6           0       10.100180   -0.753539    0.622179
     94          1           0       13.699636    4.443308   -1.421234
     95          1           0       14.813300    5.414061   -0.438026
     96          1           0       14.847400    3.646016   -0.327124
     97          1           0       14.483502    5.566675    2.108226
     98          1           0       14.517431    3.798605    2.218496
     99          1           0       13.141861    4.701702    2.883530
    100          1           0       13.434980    7.466304    0.559552
    101          1           0       11.549332    9.044028    0.221023
    102          1           0        9.233504    8.201218   -0.028221
    103          1           0        8.765736    5.762743    0.057349
    104          1           0        8.780249    3.168795    0.217446
    105          1           0       13.547312    1.688692    0.922117
    106          1           0       13.446491   -1.137963    1.097535
    107          1           0       12.671637   -3.480112    1.240279
    108          1           0       11.322395   -5.169261   -0.657192
    109          1           0       10.934678   -7.581475   -0.237402
    110          1           0        9.695562   -8.309896    1.793168
    111          1           0        8.858754   -6.606110    3.402268
    112          1           0        9.243725   -4.197654    2.973667
    113          1           0        8.092175   -4.374939    0.211641
    114          1           0        5.714038   -4.505624   -0.227089
    115          1           0        4.053627   -4.165788   -1.787149
    116          1           0        1.646492   -4.305298   -2.228952
    117          1           0       -0.399977   -4.858949   -1.187249
    118          1           0       -4.790504   -4.787839   -0.623171
    119          1           0       -5.893571   -6.990209   -0.803596
    120          1           0       -4.743330   -8.875610   -1.950751
    121          1           0       -2.483092   -8.520663   -2.930425
    122          1           0       -1.398581   -6.307287   -2.781004
    123          1           0       -4.154313   -2.937417   -1.972351
    124          1           0       -1.780715    0.645131   -2.968239
    125          1           0       -3.072834    2.750741   -3.254829
    126          1           0       -4.989189   -1.102420   -0.693719
    127          1           0       -7.584970   -0.267834    0.149359
    128          1           0      -10.412240    2.662722    1.858540
    129          1           0      -14.425731    1.084178    2.927917
    130          1           0      -15.651803    2.429534    4.596740
    131          1           0      -14.429919    4.042558    6.045830
    132          1           0      -11.962818    4.275667    5.814430
    133          1           0      -10.734334    2.903049    4.170765
    134          1           0      -12.879179   -0.718121    2.800775
    135          1           0       -9.743575   -3.176986    0.862049
    136          1           0      -10.368530   -5.534520    0.475321
    137          1           0      -12.763779   -6.209996    0.472765
    138          1           0      -14.524422   -4.490401    0.843540
    139          1           0      -13.898437   -2.127619    1.192584
    140          1           0       -9.829699   -1.057456   -0.198600
    141          1           0       -9.914179    3.312292   -0.347179
    142          1           0       -9.920888    5.333066   -1.187289
    143          1           0       -9.817426    7.572055   -2.196143
    144          1           0       -7.788967    8.298930   -3.446100
    145          1           0       -5.856239    6.727592   -3.666204
    146          1           0       -0.629538   -0.576412   -1.333503
    147          1           0        0.979186   -0.911992    0.322802
    148          1           0        3.386933   -0.769853    0.764891
    149          1           0        5.462923   -0.211047   -0.150638
 ---------------------------------------------------------------------

 The electronic state is 1-A.
 Alpha  occ. eigenvalues --  -19.12729 -19.12281 -14.40102 -14.39659 -10.30353
 Alpha  occ. eigenvalues --  -10.29838 -10.23511 -10.23406 -10.23237 -10.23094
 Alpha  occ. eigenvalues --  -10.22113 -10.21774 -10.21449 -10.21345 -10.21173
 Alpha  occ. eigenvalues --  -10.21086 -10.20912 -10.20649 -10.20639 -10.20629
 Alpha  occ. eigenvalues --  -10.20615 -10.20523 -10.20523 -10.20517 -10.20516
 Alpha  occ. eigenvalues --  -10.20465 -10.20429 -10.20390 -10.20384 -10.20367
 Alpha  occ. eigenvalues --  -10.20277 -10.20211 -10.20196 -10.20191 -10.20188
 Alpha  occ. eigenvalues --  -10.20182 -10.20165 -10.20161 -10.20119 -10.20111
 Alpha  occ. eigenvalues --  -10.20110 -10.20052 -10.20030 -10.19933 -10.19873
 Alpha  occ. eigenvalues --  -10.19840 -10.19677 -10.19629 -10.19575 -10.19554
 Alpha  occ. eigenvalues --  -10.19489 -10.19480 -10.19463 -10.19444 -10.19420
 Alpha  occ. eigenvalues --  -10.19415 -10.19379 -10.19348 -10.19335 -10.19309
 Alpha  occ. eigenvalues --  -10.19306 -10.19285 -10.19282 -10.19275 -10.19267
 Alpha  occ. eigenvalues --  -10.19243 -10.19228 -10.19222 -10.19215 -10.19208
 Alpha  occ. eigenvalues --  -10.19202 -10.19201 -10.19200 -10.19191 -10.19177
 Alpha  occ. eigenvalues --  -10.19163 -10.19121 -10.19104 -10.19104 -10.19077
 Alpha  occ. eigenvalues --  -10.19024 -10.19009 -10.19004 -10.18919 -10.18916
 Alpha  occ. eigenvalues --  -10.18843 -10.18681 -10.18639 -10.18596 -10.18590
 Alpha  occ. eigenvalues --  -10.18535 -10.17929 -10.17928  -1.05179  -1.04773
 Alpha  occ. eigenvalues --   -0.99083  -0.98561  -0.88672  -0.88314  -0.88007
 Alpha  occ. eigenvalues --   -0.87810  -0.87546  -0.86907  -0.86392  -0.85881
 Alpha  occ. eigenvalues --   -0.85842  -0.85793  -0.85093  -0.84589  -0.84345
 Alpha  occ. eigenvalues --   -0.84007  -0.81766  -0.81001  -0.80050  -0.79560
 Alpha  occ. eigenvalues --   -0.79130  -0.78654  -0.78214  -0.77680  -0.77139
 Alpha  occ. eigenvalues --   -0.76916  -0.76417  -0.75962  -0.75170  -0.74926
 Alpha  occ. eigenvalues --   -0.74778  -0.74711  -0.74665  -0.74578  -0.74322
 Alpha  occ. eigenvalues --   -0.74117  -0.73918  -0.73341  -0.73263  -0.72955
 Alpha  occ. eigenvalues --   -0.72252  -0.71851  -0.71663  -0.70954  -0.70337
 Alpha  occ. eigenvalues --   -0.68614  -0.67208  -0.67052  -0.65490  -0.65241
 Alpha  occ. eigenvalues --   -0.64242  -0.63730  -0.63236  -0.63129  -0.62923
 Alpha  occ. eigenvalues --   -0.62612  -0.62031  -0.61783  -0.61516  -0.60913
 Alpha  occ. eigenvalues --   -0.60725  -0.60610  -0.60523  -0.60338  -0.60151
 Alpha  occ. eigenvalues --   -0.59696  -0.58597  -0.58327  -0.58087  -0.57865
 Alpha  occ. eigenvalues --   -0.57288  -0.56936  -0.56727  -0.56495  -0.55700
 Alpha  occ. eigenvalues --   -0.55416  -0.54860  -0.54465  -0.53928  -0.53495
 Alpha  occ. eigenvalues --   -0.52950  -0.52330  -0.51997  -0.51143  -0.50820
 Alpha  occ. eigenvalues --   -0.50651  -0.50264  -0.49892  -0.49579  -0.49110
 Alpha  occ. eigenvalues --   -0.48826  -0.48353  -0.47907  -0.47789  -0.47470
 Alpha  occ. eigenvalues --   -0.47438  -0.47009  -0.46892  -0.46706  -0.46588
 Alpha  occ. eigenvalues --   -0.46552  -0.46080  -0.45958  -0.45756  -0.45644
 Alpha  occ. eigenvalues --   -0.45499  -0.45415  -0.45364  -0.45007  -0.44965
 Alpha  occ. eigenvalues --   -0.44908  -0.44660  -0.44277  -0.43804  -0.43773
 Alpha  occ. eigenvalues --   -0.43700  -0.43613  -0.43369  -0.43232  -0.43037
 Alpha  occ. eigenvalues --   -0.42984  -0.42886  -0.42855  -0.42664  -0.42644
 Alpha  occ. eigenvalues --   -0.42556  -0.42485  -0.42361  -0.42326  -0.42287
 Alpha  occ. eigenvalues --   -0.42199  -0.42064  -0.41983  -0.41883  -0.41824
 Alpha  occ. eigenvalues --   -0.41595  -0.40924  -0.40412  -0.39850  -0.39586
 Alpha  occ. eigenvalues --   -0.39459  -0.39184  -0.39013  -0.38931  -0.38793
 Alpha  occ. eigenvalues --   -0.38681  -0.38178  -0.38044  -0.38014  -0.37734
 Alpha  occ. eigenvalues --   -0.37637  -0.37130  -0.37075  -0.36964  -0.36929
 Alpha  occ. eigenvalues --   -0.36716  -0.36668  -0.36574  -0.36394  -0.36280
 Alpha  occ. eigenvalues --   -0.36063  -0.35793  -0.35497  -0.35392  -0.35345
 Alpha  occ. eigenvalues --   -0.35152  -0.34909  -0.34833  -0.34687  -0.34612
 Alpha  occ. eigenvalues --   -0.34489  -0.34467  -0.34392  -0.34297  -0.34156
 Alpha  occ. eigenvalues --   -0.33849  -0.33699  -0.33499  -0.33376  -0.33184
 Alpha  occ. eigenvalues --   -0.33094  -0.32579  -0.32016  -0.31974  -0.31666
 Alpha  occ. eigenvalues --   -0.30744  -0.30473  -0.28750  -0.28636  -0.28204
 Alpha  occ. eigenvalues --   -0.27587  -0.27027  -0.26548  -0.26327  -0.26149
 Alpha  occ. eigenvalues --   -0.26063  -0.26021  -0.25922  -0.25451  -0.25300
 Alpha  occ. eigenvalues --   -0.25277  -0.25254  -0.25155  -0.24881  -0.24397
 Alpha  occ. eigenvalues --   -0.24101  -0.23753  -0.23394  -0.22876  -0.22373
 Alpha  occ. eigenvalues --   -0.22068  -0.21993  -0.21035  -0.20794  -0.20169
 Alpha virt. eigenvalues --   -0.06565  -0.06444  -0.04411  -0.04195  -0.03813
 Alpha virt. eigenvalues --   -0.03553  -0.03518  -0.02920  -0.02196  -0.01725
 Alpha virt. eigenvalues --   -0.01180  -0.00818  -0.00507  -0.00412  -0.00350

 Mulliken charges:
               1
     1  C   -0.436830
     2  C   -0.064124
     3  C   -0.436799
     4  C    0.102822
     5  C   -0.203494
     6  C   -0.131223
     7  C   -0.136929
     8  C   -0.190374
     9  C    0.074472
    10  C    0.080284
    11  C   -0.237888
    12  C    0.318478
    13  C    0.053024
    14  C   -0.276983
    15  C    0.092351
    16  C    0.114938
    17  C   -0.221891
    18  C   -0.170073
    19  C   -0.020548
    20  C    0.014200
    21  C   -0.158635
    22  C   -0.132255
    23  C   -0.127174
    24  C   -0.131697
    25  C   -0.147134
    26  C    0.089850
    27  C    0.119724
    28  C   -0.204749
    29  C   -0.180777
    30  C    0.104493
    31  C    0.098951
    32  C   -0.183047
    33  C   -0.179972
    34  C    0.094275
    35  C    0.095134
    36  C   -0.235154
    37  C    0.093820
    38  C    0.087940
    39  C   -0.170528
    40  C   -0.133405
    41  C   -0.125924
    42  C   -0.134003
    43  C   -0.171226
    44  C   -0.233435
    45  C    0.093163
    46  C    0.086995
    47  C   -0.195461
    48  C   -0.160987
    49  C    0.323380
    50  C    0.043556
    51  C   -0.255701
    52  C    0.130764
    53  C   -0.277065
    54  C    0.097760
    55  C    0.090031
    56  C   -0.231717
    57  C    0.093276
    58  C    0.085512
    59  C   -0.171636
    60  C   -0.134248
    61  C   -0.126053
    62  C   -0.134722
    63  C   -0.173331
    64  C   -0.234510
    65  C    0.093863
    66  C    0.088159
    67  C   -0.170592
    68  C   -0.133349
    69  C   -0.125733
    70  C   -0.133948
    71  C   -0.171274
    72  C   -0.234422
    73  C   -0.294070
    74  C    0.140530
    75  C    0.117152
    76  C   -0.190102
    77  C   -0.128017
    78  C   -0.128904
    79  C   -0.180347
    80  C   -0.007584
    81  C    0.595294
    82  O   -0.511271
    83  N   -0.749055
    84  C    0.207898
    85  C   -0.233523
    86  C   -0.181942
    87  C   -0.179743
    88  C   -0.250925
    89  C   -0.010282
    90  C    0.603511
    91  O   -0.516321
    92  N   -0.758514
    93  C    0.208530
    94  H    0.158741
    95  H    0.144330
    96  H    0.142135
    97  H    0.144314
    98  H    0.142151
    99  H    0.158675
   100  H    0.123613
   101  H    0.127037
   102  H    0.129554
   103  H    0.138542
   104  H    0.182406
   105  H    0.128878
   106  H    0.137930
   107  H    0.136597
   108  H    0.137449
   109  H    0.134143
   110  H    0.133035
   111  H    0.135541
   112  H    0.140936
   113  H    0.166378
   114  H    0.138318
   115  H    0.133854
   116  H    0.132766
   117  H    0.137674
   118  H    0.128619
   119  H    0.129055
   120  H    0.130327
   121  H    0.131258
   122  H    0.131285
   123  H    0.136926
   124  H    0.142263
   125  H    0.183324
   126  H    0.136050
   127  H    0.140401
   128  H    0.133568
   129  H    0.130959
   130  H    0.131487
   131  H    0.131034
   132  H    0.132352
   133  H    0.135519
   134  H    0.139278
   135  H    0.128891
   136  H    0.130017
   137  H    0.131047
   138  H    0.131779
   139  H    0.131234
   140  H    0.137727
   141  H    0.143981
   142  H    0.142140
   143  H    0.140263
   144  H    0.140463
   145  H    0.170125
   146  H    0.138112
   147  H    0.139174
   148  H    0.142972
   149  H    0.170863
 Sum of Mulliken charges =  -0.00000

 Dipole moment (field-independent basis, Debye):
    X=             -1.0044    Y=             -2.9871    Z=              1.7639  Tot=              3.6115
 Quadrupole moment (field-independent basis, Debye-Ang):
   XX=           -406.2532   YY=           -464.1291   ZZ=           -534.9434
   XY=            -25.5854   XZ=             -7.6560   YZ=             10.0308

 Normal termination of Gaussian 16 at Sat Nov  5 01:08:58 2022.
