 Gaussian 16, Revision B.01,
 Gaussian 16:  ES64L-G16RevB.01 20-Dec-2017

 -----------------------------
 #p b3lyp/6-31g(d) opt SCF=XQC
 -----------------------------

 ------------------------------
 Gaussian input prepared by ASE
 ------------------------------
 Symbolic Z-matrix:
 Charge =  0 Multiplicity = 1

 SCF Done:  E(RB3LYP) =  -2386.98165725     A.U. after   15 cycles
 SCF Done:  E(RB3LYP) =  -2386.99439564     A.U. after   13 cycles
 SCF Done:  E(RB3LYP) =  -2386.99485352     A.U. after   12 cycles
 SCF Done:  E(RB3LYP) =  -2386.99460647     A.U. after   12 cycles
 SCF Done:  E(RB3LYP) =  -2386.99496884     A.U. after   11 cycles
 SCF Done:  E(RB3LYP) =  -2386.99503856     A.U. after   11 cycles
 SCF Done:  E(RB3LYP) =  -2386.99504941     A.U. after   11 cycles
 SCF Done:  E(RB3LYP) =  -2386.99505789     A.U. after   11 cycles
 SCF Done:  E(RB3LYP) =  -2386.99506164     A.U. after   11 cycles
 SCF Done:  E(RB3LYP) =  -2386.99506390     A.U. after   11 cycles
 SCF Done:  E(RB3LYP) =  -2386.99506570     A.U. after   11 cycles
 SCF Done:  E(RB3LYP) =  -2386.99506617     A.U. after    7 cycles
 SCF Done:  E(RB3LYP) =  -2386.99506637     A.U. after   10 cycles
 SCF Done:  E(RB3LYP) =  -2386.99506645     A.U. after    6 cycles
 SCF Done:  E(RB3LYP) =  -2386.99506651     A.U. after    7 cycles
 Optimization completed.
    -- Stationary point found.

                         Standard orientation:
 ---------------------------------------------------------------------
 Center     Atomic      Atomic             Coordinates (Angstroms)
 Number     Number       Type             X           Y           Z
 ---------------------------------------------------------------------
      1          6           0        3.456672    4.699542    1.008192
      2          6           0        3.950106    3.770571   -0.118304
      3          6           0        3.534464    4.329019   -1.507381
      4          6           0        5.478367    3.699243   -0.110024
      5          6           0        6.396237    4.743247   -0.145545
      6          6           0        7.763615    4.446710   -0.187907
      7          6           0        8.202759    3.118626   -0.205161
      8          6           0        7.287595    2.064788   -0.173893
      9          6           0        5.923196    2.368670   -0.120899
     10          6           0        4.748193    1.506952   -0.059800
     11          6           0        3.556394    2.272635    0.016856
     12          6           0        2.319156    1.604081    0.118132
     13          6           0        2.268257    0.177707    0.050989
     14          6           0        3.455575   -0.584794    0.038424
     15          6           0        4.665178    0.124606   -0.030190
     16          8           0        5.757042   -0.708550   -0.042179
     17          6           0        5.264363   -1.987551    0.063187
     18          6           0        6.069392   -3.131141    0.104632
     19          6           0        7.550401   -3.093161    0.006806
     20          6           0        8.229578   -4.059547   -0.753880
     21          6           0        9.621399   -4.059691   -0.834624
     22          6           0       10.363852   -3.091868   -0.156369
     23          6           0        9.701569   -2.124579    0.602003
     24          6           0        8.309708   -2.122669    0.682938
     25          6           0        5.371876   -4.340860    0.249322
     26          6           0        3.978255   -4.383243    0.366571
     27          6           0        3.210178   -3.222493    0.315659
     28          6           0        3.854121   -1.990053    0.130545
     29          6           0        0.865409   -0.249117   -0.001385
     30          6           0        0.267399   -1.482175   -0.285782
     31          6           0       -1.123835   -1.586697   -0.298755
     32          6           0       -1.943561   -0.477604   -0.036889
     33          6           0       -3.435115   -0.607851   -0.042098
     34          6           0       -4.138370   -0.644116   -1.266943
     35          6           0       -3.464825   -0.544373   -2.528124
     36          6           0       -4.153590   -0.580046   -3.711089
     37          6           0       -5.569381   -0.716860   -3.713513
     38          6           0       -6.255971   -0.808268   -2.532480
     39          6           0       -5.579488   -0.772270   -1.269763
     40          6           0       -6.284451   -0.852143   -0.048678
     41          6           0       -7.777006   -1.002387   -0.052344
     42          6           0       -8.336326   -2.267408   -0.064919
     43          6           0       -9.738552   -2.456003   -0.068937
     44          6           0      -10.582488   -1.370588   -0.059985
     45          6           0      -10.060376   -0.049870   -0.046685
     46          6           0      -10.913260    1.087029   -0.037080
     47          6           0      -10.395148    2.361529   -0.024178
     48          6           0       -8.992953    2.555727   -0.020313
     49          6           0       -8.137983    1.476427   -0.029375
     50          6           0       -8.638295    0.144986   -0.042800
     51          6           0       -5.582141   -0.807964    1.175728
     52          6           0       -6.260996   -0.881238    2.435564
     53          6           0       -5.574486   -0.849836    3.619775
     54          6           0       -4.155654   -0.748964    3.623628
     55          6           0       -3.465199   -0.673250    2.443541
     56          6           0       -4.140309   -0.689477    1.179386
     57          6           0       -1.334338    0.765880    0.205876
     58          6           0        0.050243    0.876558    0.201783
     59          6           0        0.889438    2.132920    0.397135
     60          6           0        0.370562    3.255850   -0.521164
     61          6           0        0.761991    2.557912    1.887098
     62          1           0        3.935341    5.680923    0.916642
     63          1           0        2.377655    4.863566    0.963765
     64          1           0        3.707413    4.295173    1.994186
     65          1           0        3.941457    5.338276   -1.638234
     66          1           0        3.932990    3.699100   -2.308922
     67          1           0        2.451390    4.383897   -1.623091
     68          1           0        6.067298    5.779825   -0.141918
     69          1           0        8.488923    5.255756   -0.209954
     70          1           0        9.267466    2.904066   -0.244171
     71          1           0        7.626347    1.034312   -0.193592
     72          1           0        7.658220   -4.802954   -1.302900
     73          1           0       10.125097   -4.812925   -1.434818
     74          1           0       11.448685   -3.089960   -0.219741
     75          1           0       10.270454   -1.370283    1.139422
     76          1           0        7.806516   -1.373411    1.284588
     77          1           0        5.941268   -5.263442    0.312183
     78          1           0        3.487100   -5.340585    0.515483
     79          1           0        2.139564   -3.283144    0.455492
     80          1           0        0.863307   -2.347750   -0.542578
     81          1           0       -1.586561   -2.544093   -0.522091
     82          1           0       -2.386007   -0.436020   -2.531933
     83          1           0       -3.618477   -0.501475   -4.653713
     84          1           0       -6.106329   -0.745319   -4.657897
     85          1           0       -7.335599   -0.909507   -2.538157
     86          1           0       -7.680952   -3.134166   -0.071926
     87          1           0      -10.141590   -3.465091   -0.079070
     88          1           0      -11.661387   -1.507300   -0.062914
     89          1           0      -11.989385    0.929104   -0.040135
     90          1           0      -11.059379    3.221573   -0.016959
     91          1           0       -8.590058    3.564946   -0.010221
     92          1           0       -7.063967    1.631584   -0.026534
     93          1           0       -7.342084   -0.965625    2.436478
     94          1           0       -6.113153   -0.906572    4.561902
     95          1           0       -3.619279   -0.735403    4.568722
     96          1           0       -2.383315   -0.601744    2.451842
     97          1           0       -1.963601    1.635390    0.378525
     98          1           0        0.871382    4.206509   -0.327784
     99          1           0        0.501142    2.999434   -1.577290
    100          1           0       -0.698481    3.417199   -0.345137
    101          1           0        1.062494    1.738774    2.548063
    102          1           0       -0.279360    2.813592    2.115106
    103          1           0        1.382709    3.425795    2.117626
 ---------------------------------------------------------------------

 The electronic state is 1-A.
 Alpha  occ. eigenvalues --  -19.21008 -10.24898 -10.24515 -10.21324 -10.21223
 Alpha  occ. eigenvalues --  -10.20522 -10.20408 -10.20367 -10.20211 -10.20110
 Alpha  occ. eigenvalues --  -10.20081 -10.19875 -10.19868 -10.19843 -10.19841
 Alpha  occ. eigenvalues --  -10.19802 -10.19787 -10.19761 -10.19742 -10.19727
 Alpha  occ. eigenvalues --  -10.19717 -10.19701 -10.19579 -10.19546 -10.19543
 Alpha  occ. eigenvalues --  -10.19385 -10.19112 -10.19105 -10.19063 -10.19042
 Alpha  occ. eigenvalues --  -10.19033 -10.19022 -10.19007 -10.19005 -10.18984
 Alpha  occ. eigenvalues --  -10.18980 -10.18978 -10.18939 -10.18933 -10.18911
 Alpha  occ. eigenvalues --  -10.18883 -10.18879 -10.18773 -10.18771 -10.18717
 Alpha  occ. eigenvalues --  -10.18690 -10.18679 -10.18674 -10.18652 -10.18643
 Alpha  occ. eigenvalues --  -10.18629 -10.18556 -10.18463 -10.18427 -10.18406
 Alpha  occ. eigenvalues --  -10.18400 -10.18388 -10.18202 -10.18142 -10.17991
 Alpha  occ. eigenvalues --  -10.17873  -1.10764  -0.89559  -0.88517  -0.87787
 Alpha  occ. eigenvalues --   -0.86876  -0.86696  -0.84934  -0.84311  -0.84208
 Alpha  occ. eigenvalues --   -0.82407  -0.81880  -0.81541  -0.79939  -0.79418
 Alpha  occ. eigenvalues --   -0.78694  -0.77691  -0.76395  -0.75614  -0.74601
 Alpha  occ. eigenvalues --   -0.74537  -0.74221  -0.73798  -0.73699  -0.73357
 Alpha  occ. eigenvalues --   -0.73304  -0.73032  -0.71965  -0.71707  -0.70663
 Alpha  occ. eigenvalues --   -0.69324  -0.68654  -0.68614  -0.65469  -0.64694
 Alpha  occ. eigenvalues --   -0.64270  -0.62991  -0.62328  -0.62257  -0.61474
 Alpha  occ. eigenvalues --   -0.61237  -0.61018  -0.60501  -0.59735  -0.59566
 Alpha  occ. eigenvalues --   -0.58786  -0.58447  -0.57578  -0.56711  -0.55701
 Alpha  occ. eigenvalues --   -0.55530  -0.54587  -0.53349  -0.52199  -0.52017
 Alpha  occ. eigenvalues --   -0.51378  -0.51103  -0.50980  -0.50823  -0.50472
 Alpha  occ. eigenvalues --   -0.49186  -0.48874  -0.48442  -0.47304  -0.46632
 Alpha  occ. eigenvalues --   -0.46433  -0.46173  -0.46012  -0.45806  -0.45677
 Alpha  occ. eigenvalues --   -0.45147  -0.45004  -0.44475  -0.44344  -0.44178
 Alpha  occ. eigenvalues --   -0.43795  -0.43542  -0.43478  -0.43455  -0.43096
 Alpha  occ. eigenvalues --   -0.43012  -0.42553  -0.42414  -0.42235  -0.42131
 Alpha  occ. eigenvalues --   -0.41998  -0.41648  -0.41491  -0.41260  -0.40943
 Alpha  occ. eigenvalues --   -0.40383  -0.40260  -0.40217  -0.40149  -0.39720
 Alpha  occ. eigenvalues --   -0.38715  -0.38573  -0.38315  -0.38185  -0.37816
 Alpha  occ. eigenvalues --   -0.37380  -0.37352  -0.36987  -0.36929  -0.36813
 Alpha  occ. eigenvalues --   -0.36735  -0.36418  -0.36131  -0.35583  -0.35457
 Alpha  occ. eigenvalues --   -0.35150  -0.34728  -0.34568  -0.34365  -0.34132
 Alpha  occ. eigenvalues --   -0.34008  -0.33966  -0.33770  -0.33733  -0.33564
 Alpha  occ. eigenvalues --   -0.33191  -0.33043  -0.32212  -0.31889  -0.31638
 Alpha  occ. eigenvalues --   -0.31294  -0.30708  -0.29676  -0.29525  -0.28669
 Alpha  occ. eigenvalues --   -0.28012  -0.27898  -0.25517  -0.25335  -0.24891
 Alpha  occ. eigenvalues --   -0.24626  -0.24465  -0.24195  -0.24089  -0.23576
 Alpha  occ. eigenvalues --   -0.23077  -0.21525  -0.21258  -0.19472  -0.18771
 Alpha virt. eigenvalues --   -0.06089  -0.05318  -0.03791  -0.02959  -0.01555
 Alpha virt. eigenvalues --   -0.00969  -0.00498   0.00052   0.00105   0.00367
 Alpha virt. eigenvalues --    0.00612   0.01434   0.01704   0.03236   0.03314

 Mulliken charges:
               1
     1  C   -0.459088
     2  C   -0.069502
     3  C   -0.442416
     4  C    0.098951
     5  C   -0.204635
     6  C   -0.130601
     7  C   -0.141676
     8  C   -0.191859
     9  C    0.108995
    10  C   -0.008143
    11  C    0.025857
    12  C    0.019224
    13  C   -0.050269
    14  C    0.063155
    15  C    0.228506
    16  O   -0.566540
    17  C    0.252220
    18  C    0.021190
    19  C    0.098545
    20  C   -0.169440
    21  C   -0.134399
    22  C   -0.124840
    23  C   -0.139645
    24  C   -0.159066
    25  C   -0.188902
    26  C   -0.147249
    27  C   -0.196540
    28  C    0.081902
    29  C    0.105821
    30  C   -0.197753
    31  C   -0.169924
    32  C    0.018061
    33  C   -0.079891
    34  C    0.104026
    35  C   -0.199538
    36  C   -0.134865
    37  C   -0.134861
    38  C   -0.194016
    39  C    0.109076
    40  C   -0.098015
    41  C   -0.054193
    42  C   -0.163086
    43  C   -0.138780
    44  C   -0.185896
    45  C    0.128124
    46  C   -0.194796
    47  C   -0.131881
    48  C   -0.134276
    49  C   -0.190344
    50  C    0.116479
    51  C    0.109003
    52  C   -0.193890
    53  C   -0.135024
    54  C   -0.134762
    55  C   -0.199116
    56  C    0.103640
    57  C   -0.236344
    58  C    0.105471
    59  C   -0.062544
    60  C   -0.462278
    61  C   -0.443247
    62  H    0.146820
    63  H    0.154595
    64  H    0.159096
    65  H    0.144336
    66  H    0.158481
    67  H    0.153499
    68  H    0.123612
    69  H    0.126155
    70  H    0.127843
    71  H    0.156455
    72  H    0.133373
    73  H    0.130701
    74  H    0.129805
    75  H    0.131232
    76  H    0.146003
    77  H    0.134828
    78  H    0.131551
    79  H    0.141971
    80  H    0.139325
    81  H    0.136987
    82  H    0.146210
    83  H    0.128993
    84  H    0.129383
    85  H    0.146746
    86  H    0.138286
    87  H    0.131934
    88  H    0.129485
    89  H    0.129181
    90  H    0.129840
    91  H    0.130399
    92  H    0.145569
    93  H    0.146788
    94  H    0.129320
    95  H    0.128695
    96  H    0.145303
    97  H    0.133410
    98  H    0.155006
    99  H    0.159119
   100  H    0.148769
   101  H    0.156087
   102  H    0.145938
   103  H    0.154755
 Sum of Mulliken charges =  -0.00000

 Dipole moment (field-independent basis, Debye):
    X=             -0.4731    Y=              0.7901    Z=              0.1447  Tot=              0.9322
 Quadrupole moment (field-independent basis, Debye-Ang):
   XX=           -316.7749   YY=           -321.9029   ZZ=           -346.3493
   XY=              0.2866   XZ=             -0.3726   YZ=              3.2435

 1\1\GINC-NODE42\FOpt\RB3LYP\6-31G(d)\C60H42O1\WYKGROUP\05-Nov-2022\0\\
 #p b3lyp/6-31g(d) opt SCF=XQC\\Gaussian input prepared by ASE\\0,1\C,-
 3.6385084162,-3.9250073908,2.1585110535\C,-4.0801187991,-3.3223895087,
 0.810441849\C,-3.6715686349,-4.2543035233,-0.3637729981\C,-5.604147508
 1,-3.1960130686,0.7645650497\C,-6.5636876488,-4.1758176433,0.994689127
 2\C,-7.917128151,-3.8526835061,0.8422595254\C,-8.3010634527,-2.5649433
 394,0.4533232961\C,-7.3437725853,-1.5767513272,0.2163640634\C,-5.99373
 48815,-1.9039284921,0.3809570501\C,-4.7850909192,-1.1016790843,0.23096

 Normal termination of Gaussian 16 at Sat Nov  5 01:15:12 2022.
