 Gaussian 16, Revision B.01,
 Gaussian 16:  ES64L-G16RevB.01 20-Dec-2017

 -------------------------------------------------------------------
 #p b3lyp/6-31g(d) 6D 10F nosymm GFInput td=(50-50,nstate=2) SCF=XQC
 -------------------------------------------------------------------

 ------------------------------
 Gaussian input prepared by ASE
 ------------------------------
 Symbolic Z-matrix:
 Charge =  0 Multiplicity = 1

                          Input orientation:
 ---------------------------------------------------------------------
 Center     Atomic      Atomic             Coordinates (Angstroms)
 Number     Number       Type             X           Y           Z
 ---------------------------------------------------------------------
      1          6           0      -14.052574    3.838333   -3.048157
      2          6           0      -13.013792    3.050522   -3.877971
      3          6           0      -13.734569    2.164065   -4.918622
      4          6           0      -12.009305    3.988144   -4.546656
      5          6           0      -12.241301    4.989778   -5.482826
      6          6           0      -11.159648    5.735269   -5.966584
      7          6           0       -9.860312    5.478043   -5.515657
      8          6           0       -9.620303    4.473799   -4.575863
      9          6           0      -10.700266    3.730462   -4.093766
     10          6           0      -10.747302    2.634055   -3.120190
     11          6           0       -9.708938    2.032463   -2.405778
     12          6           0      -10.073398    1.001340   -1.543080
     13          6           0      -11.416113    0.569783   -1.387294
     14          6           0      -12.439319    1.190597   -2.116348
     15          6           0      -12.095668    2.221057   -2.979335
     16          6           0      -11.408676   -0.517106   -0.422522
     17          6           0      -12.375156   -1.348038    0.138401
     18          6           0      -11.958864   -2.334964    1.032962
     19          6           0      -10.614443   -2.523379    1.408973
     20          6           0      -10.344931   -3.703836    2.286116
     21          6           0      -10.840682   -3.748874    3.597538
     22          6           0      -10.646968   -4.878859    4.394824
     23          6           0       -9.963587   -5.985205    3.888859
     24          6           0       -9.476247   -5.956405    2.579714
     25          6           0       -9.666289   -4.826876    1.784981
     26          6           0       -9.612770   -1.649255    0.897803
     27          6           0       -8.177310   -1.576658    1.223248
     28          6           0       -7.549683   -2.316761    2.245431
     29          6           0       -6.191361   -2.200777    2.499443
     30          6           0       -5.367910   -1.333889    1.755104
     31          6           0       -3.914262   -1.225189    2.023323
     32          6           0       -3.400363   -1.352826    3.324916
     33          6           0       -2.035423   -1.252091    3.573556
     34          6           0       -1.120671   -1.019949    2.532917
     35          6           0        0.336055   -0.913964    2.800825
     36          6           0        0.950291   -1.735639    3.757253
     37          6           0        2.327117   -1.660061    4.011030
     38          6           0        2.960616   -2.537630    5.029764
     39          6           0        4.231561   -3.095874    4.812781
     40          6           0        4.826205   -3.918677    5.768202
     41          6           0        4.162098   -4.202979    6.962764
     42          6           0        2.898363   -3.656172    7.192671
     43          6           0        2.305166   -2.832522    6.237074
     44          6           0        3.092732   -0.737481    3.283607
     45          6           0        2.510633    0.097617    2.318897
     46          6           0        3.335460    1.079923    1.567124
     47          6           0        2.834583    2.369158    1.282943
     48          6           0        3.570905    3.319851    0.578401
     49          6           0        4.845342    2.955133    0.152732
     50          6           0        5.383687    1.671172    0.420665
     51          6           0        4.623435    0.739961    1.127293
     52          6           0        6.719021    1.630150   -0.166509
     53          6           0        7.740992    0.688437   -0.261313
     54          6           0        8.932080    1.020980   -0.938891
     55          6           0       10.030031    0.022605   -1.048764
     56          6           0       10.755949   -0.115623   -2.240096
     57          6           0       11.806136   -1.037515   -2.354460
     58          6           0       12.554440   -1.181348   -3.630868
     59          6           0       13.943170   -1.394772   -3.631612
     60          6           0       14.647373   -1.528080   -4.827380
     61          6           0       13.977879   -1.450196   -6.049950
     62          6           0       12.598043   -1.238695   -6.065226
     63          6           0       11.894355   -1.106288   -4.868966
     64          6           0       12.122302   -1.833147   -1.243955
     65          6           0       11.415499   -1.721560   -0.037943
     66          6           0       11.765455   -2.572901    1.129096
     67          6           0       10.766351   -3.097726    1.965990
     68          6           0       11.094242   -3.895826    3.060927
     69          6           0       12.429793   -4.188288    3.343050
     70          6           0       13.433849   -3.674606    2.520326
     71          6           0       13.104930   -2.875570    1.426371
     72          6           0       10.372298   -0.787711    0.043150
     73          6           0        9.082623    2.298325   -1.512689
     74          6           0        8.072886    3.270734   -1.437531
     75          6           0        8.091486    4.631735   -1.978613
     76          6           0        9.186030    5.163918   -2.682198
     77          6           0        9.154008    6.461482   -3.177222
     78          6           0        8.024423    7.267554   -2.983778
     79          6           0        6.931985    6.762935   -2.292245
     80          6           0        6.949272    5.454880   -1.785894
     81          6           0        5.729398    5.003421   -1.057335
     82          8           0        4.736711    5.699321   -0.885002
     83          7           0        5.803819    3.695920   -0.573263
     84          6           0        6.919086    2.888593   -0.758411
     85          6           0        1.131069   -0.003165    2.090300
     86          6           0       -1.634830   -0.891479    1.231700
     87          6           0       -2.999642   -0.991519    0.982407
     88          6           0       -5.984315   -0.569078    0.763459
     89          6           0       -7.355155   -0.668184    0.498317
     90          6           0       -7.879266    0.268530   -0.531377
     91          8           0       -7.181197    1.045695   -1.172410
     92          7           0       -9.260211    0.215626   -0.693674
     93          6           0      -10.070311   -0.698860   -0.023950
     94          1           0      -13.562272    4.473143   -2.303299
     95          1           0      -14.660887    4.479206   -3.696969
     96          1           0      -14.729132    3.153929   -2.522905
     97          1           0      -14.337780    2.777301   -5.598173
     98          1           0      -14.405852    1.452451   -4.423644
     99          1           0      -13.015802    1.596120   -5.517795
    100          1           0      -13.247408    5.197843   -5.839927
    101          1           0      -11.330744    6.520312   -6.698390
    102          1           0       -9.030502    6.065048   -5.900186
    103          1           0       -8.609669    4.276686   -4.227779
    104          1           0       -8.674274    2.333611   -2.503047
    105          1           0      -13.471316    0.867006   -2.003445
    106          1           0      -13.425106   -1.252942   -0.123393
    107          1           0      -12.695623   -3.018816    1.443764
    108          1           0      -11.371756   -2.887621    3.994105
    109          1           0      -11.031711   -4.892993    5.411207
    110          1           0       -9.814337   -6.865662    4.507993
    111          1           0       -8.951207   -6.817429    2.174536
    112          1           0       -9.288544   -4.808509    0.766344
    113          1           0       -8.130246   -2.994989    2.853393
    114          1           0       -5.753409   -2.814631    3.281425
    115          1           0       -4.080981   -1.496218    4.159500
    116          1           0       -1.675308   -1.320375    4.596268
    117          1           0        0.356307   -2.482066    4.275763
    118          1           0        4.745247   -2.902369    3.875116
    119          1           0        5.806759   -4.345933    5.574839
    120          1           0        4.625059   -4.844561    7.707611
    121          1           0        2.375692   -3.863550    8.122808
    122          1           0        1.333059   -2.390553    6.437365
    123          1           0        4.149538   -0.630744    3.509137
    124          1           0        1.848477    2.640449    1.647734
    125          1           0        3.181603    4.308070    0.372150
    126          1           0        5.014479   -0.255754    1.315876
    127          1           0        7.622533   -0.306243    0.157908
    128          1           0       10.498782    0.504398   -3.093702
    129          1           0       14.477388   -1.431603   -2.686187
    130          1           0       15.722645   -1.684814   -4.803597
    131          1           0       14.526339   -1.554045   -6.982234
    132          1           0       12.065019   -1.185868   -7.010953
    133          1           0       10.816737   -0.969677   -4.892005
    134          1           0       12.897216   -2.587992   -1.336338
    135          1           0        9.722553   -2.898262    1.739688
    136          1           0       10.303855   -4.297393    3.689717
    137          1           0       12.685773   -4.810695    4.196159
    138          1           0       14.477505   -3.888735    2.735326
    139          1           0       13.895412   -2.459183    0.808158
    140          1           0        9.853076   -0.652891    0.987308
    141          1           0       10.021473    2.533607   -2.002973
    142          1           0       10.069886    4.554319   -2.841861
    143          1           0       10.012946    6.850316   -3.717489
    144          1           0        8.003422    8.281482   -3.372573
    145          1           0        6.041902    7.360119   -2.124968
    146          1           0        0.668085    0.638926    1.347210
    147          1           0       -0.952943   -0.745516    0.398769
    148          1           0       -3.359180   -0.919698   -0.040070
    149          1           0       -5.420685    0.156700    0.187433
 ---------------------------------------------------------------------

 SCF Done:  E(RB3LYP) =  -3685.37672173     A.U. after   16 cycles

 Excitation energies and oscillator strengths:

 Excited state symmetry could not be determined.
 Excited State   1:      Triplet-?Sym    2.4862 eV  498.70 nm  f=0.0000  <S**2>=2.000
     309 -> 311        0.18410
     310 -> 311        0.55835
     310 -> 312        0.10080
     310 -> 315       -0.18857
 This state for optimization and/or second-order correction.
 Total Energy, E(TD-HF/TD-DFT) =  -3685.28535663
 Copying the excited state density for this state as the 1-particle RhoCI density.

 Excited state symmetry could not be determined.
 Excited State   2:      Triplet-?Sym    2.7267 eV  454.70 nm  f=0.0000  <S**2>=2.000
     303 -> 312       -0.10739
     304 -> 312       -0.20158
     307 -> 312        0.15202
     308 -> 312        0.27782
     309 -> 311        0.38648
     310 -> 311       -0.13027
     310 -> 315        0.12018

 Excited state symmetry could not be determined.
 Excited State   3:      Singlet-?Sym    3.2949 eV  376.29 nm  f=0.3267  <S**2>=0.000
     308 -> 311       -0.10379
     309 -> 311       -0.31684
     310 -> 311        0.59871

 Excited state symmetry could not be determined.
 Excited State   4:      Singlet-?Sym    3.4451 eV  359.88 nm  f=0.9072  <S**2>=0.000
     308 -> 311        0.19814
     308 -> 312       -0.13259
     309 -> 311        0.53262
     309 -> 312        0.15636
     310 -> 311        0.32453

 Alpha  occ. eigenvalues --  -19.12729 -19.12281 -14.40102 -14.39659 -10.30353
 Alpha  occ. eigenvalues --  -10.29838 -10.23511 -10.23406 -10.23237 -10.23094
 Alpha  occ. eigenvalues --  -10.22113 -10.21774 -10.21449 -10.21345 -10.21173
 Alpha  occ. eigenvalues --  -10.21086 -10.20912 -10.20649 -10.20639 -10.20629
 Alpha  occ. eigenvalues --  -10.20615 -10.20523 -10.20523 -10.20517 -10.20516
 Alpha  occ. eigenvalues --  -10.20465 -10.20429 -10.20390 -10.20384 -10.20367
 Alpha  occ. eigenvalues --  -10.20277 -10.20211 -10.20196 -10.20191 -10.20188
 Alpha  occ. eigenvalues --  -10.20182 -10.20165 -10.20161 -10.20119 -10.20111
 Alpha  occ. eigenvalues --  -10.20110 -10.20052 -10.20030 -10.19933 -10.19873
 Alpha  occ. eigenvalues --  -10.19840 -10.19677 -10.19630 -10.19575 -10.19554
 Alpha  occ. eigenvalues --  -10.19489 -10.19480 -10.19462 -10.19443 -10.19420
 Alpha  occ. eigenvalues --  -10.19415 -10.19379 -10.19348 -10.19335 -10.19309
 Alpha  occ. eigenvalues --  -10.19306 -10.19285 -10.19282 -10.19275 -10.19267
 Alpha  occ. eigenvalues --  -10.19243 -10.19228 -10.19222 -10.19215 -10.19208
 Alpha  occ. eigenvalues --  -10.19202 -10.19201 -10.19200 -10.19192 -10.19177
 Alpha  occ. eigenvalues --  -10.19163 -10.19121 -10.19104 -10.19104 -10.19077
 Alpha  occ. eigenvalues --  -10.19024 -10.19009 -10.19004 -10.18919 -10.18916
 Alpha  occ. eigenvalues --  -10.18843 -10.18681 -10.18639 -10.18596 -10.18590
 Alpha  occ. eigenvalues --  -10.18535 -10.17929 -10.17928  -1.05179  -1.04773
 Alpha  occ. eigenvalues --   -0.99083  -0.98561  -0.88672  -0.88314  -0.88007
 Alpha  occ. eigenvalues --   -0.87810  -0.87546  -0.86907  -0.86392  -0.85881
 Alpha  occ. eigenvalues --   -0.85842  -0.85793  -0.85093  -0.84589  -0.84345
 Alpha  occ. eigenvalues --   -0.84007  -0.81766  -0.81001  -0.80050  -0.79560
 Alpha  occ. eigenvalues --   -0.79130  -0.78654  -0.78214  -0.77679  -0.77139
 Alpha  occ. eigenvalues --   -0.76916  -0.76417  -0.75962  -0.75170  -0.74926
 Alpha  occ. eigenvalues --   -0.74778  -0.74711  -0.74665  -0.74578  -0.74322
 Alpha  occ. eigenvalues --   -0.74117  -0.73918  -0.73341  -0.73263  -0.72955
 Alpha  occ. eigenvalues --   -0.72252  -0.71851  -0.71663  -0.70954  -0.70337
 Alpha  occ. eigenvalues --   -0.68614  -0.67208  -0.67052  -0.65490  -0.65241
 Alpha  occ. eigenvalues --   -0.64242  -0.63730  -0.63236  -0.63129  -0.62923
 Alpha  occ. eigenvalues --   -0.62612  -0.62031  -0.61783  -0.61516  -0.60913
 Alpha  occ. eigenvalues --   -0.60725  -0.60610  -0.60523  -0.60338  -0.60151
 Alpha  occ. eigenvalues --   -0.59696  -0.58597  -0.58327  -0.58087  -0.57865
 Alpha  occ. eigenvalues --   -0.57288  -0.56936  -0.56727  -0.56495  -0.55700
 Alpha  occ. eigenvalues --   -0.55416  -0.54860  -0.54465  -0.53928  -0.53495
 Alpha  occ. eigenvalues --   -0.52950  -0.52330  -0.51997  -0.51143  -0.50820
 Alpha  occ. eigenvalues --   -0.50651  -0.50264  -0.49892  -0.49579  -0.49110
 Alpha  occ. eigenvalues --   -0.48826  -0.48353  -0.47907  -0.47789  -0.47470
 Alpha  occ. eigenvalues --   -0.47438  -0.47009  -0.46892  -0.46706  -0.46588
 Alpha  occ. eigenvalues --   -0.46552  -0.46080  -0.45958  -0.45756  -0.45644
 Alpha  occ. eigenvalues --   -0.45499  -0.45415  -0.45364  -0.45007  -0.44965
 Alpha  occ. eigenvalues --   -0.44908  -0.44660  -0.44277  -0.43804  -0.43773
 Alpha  occ. eigenvalues --   -0.43700  -0.43613  -0.43369  -0.43232  -0.43037
 Alpha  occ. eigenvalues --   -0.42984  -0.42886  -0.42855  -0.42664  -0.42644
 Alpha  occ. eigenvalues --   -0.42556  -0.42485  -0.42361  -0.42326  -0.42287
 Alpha  occ. eigenvalues --   -0.42199  -0.42064  -0.41983  -0.41883  -0.41824
 Alpha  occ. eigenvalues --   -0.41595  -0.40924  -0.40412  -0.39850  -0.39586
 Alpha  occ. eigenvalues --   -0.39459  -0.39184  -0.39013  -0.38931  -0.38792
 Alpha  occ. eigenvalues --   -0.38681  -0.38178  -0.38044  -0.38014  -0.37734
 Alpha  occ. eigenvalues --   -0.37637  -0.37130  -0.37075  -0.36964  -0.36929
 Alpha  occ. eigenvalues --   -0.36716  -0.36668  -0.36574  -0.36394  -0.36280
 Alpha  occ. eigenvalues --   -0.36063  -0.35793  -0.35497  -0.35392  -0.35345
 Alpha  occ. eigenvalues --   -0.35152  -0.34909  -0.34833  -0.34687  -0.34612
 Alpha  occ. eigenvalues --   -0.34489  -0.34467  -0.34392  -0.34297  -0.34156
 Alpha  occ. eigenvalues --   -0.33849  -0.33699  -0.33499  -0.33376  -0.33184
 Alpha  occ. eigenvalues --   -0.33094  -0.32579  -0.32016  -0.31974  -0.31666
 Alpha  occ. eigenvalues --   -0.30744  -0.30473  -0.28750  -0.28636  -0.28204
 Alpha  occ. eigenvalues --   -0.27587  -0.27027  -0.26548  -0.26327  -0.26149
 Alpha  occ. eigenvalues --   -0.26063  -0.26021  -0.25922  -0.25451  -0.25300
 Alpha  occ. eigenvalues --   -0.25277  -0.25254  -0.25155  -0.24881  -0.24397
 Alpha  occ. eigenvalues --   -0.24101  -0.23753  -0.23394  -0.22876  -0.22373
 Alpha  occ. eigenvalues --   -0.22068  -0.21993  -0.21035  -0.20794  -0.20169
 Alpha virt. eigenvalues --   -0.06565  -0.06444  -0.04411  -0.04195  -0.03813
 Alpha virt. eigenvalues --   -0.03553  -0.03519  -0.02920  -0.02196  -0.01725
 Alpha virt. eigenvalues --   -0.01180  -0.00818  -0.00507  -0.00412  -0.00350

 Mulliken charges:
               1
     1  C   -0.436816
     2  C   -0.064135
     3  C   -0.436805
     4  C    0.102812
     5  C   -0.203488
     6  C   -0.131221
     7  C   -0.136936
     8  C   -0.190369
     9  C    0.074462
    10  C    0.080301
    11  C   -0.237888
    12  C    0.318476
    13  C    0.053017
    14  C   -0.276982
    15  C    0.092353
    16  C    0.114949
    17  C   -0.221893
    18  C   -0.170077
    19  C   -0.020536
    20  C    0.014211
    21  C   -0.158639
    22  C   -0.132254
    23  C   -0.127176
    24  C   -0.131695
    25  C   -0.147145
    26  C    0.089855
    27  C    0.119757
    28  C   -0.204755
    29  C   -0.180791
    30  C    0.104495
    31  C    0.098944
    32  C   -0.183034
    33  C   -0.179968
    34  C    0.094273
    35  C    0.095147
    36  C   -0.235172
    37  C    0.093822
    38  C    0.087935
    39  C   -0.170539
    40  C   -0.133404
    41  C   -0.125915
    42  C   -0.134015
    43  C   -0.171219
    44  C   -0.233415
    45  C    0.093159
    46  C    0.087014
    47  C   -0.195473
    48  C   -0.160997
    49  C    0.323377
    50  C    0.043568
    51  C   -0.255713
    52  C    0.130765
    53  C   -0.277054
    54  C    0.097748
    55  C    0.090020
    56  C   -0.231722
    57  C    0.093257
    58  C    0.085514
    59  C   -0.171646
    60  C   -0.134229
    61  C   -0.126064
    62  C   -0.134727
    63  C   -0.173314
    64  C   -0.234481
    65  C    0.093830
    66  C    0.088163
    67  C   -0.170595
    68  C   -0.133352
    69  C   -0.125733
    70  C   -0.133941
    71  C   -0.171280
    72  C   -0.234399
    73  C   -0.294064
    74  C    0.140562
    75  C    0.117144
    76  C   -0.190102
    77  C   -0.128021
    78  C   -0.128903
    79  C   -0.180344
    80  C   -0.007591
    81  C    0.595289
    82  O   -0.511261
    83  N   -0.749043
    84  C    0.207871
    85  C   -0.233540
    86  C   -0.181929
    87  C   -0.179736
    88  C   -0.250931
    89  C   -0.010303
    90  C    0.603494
    91  O   -0.516319
    92  N   -0.758491
    93  C    0.208507
    94  H    0.158739
    95  H    0.144327
    96  H    0.142131
    97  H    0.144316
    98  H    0.142152
    99  H    0.158677
   100  H    0.123613
   101  H    0.127037
   102  H    0.129555
   103  H    0.138543
   104  H    0.182406
   105  H    0.128878
   106  H    0.137930
   107  H    0.136597
   108  H    0.137449
   109  H    0.134143
   110  H    0.133035
   111  H    0.135542
   112  H    0.140936
   113  H    0.166378
   114  H    0.138318
   115  H    0.133855
   116  H    0.132766
   117  H    0.137674
   118  H    0.128624
   119  H    0.129054
   120  H    0.130326
   121  H    0.131260
   122  H    0.131282
   123  H    0.136924
   124  H    0.142264
   125  H    0.183321
   126  H    0.136046
   127  H    0.140398
   128  H    0.133571
   129  H    0.130959
   130  H    0.131485
   131  H    0.131035
   132  H    0.132352
   133  H    0.135518
   134  H    0.139277
   135  H    0.128894
   136  H    0.130017
   137  H    0.131047
   138  H    0.131778
   139  H    0.131234
   140  H    0.137727
   141  H    0.143981
   142  H    0.142140
   143  H    0.140264
   144  H    0.140463
   145  H    0.170125
   146  H    0.138112
   147  H    0.139175
   148  H    0.142970
   149  H    0.170863
 Sum of Mulliken charges =  -0.00000

 Dipole moment (field-independent basis, Debye):
    X=              0.9406    Y=             -3.3732    Z=              0.8827  Tot=              3.6114
 Quadrupole moment (field-independent basis, Debye-Ang):
   XX=           -405.2747   YY=           -510.8519   ZZ=           -489.8774
   XY=             11.2847   XZ=            -23.1546   YZ=            -34.7293

 Normal termination of Gaussian 16 at Sat Nov  5 11:57:12 2022.
