 Gaussian 16, Revision B.01,
 Gaussian 16:  ES64L-G16RevB.01 20-Dec-2017

 -------------------------------------------------------------------
 #p b3lyp/6-31g(d) 6D 10F nosymm GFInput td=(50-50,nstate=2) SCF=XQC
 -------------------------------------------------------------------

 ------------------------------
 Gaussian input prepared by ASE
 ------------------------------
 Symbolic Z-matrix:
 Charge =  0 Multiplicity = 1

                          Input orientation:
 ---------------------------------------------------------------------
 Center     Atomic      Atomic             Coordinates (Angstroms)
 Number     Number       Type             X           Y           Z
 ---------------------------------------------------------------------
      1          6           0       -3.638508   -3.925007    2.158511
      2          6           0       -4.080119   -3.322390    0.810442
      3          6           0       -3.671569   -4.254304   -0.363773
      4          6           0       -5.604148   -3.196013    0.764565
      5          6           0       -6.563688   -4.175818    0.994689
      6          6           0       -7.917128   -3.852684    0.842260
      7          6           0       -8.301063   -2.564943    0.453323
      8          6           0       -7.343773   -1.576751    0.216364
      9          6           0       -5.993735   -1.903928    0.380957
     10          6           0       -4.785091   -1.101679    0.230966
     11          6           0       -3.626760   -1.859971    0.540471
     12          6           0       -2.364349   -1.234651    0.483239
     13          6           0       -2.254065    0.116097    0.030518
     14          6           0       -3.408801    0.888703   -0.216375
     15          6           0       -4.645663    0.232057   -0.115961
     16          8           0       -5.702133    1.069260   -0.379438
     17          6           0       -5.158550    2.309500   -0.616086
     18          6           0       -5.916309    3.449273   -0.906444
     19          6           0       -7.396381    3.439839   -1.023475
     20          6           0       -8.026306    4.185255   -2.034107
     21          6           0       -9.415904    4.213896   -2.143110
     22          6           0      -10.205405    3.496224   -1.243340
     23          6           0       -9.592369    2.749922   -0.235068
     24          6           0       -8.202805    2.719634   -0.125400
     25          6           0       -5.171385    4.626234   -1.081755
     26          6           0       -3.778667    4.648389   -0.949210
     27          6           0       -3.058421    3.490877   -0.664106
     28          6           0       -3.750282    2.279069   -0.520267
     29          6           0       -0.834338    0.461018   -0.104790
     30          6           0       -0.182850    1.546631   -0.701394
     31          6           0        1.211562    1.592972   -0.711105
     32          6           0        1.981874    0.568807   -0.138116
     33          6           0        3.477481    0.638350   -0.145125
     34          6           0        4.195911    0.312526   -1.317228
     35          6           0        3.533634   -0.103914   -2.518125
     36          6           0        4.237074   -0.418321   -3.650113
     37          6           0        5.657224   -0.338950   -3.657940
     38          6           0        6.333130    0.047077   -2.531559
     39          6           0        5.641014    0.382545   -1.322502
     40          6           0        6.334333    0.767775   -0.154039
     41          6           0        7.831744    0.856924   -0.164998
     42          6           0        8.442712    2.049035   -0.509765
     43          6           0        9.851457    2.178233   -0.533562
     44          6           0       10.649890    1.106750   -0.209736
     45          6           0       10.073798   -0.140050    0.151766
     46          6           0       10.879046   -1.261164    0.490471
     47          6           0       10.308855   -2.463794    0.839067
     48          6           0        8.899912   -2.598420    0.864247
     49          6           0        8.090205   -1.532443    0.541735
     50          6           0        8.644959   -0.274580    0.176697
     51          6           0        5.616526    1.085836    1.019823
     52          6           0        6.283037    1.476276    2.226771
     53          6           0        5.582011    1.795046    3.358842
     54          6           0        4.160283    1.750723    3.358166
     55          6           0        3.481151    1.380180    2.228323
     56          6           0        4.171098    1.025365    1.023249
     57          6           0        1.319241   -0.537812    0.421041
     58          6           0       -0.068576   -0.594979    0.416168
     59          6           0       -0.960945   -1.718586    0.928066
     60          6           0       -0.477972   -3.068004    0.363015
     61          6           0       -0.868518   -1.724052    2.479929
     62          1           0       -4.156018   -4.875916    2.327535
     63          1           0       -2.566702   -4.134038    2.184817
     64          1           0       -3.883928   -3.257465    2.990813
     65          1           0       -4.118156   -5.245364   -0.223329
     66          1           0       -4.034456   -3.853665   -1.315557
     67          1           0       -2.590388   -4.378079   -0.435722
     68          1           0       -6.277711   -5.183097    1.288481
     69          1           0       -8.674779   -4.609970    1.025548
     70          1           0       -9.355519   -2.330687    0.333299
     71          1           0       -7.639617   -0.579378   -0.091441
     72          1           0       -7.418483    4.728806   -2.752181
     73          1           0       -9.881152    4.791971   -2.937263
     74          1           0      -11.288583    3.516487   -1.328170
     75          1           0      -10.198033    2.192641    0.474876
     76          1           0       -7.737917    2.145798    0.669058
     77          1           0       -5.703059    5.550877   -1.285898
     78          1           0       -3.250340    5.591434   -1.056224
     79          1           0       -1.987927    3.548511   -0.522091
     80          1           0       -0.739621    2.329988   -1.198012
     81          1           0        1.715841    2.435254   -1.176791
     82          1           0        2.451391   -0.169884   -2.516481
     83          1           0        3.710245   -0.732288   -4.547295
     84          1           0        6.205898   -0.589496   -4.561913
     85          1           0        7.416000    0.103585   -2.540366
     86          1           0        7.823656    2.904032   -0.767802
     87          1           0       10.295735    3.130702   -0.809645
     88          1           0       11.733458    1.198131   -0.225598
     89          1           0       11.960716   -1.149327    0.468637
     90          1           0       10.937033   -3.312602    1.095675
     91          1           0        8.455772   -3.551031    1.140330
     92          1           0        7.010758   -1.641755    0.562657
     93          1           0        7.366596    1.518336    2.228934
     94          1           0        6.111498    2.087762    4.261585
     95          1           0        3.612786    2.015762    4.258768
     96          1           0        2.397218    1.353051    2.231489
     97          1           0        1.910160   -1.349185    0.838552
     98          1           0       -1.019682   -3.910624    0.797194
     99          1           0       -0.585536   -3.105756   -0.725657
    100          1           0        0.581402   -3.213787    0.600394
    101          1           0       -1.142798   -0.744970    2.885307
    102          1           0        0.158703   -1.945273    2.792425
    103          1           0       -1.527047   -2.472589    2.924548
 ---------------------------------------------------------------------

 SCF Done:  E(RB3LYP) =  -2386.99507627     A.U. after   16 cycles

 Excitation energies and oscillator strengths:

 Excited state symmetry could not be determined.
 Excited State   1:      Triplet-?Sym    1.7283 eV  717.36 nm  f=0.0000  <S**2>=2.000
     204 ->206         0.19331
     205 ->206         0.64936
     205 ->207        -0.16622
     205 <-206         0.12673
 This state for optimization and/or second-order correction.
 Total Energy, E(TD-HF/TD-DFT) =  -2386.93156102
 Copying the excited state density for this state as the 1-particle RhoCI density.

 Excited state symmetry could not be determined.
 Excited State   2:      Triplet-?Sym    2.4108 eV  514.30 nm  f=0.0000  <S**2>=2.000
     204 ->206         0.22330
     204 ->207         0.55198
     204 ->209        -0.13359
     205 ->207        -0.24683

 Excited state symmetry could not be determined.
 Excited State   3:      Singlet-?Sym    3.0715 eV  403.66 nm  f=0.4486  <S**2>=0.000
     205 ->206         0.68457

 Excited state symmetry could not be determined.
 Excited State   4:      Singlet-?Sym    3.2416 eV  382.47 nm  f=0.0019  <S**2>=0.000
     204 ->206         0.52800
     205 ->207         0.46201

 Alpha  occ. eigenvalues --  -19.21008 -10.24898 -10.24515 -10.21324 -10.21223
 Alpha  occ. eigenvalues --  -10.20522 -10.20408 -10.20367 -10.20211 -10.20110
 Alpha  occ. eigenvalues --  -10.20081 -10.19875 -10.19868 -10.19843 -10.19841
 Alpha  occ. eigenvalues --  -10.19802 -10.19787 -10.19761 -10.19742 -10.19727
 Alpha  occ. eigenvalues --  -10.19717 -10.19701 -10.19579 -10.19546 -10.19543
 Alpha  occ. eigenvalues --  -10.19385 -10.19112 -10.19105 -10.19063 -10.19042
 Alpha  occ. eigenvalues --  -10.19033 -10.19022 -10.19007 -10.19005 -10.18984
 Alpha  occ. eigenvalues --  -10.18980 -10.18978 -10.18939 -10.18934 -10.18911
 Alpha  occ. eigenvalues --  -10.18883 -10.18879 -10.18773 -10.18771 -10.18717
 Alpha  occ. eigenvalues --  -10.18690 -10.18679 -10.18674 -10.18652 -10.18643
 Alpha  occ. eigenvalues --  -10.18629 -10.18556 -10.18463 -10.18427 -10.18406
 Alpha  occ. eigenvalues --  -10.18400 -10.18388 -10.18202 -10.18142 -10.17991
 Alpha  occ. eigenvalues --  -10.17873  -1.10764  -0.89559  -0.88517  -0.87787
 Alpha  occ. eigenvalues --   -0.86876  -0.86696  -0.84934  -0.84311  -0.84208
 Alpha  occ. eigenvalues --   -0.82407  -0.81880  -0.81541  -0.79939  -0.79418
 Alpha  occ. eigenvalues --   -0.78694  -0.77691  -0.76395  -0.75614  -0.74601
 Alpha  occ. eigenvalues --   -0.74537  -0.74221  -0.73798  -0.73699  -0.73357
 Alpha  occ. eigenvalues --   -0.73304  -0.73032  -0.71965  -0.71707  -0.70663
 Alpha  occ. eigenvalues --   -0.69324  -0.68654  -0.68614  -0.65469  -0.64694
 Alpha  occ. eigenvalues --   -0.64270  -0.62991  -0.62328  -0.62257  -0.61474
 Alpha  occ. eigenvalues --   -0.61237  -0.61018  -0.60501  -0.59735  -0.59566
 Alpha  occ. eigenvalues --   -0.58786  -0.58447  -0.57578  -0.56711  -0.55701
 Alpha  occ. eigenvalues --   -0.55530  -0.54587  -0.53349  -0.52199  -0.52017
 Alpha  occ. eigenvalues --   -0.51378  -0.51103  -0.50980  -0.50823  -0.50472
 Alpha  occ. eigenvalues --   -0.49186  -0.48874  -0.48442  -0.47304  -0.46632
 Alpha  occ. eigenvalues --   -0.46433  -0.46173  -0.46012  -0.45806  -0.45677
 Alpha  occ. eigenvalues --   -0.45147  -0.45004  -0.44475  -0.44344  -0.44178
 Alpha  occ. eigenvalues --   -0.43795  -0.43542  -0.43478  -0.43455  -0.43096
 Alpha  occ. eigenvalues --   -0.43012  -0.42553  -0.42414  -0.42235  -0.42131
 Alpha  occ. eigenvalues --   -0.41998  -0.41648  -0.41491  -0.41260  -0.40944
 Alpha  occ. eigenvalues --   -0.40383  -0.40260  -0.40217  -0.40149  -0.39720
 Alpha  occ. eigenvalues --   -0.38715  -0.38573  -0.38315  -0.38185  -0.37816
 Alpha  occ. eigenvalues --   -0.37380  -0.37352  -0.36987  -0.36929  -0.36813
 Alpha  occ. eigenvalues --   -0.36735  -0.36418  -0.36131  -0.35583  -0.35457
 Alpha  occ. eigenvalues --   -0.35150  -0.34728  -0.34568  -0.34365  -0.34132
 Alpha  occ. eigenvalues --   -0.34008  -0.33966  -0.33770  -0.33733  -0.33564
 Alpha  occ. eigenvalues --   -0.33191  -0.33043  -0.32213  -0.31889  -0.31638
 Alpha  occ. eigenvalues --   -0.31294  -0.30708  -0.29676  -0.29525  -0.28669
 Alpha  occ. eigenvalues --   -0.28012  -0.27898  -0.25517  -0.25335  -0.24891
 Alpha  occ. eigenvalues --   -0.24626  -0.24465  -0.24195  -0.24089  -0.23576
 Alpha  occ. eigenvalues --   -0.23077  -0.21525  -0.21258  -0.19472  -0.18771
 Alpha virt. eigenvalues --   -0.06089  -0.05318  -0.03791  -0.02959  -0.01555
 Alpha virt. eigenvalues --   -0.00969  -0.00498   0.00052   0.00105   0.00367
 Alpha virt. eigenvalues --    0.00612   0.01434   0.01704   0.03236   0.03314

 Mulliken charges:
               1
     1  C   -0.459096
     2  C   -0.069493
     3  C   -0.442412
     4  C    0.098969
     5  C   -0.204637
     6  C   -0.130610
     7  C   -0.141681
     8  C   -0.191835
     9  C    0.108964
    10  C   -0.008150
    11  C    0.025833
    12  C    0.019249
    13  C   -0.050255
    14  C    0.063161
    15  C    0.228517
    16  O   -0.566547
    17  C    0.252234
    18  C    0.021194
    19  C    0.098510
    20  C   -0.169423
    21  C   -0.134397
    22  C   -0.124849
    23  C   -0.139643
    24  C   -0.159045
    25  C   -0.188906
    26  C   -0.147248
    27  C   -0.196544
    28  C    0.081890
    29  C    0.105815
    30  C   -0.197758
    31  C   -0.169922
    32  C    0.018055
    33  C   -0.079892
    34  C    0.104044
    35  C   -0.199542
    36  C   -0.134869
    37  C   -0.134855
    38  C   -0.194019
    39  C    0.109070
    40  C   -0.098012
    41  C   -0.054195
    42  C   -0.163081
    43  C   -0.138780
    44  C   -0.185899
    45  C    0.128129
    46  C   -0.194795
    47  C   -0.131883
    48  C   -0.134275
    49  C   -0.190344
    50  C    0.116472
    51  C    0.109000
    52  C   -0.193892
    53  C   -0.135027
    54  C   -0.134759
    55  C   -0.199114
    56  C    0.103639
    57  C   -0.236344
    58  C    0.105488
    59  C   -0.062589
    60  C   -0.462273
    61  C   -0.443238
    62  H    0.146822
    63  H    0.154596
    64  H    0.159098
    65  H    0.144335
    66  H    0.158480
    67  H    0.153498
    68  H    0.123613
    69  H    0.126156
    70  H    0.127846
    71  H    0.156454
    72  H    0.133372
    73  H    0.130701
    74  H    0.129806
    75  H    0.131230
    76  H    0.146004
    77  H    0.134828
    78  H    0.131551
    79  H    0.141973
    80  H    0.139323
    81  H    0.136988
    82  H    0.146208
    83  H    0.128993
    84  H    0.129382
    85  H    0.146747
    86  H    0.138286
    87  H    0.131934
    88  H    0.129485
    89  H    0.129181
    90  H    0.129840
    91  H    0.130399
    92  H    0.145568
    93  H    0.146788
    94  H    0.129320
    95  H    0.128694
    96  H    0.145305
    97  H    0.133409
    98  H    0.155008
    99  H    0.159121
   100  H    0.148769
   101  H    0.156089
   102  H    0.145937
   103  H    0.154754
 Sum of Mulliken charges =  -0.00000

 Dipole moment (field-independent basis, Debye):
    X=              0.4386    Y=             -0.7371    Z=              0.3655  Tot=              0.9323
 Quadrupole moment (field-independent basis, Debye-Ang):
   XX=           -316.7525   YY=           -325.7402   ZZ=           -342.8097
   XY=              0.3375   XZ=              0.5320   YZ=             -9.1136

 Normal termination of Gaussian 16 at Sat Nov  5 11:35:01 2022.
