 Gaussian 16, Revision B.01,
 Gaussian 16:  ES64L-G16RevB.01 20-Dec-2017

 -------------------------------------------------------------------
 #p b3lyp/6-31g(d) 6D 10F nosymm GFInput td=(50-50,nstate=2) SCF=XQC
 -------------------------------------------------------------------

 ------------------------------
 Gaussian input prepared by ASE
 ------------------------------
 Symbolic Z-matrix:
 Charge =  0 Multiplicity = 1

                          Input orientation:
 ---------------------------------------------------------------------
 Center     Atomic      Atomic             Coordinates (Angstroms)
 Number     Number       Type             X           Y           Z
 ---------------------------------------------------------------------
      1          6           0        4.729291   -4.324949   -0.128587
      2          6           0        3.346948   -4.178558   -0.096999
      3          6           0        2.808358   -2.881251   -0.048373
      4          6           0        1.340251   -2.644049   -0.017197
      5          6           0        0.435877   -3.634598    0.403606
      6          6           0       -0.932896   -3.396718    0.421371
      7          6           0       -1.446894   -2.152492    0.021088
      8          6           0       -2.901347   -1.954305    0.001170
      9          7           0       -3.751885   -2.944806   -0.131304
     10          6           0       -5.004637   -2.359277   -0.236829
     11          6           0       -6.262361   -2.951961   -0.387922
     12          6           0       -7.355482   -2.100348   -0.528055
     13          6           0       -7.196290   -0.707196   -0.608567
     14          6           0       -5.938645   -0.086968   -0.508599
     15          6           0       -4.880344   -0.957586   -0.225011
     16          7           0       -3.520549   -0.684300   -0.007360
     17          6           0       -3.174236    0.397631    0.877457
     18          6           0       -2.371851    0.137394    1.996648
     19          6           0       -2.050811    1.146323    2.899468
     20          6           0       -2.568056    2.426517    2.716027
     21          6           0       -3.394978    2.674756    1.625861
     22          6           0       -3.711593    1.685734    0.674745
     23          6           0       -4.590251    2.082301   -0.464138
     24          6           0       -4.361599    3.343592   -1.043764
     25          6           0       -5.197170    3.871451   -2.022620
     26          6           0       -6.298279    3.131150   -2.450026
     27          6           0       -6.523825    1.868197   -1.913496
     28          6           0       -5.689760    1.314739   -0.924351
     29          6           0       -0.548080   -1.158881   -0.402729
     30          6           0        0.819647   -1.401515   -0.415050
     31          7           0        3.594594   -1.792602   -0.039014
     32          6           0        4.931619   -1.927319   -0.059398
     33          6           0        5.732580   -0.673104   -0.043627
     34          6           0        7.106168   -0.673701    0.337926
     35          6           0        7.843769    0.485612    0.340175
     36          6           0        7.264434    1.725428   -0.039898
     37          6           0        7.996960    2.941456   -0.054551
     38          6           0        7.393252    4.122159   -0.426165
     39          6           0        6.026312    4.140168   -0.799944
     40          6           0        5.289498    2.977668   -0.794879
     41          6           0        5.882108    1.741436   -0.416429
     42          6           0        5.148422    0.529694   -0.402929
     43          6           0        5.538924   -3.193919   -0.107950
     44          1           0        5.173935   -5.315059   -0.184429
     45          1           0        2.702005   -5.048876   -0.140251
     46          1           0        0.801763   -4.596896    0.748316
     47          1           0       -1.624035   -4.167479    0.745365
     48          1           0       -6.368559   -4.031935   -0.397549
     49          1           0       -8.353722   -2.518869   -0.621050
     50          1           0       -8.073939   -0.091867   -0.781110
     51          1           0       -1.999888   -0.865126    2.165340
     52          1           0       -1.420093    0.918374    3.753849
     53          1           0       -2.348972    3.220575    3.423951
     54          1           0       -3.835010    3.659556    1.506490
     55          1           0       -3.496940    3.914741   -0.719651
     56          1           0       -4.982764    4.845980   -2.452358
     57          1           0       -6.961664    3.518936   -3.218232
     58          1           0       -7.345558    1.272478   -2.296725
     59          1           0       -0.925236   -0.198690   -0.739673
     60          1           0        1.508025   -0.631352   -0.743255
     61          1           0        7.576388   -1.597131    0.660989
     62          1           0        8.887657    0.466037    0.644576
     63          1           0        9.045714    2.925151    0.233148
     64          1           0        7.964153    5.046778   -0.434399
     65          1           0        5.561951    5.078533   -1.090935
     66          1           0        4.240340    2.987551   -1.080509
     67          1           0        4.100264    0.539719   -0.683152
     68          1           0        6.616990   -3.294134   -0.160044
 ---------------------------------------------------------------------

 SCF Done:  E(RB3LYP) =  -1703.62631101     A.U. after   15 cycles

 Excitation energies and oscillator strengths:

 Excited state symmetry could not be determined.
 Excited State   1:      Triplet-?Sym    2.5199 eV  492.03 nm  f=0.0000  <S**2>=2.000
     140 ->147         0.15293
     141 ->144        -0.20003
     141 ->145         0.34383
     141 ->147        -0.11395
     142 ->144         0.21300
     142 ->145         0.41536
     143 ->144         0.13705
 This state for optimization and/or second-order correction.
 Total Energy, E(TD-HF/TD-DFT) =  -1703.53370802
 Copying the excited state density for this state as the 1-particle RhoCI density.

 Excited state symmetry could not be determined.
 Excited State   2:      Triplet-?Sym    2.5988 eV  477.08 nm  f=0.0000  <S**2>=2.000
     141 ->144        -0.25682
     141 ->145        -0.22420
     141 ->147         0.12451
     142 ->144         0.35574
     142 ->145        -0.20968
     143 ->144         0.30215
     143 ->146         0.16821

 Excited state symmetry could not be determined.
 Excited State   3:      Singlet-?Sym    3.4415 eV  360.26 nm  f=0.1073  <S**2>=0.000
     141 ->144         0.13102
     142 ->144        -0.30728
     143 ->144         0.60906

 Excited state symmetry could not be determined.
 Excited State   4:      Singlet-?Sym    3.5718 eV  347.12 nm  f=0.5005  <S**2>=0.000
     142 ->144         0.59199
     142 ->145        -0.17219
     143 ->144         0.30023
     143 ->146        -0.12105

 Alpha  occ. eigenvalues --  -14.38940 -14.32774 -14.31935 -10.25797 -10.24453
 Alpha  occ. eigenvalues --  -10.23501 -10.23475 -10.22170 -10.21021 -10.20947
 Alpha  occ. eigenvalues --  -10.20857 -10.20751 -10.20667 -10.20647 -10.20339
 Alpha  occ. eigenvalues --  -10.20222 -10.19954 -10.19948 -10.19859 -10.19772
 Alpha  occ. eigenvalues --  -10.19667 -10.19652 -10.19577 -10.19572 -10.19474
 Alpha  occ. eigenvalues --  -10.19453 -10.19344 -10.19313 -10.19305 -10.19272
 Alpha  occ. eigenvalues --  -10.19264 -10.19219 -10.19211 -10.19145 -10.19142
 Alpha  occ. eigenvalues --  -10.19116 -10.19086 -10.19039 -10.18941 -10.18855
 Alpha  occ. eigenvalues --  -10.18749 -10.18712 -10.18655  -1.01823  -0.94676
 Alpha  occ. eigenvalues --   -0.90582  -0.87258  -0.86963  -0.86317  -0.85165
 Alpha  occ. eigenvalues --   -0.83859  -0.82590  -0.80511  -0.79506  -0.78271
 Alpha  occ. eigenvalues --   -0.77419  -0.77113  -0.76158  -0.75146  -0.74820
 Alpha  occ. eigenvalues --   -0.73468  -0.73044  -0.72023  -0.71478  -0.71197
 Alpha  occ. eigenvalues --   -0.65890  -0.64842  -0.64643  -0.63656  -0.62609
 Alpha  occ. eigenvalues --   -0.61587  -0.61096  -0.60330  -0.59305  -0.59181
 Alpha  occ. eigenvalues --   -0.58819  -0.58546  -0.57783  -0.56735  -0.53532
 Alpha  occ. eigenvalues --   -0.52548  -0.51912  -0.51371  -0.50751  -0.50605
 Alpha  occ. eigenvalues --   -0.49832  -0.49259  -0.48257  -0.47955  -0.47322
 Alpha  occ. eigenvalues --   -0.46927  -0.46286  -0.45617  -0.44789  -0.44718
 Alpha  occ. eigenvalues --   -0.44475  -0.44206  -0.43891  -0.43547  -0.42601
 Alpha  occ. eigenvalues --   -0.42575  -0.42234  -0.42227  -0.41787  -0.41570
 Alpha  occ. eigenvalues --   -0.41444  -0.41286  -0.40507  -0.39660  -0.38998
 Alpha  occ. eigenvalues --   -0.38638  -0.38260  -0.37845  -0.37706  -0.37024
 Alpha  occ. eigenvalues --   -0.36808  -0.36459  -0.36389  -0.35781  -0.35243
 Alpha  occ. eigenvalues --   -0.34458  -0.34382  -0.33955  -0.33928  -0.33526
 Alpha  occ. eigenvalues --   -0.32931  -0.32833  -0.31550  -0.29428  -0.29127
 Alpha  occ. eigenvalues --   -0.27830  -0.27514  -0.27468  -0.26770  -0.25773
 Alpha  occ. eigenvalues --   -0.25446  -0.25024  -0.24239  -0.23711  -0.23304
 Alpha  occ. eigenvalues --   -0.21332  -0.20790  -0.20528
 Alpha virt. eigenvalues --   -0.06131  -0.05148  -0.03974  -0.02644  -0.02335
 Alpha virt. eigenvalues --   -0.01580  -0.00220  -0.00071   0.01314   0.01795
 Alpha virt. eigenvalues --    0.02298   0.03584   0.04055   0.06741   0.08966

 Mulliken charges:
               1
     1  C   -0.105164
     2  C   -0.170809
     3  C    0.256942
     4  C    0.108638
     5  C   -0.189349
     6  C   -0.168425
     7  C    0.103169
     8  C    0.416991
     9  N   -0.556039
    10  C    0.272946
    11  C   -0.186586
    12  C   -0.139792
    13  C   -0.225875
    14  C    0.098559
    15  C    0.204514
    16  N   -0.649384
    17  C    0.210735
    18  C   -0.151948
    19  C   -0.141518
    20  C   -0.124540
    21  C   -0.197390
    22  C    0.067922
    23  C    0.046623
    24  C   -0.190919
    25  C   -0.129133
    26  C   -0.129306
    27  C   -0.181609
    28  C    0.083595
    29  C   -0.172304
    30  C   -0.170510
    31  N   -0.566279
    32  C    0.259175
    33  C    0.098102
    34  C   -0.179367
    35  C   -0.204606
    36  C    0.147810
    37  C   -0.193975
    38  C   -0.133177
    39  C   -0.138872
    40  C   -0.184578
    41  C    0.137559
    42  C   -0.248042
    43  C   -0.172739
    44  H    0.142719
    45  H    0.143773
    46  H    0.133883
    47  H    0.160764
    48  H    0.141009
    49  H    0.128379
    50  H    0.132305
    51  H    0.157376
    52  H    0.140045
    53  H    0.134117
    54  H    0.142070
    55  H    0.137828
    56  H    0.132194
    57  H    0.132942
    58  H    0.137749
    59  H    0.149888
    60  H    0.159005
    61  H    0.129002
    62  H    0.130060
    63  H    0.129781
    64  H    0.130705
    65  H    0.130670
    66  H    0.132743
    67  H    0.157543
    68  H    0.142402
 Sum of Mulliken charges =  -0.00000

 Dipole moment (field-independent basis, Debye):
    X=              1.6989    Y=              1.2172    Z=              0.4770  Tot=              2.1437
 Quadrupole moment (field-independent basis, Debye-Ang):
   XX=           -215.5240   YY=           -216.4528   ZZ=           -243.5050
   XY=            -14.7211   XZ=              7.1013   YZ=             -5.3288

 Normal termination of Gaussian 16 at Sat Nov  5 10:33:04 2022.
