 Gaussian 16, Revision B.01,
 Gaussian 16:  ES64L-G16RevB.01 20-Dec-2017

 -----------------------------
 #p b3lyp/6-31g(d) opt SCF=XQC
 -----------------------------

 ------------------------------
 Gaussian input prepared by ASE
 ------------------------------
 Symbolic Z-matrix:
 Charge =  0 Multiplicity = 1

 SCF Done:  E(RB3LYP) =  -1703.61704081     A.U. after   16 cycles
 SCF Done:  E(RB3LYP) =  -1703.62486447     A.U. after   13 cycles
 SCF Done:  E(RB3LYP) =  -1703.62534753     A.U. after   13 cycles
 SCF Done:  E(RB3LYP) =  -1703.62618557     A.U. after   12 cycles
 SCF Done:  E(RB3LYP) =  -1703.62628804     A.U. after   11 cycles
 SCF Done:  E(RB3LYP) =  -1703.62631096     A.U. after   10 cycles
 SCF Done:  E(RB3LYP) =  -1703.62631556     A.U. after    8 cycles
 SCF Done:  E(RB3LYP) =  -1703.62631641     A.U. after    8 cycles
 SCF Done:  E(RB3LYP) =  -1703.62631647     A.U. after    7 cycles
 SCF Done:  E(RB3LYP) =  -1703.62631648     A.U. after    6 cycles
 Optimization completed.
    -- Stationary point found.

                         Standard orientation:
 ---------------------------------------------------------------------
 Center     Atomic      Atomic             Coordinates (Angstroms)
 Number     Number       Type             X           Y           Z
 ---------------------------------------------------------------------
      1          6           0        4.827717   -4.205199   -0.473965
      2          6           0        3.447493   -4.056021   -0.396325
      3          6           0        2.917785   -2.763390   -0.241523
      4          6           0        1.452338   -2.523267   -0.155610
      5          6           0        0.553305   -3.537765    0.216798
      6          6           0       -0.813180   -3.296399    0.286820
      7          6           0       -1.330053   -2.024780   -0.010411
      8          6           0       -2.783378   -1.819981    0.021423
      9          7           0       -3.642697   -2.795166   -0.159244
     10          6           0       -4.894344   -2.198698   -0.190393
     11          6           0       -6.158899   -2.774159   -0.350770
     12          6           0       -7.250322   -1.910442   -0.401600
     13          6           0       -7.085227   -0.515731   -0.386766
     14          6           0       -5.821897    0.090853   -0.275404
     15          6           0       -4.761734   -0.801920   -0.081985
     16          7           0       -3.395283   -0.550188    0.119373
     17          6           0       -3.020313    0.464489    1.069759
     18          6           0       -2.191167    0.121920    2.146466
     19          6           0       -1.841421    1.062597    3.110258
     20          6           0       -2.355805    2.354632    3.031890
     21          6           0       -3.208808    2.683259    1.983904
     22          6           0       -3.555248    1.765868    0.973259
     23          6           0       -4.460358    2.246121   -0.111402
     24          6           0       -4.239308    3.544649   -0.605434
     25          6           0       -5.096512    4.144273   -1.522291
     26          6           0       -6.212397    3.440672   -1.972747
     27          6           0       -6.431449    2.143551   -1.521886
     28          6           0       -5.575636    1.517665   -0.596554
     29          6           0       -0.436637   -1.006991   -0.385463
     30          6           0        0.928913   -1.253484   -0.450368
     31          7           0        3.710250   -1.681271   -0.174965
     32          6           0        5.045525   -1.819428   -0.239431
     33          6           0        5.853825   -0.572681   -0.155068
     34          6           0        7.236668   -0.605881    0.189857
     35          6           0        7.980740    0.547418    0.255614
     36          6           0        7.399042    1.813453   -0.020092
     37          6           0        8.137936    3.024548    0.032983
     38          6           0        7.531749    4.231112   -0.237869
     39          6           0        6.155851    4.281098   -0.573973
     40          6           0        5.412734    3.124096   -0.632685
     41          6           0        6.007681    1.861700   -0.358685
     42          6           0        5.267623    0.654967   -0.412575
     43          6           0        5.644102   -3.081704   -0.393748
     44          1           0        5.265092   -5.190535   -0.611656
     45          1           0        2.796663   -4.918501   -0.484778
     46          1           0        0.922321   -4.523631    0.482524
     47          1           0       -1.500256   -4.085600    0.572842
     48          1           0       -6.271515   -3.850269   -0.434547
     49          1           0       -8.252998   -2.317348   -0.498346
     50          1           0       -7.963436    0.113774   -0.492310
     51          1           0       -1.820795   -0.891530    2.233658
     52          1           0       -1.190449    0.771800    3.929651
     53          1           0       -2.114184    3.095292    3.788676
     54          1           0       -3.646070    3.675783    1.946388
     55          1           0       -3.363398    4.087825   -0.263913
     56          1           0       -4.887530    5.146132   -1.886922
     57          1           0       -6.892908    3.884877   -2.693984
     58          1           0       -7.266096    1.579916   -1.925213
     59          1           0       -0.816733   -0.023736   -0.643303
     60          1           0        1.613118   -0.464569   -0.740561
     61          1           0        7.709653   -1.551843    0.434069
     62          1           0        9.031918    0.502085    0.530774
     63          1           0        9.193572    2.983649    0.291597
     64          1           0        8.107562    5.151719   -0.194973
     65          1           0        5.689626    5.239646   -0.785295
     66          1           0        4.356710    3.158443   -0.889682
     67          1           0        4.212737    0.689066   -0.664196
     68          1           0        6.719896   -3.182169   -0.480685
 ---------------------------------------------------------------------

 The electronic state is 1-A.
 Alpha  occ. eigenvalues --  -14.38940 -14.32773 -14.31935 -10.25797 -10.24453
 Alpha  occ. eigenvalues --  -10.23501 -10.23475 -10.22170 -10.21021 -10.20946
 Alpha  occ. eigenvalues --  -10.20857 -10.20751 -10.20667 -10.20647 -10.20339
 Alpha  occ. eigenvalues --  -10.20222 -10.19954 -10.19948 -10.19859 -10.19772
 Alpha  occ. eigenvalues --  -10.19667 -10.19652 -10.19577 -10.19572 -10.19474
 Alpha  occ. eigenvalues --  -10.19453 -10.19344 -10.19313 -10.19305 -10.19272
 Alpha  occ. eigenvalues --  -10.19264 -10.19219 -10.19211 -10.19145 -10.19142
 Alpha  occ. eigenvalues --  -10.19116 -10.19086 -10.19039 -10.18941 -10.18856
 Alpha  occ. eigenvalues --  -10.18749 -10.18712 -10.18655  -1.01823  -0.94676
 Alpha  occ. eigenvalues --   -0.90582  -0.87258  -0.86963  -0.86317  -0.85165
 Alpha  occ. eigenvalues --   -0.83859  -0.82590  -0.80511  -0.79506  -0.78271
 Alpha  occ. eigenvalues --   -0.77419  -0.77113  -0.76158  -0.75146  -0.74820
 Alpha  occ. eigenvalues --   -0.73468  -0.73044  -0.72023  -0.71478  -0.71197
 Alpha  occ. eigenvalues --   -0.65890  -0.64842  -0.64643  -0.63656  -0.62609
 Alpha  occ. eigenvalues --   -0.61587  -0.61096  -0.60330  -0.59305  -0.59181
 Alpha  occ. eigenvalues --   -0.58819  -0.58546  -0.57783  -0.56735  -0.53532
 Alpha  occ. eigenvalues --   -0.52548  -0.51912  -0.51371  -0.50751  -0.50605
 Alpha  occ. eigenvalues --   -0.49832  -0.49259  -0.48257  -0.47955  -0.47322
 Alpha  occ. eigenvalues --   -0.46927  -0.46285  -0.45617  -0.44789  -0.44718
 Alpha  occ. eigenvalues --   -0.44475  -0.44206  -0.43891  -0.43547  -0.42601
 Alpha  occ. eigenvalues --   -0.42575  -0.42234  -0.42227  -0.41787  -0.41570
 Alpha  occ. eigenvalues --   -0.41444  -0.41286  -0.40507  -0.39660  -0.38998
 Alpha  occ. eigenvalues --   -0.38638  -0.38260  -0.37845  -0.37706  -0.37024
 Alpha  occ. eigenvalues --   -0.36808  -0.36459  -0.36389  -0.35781  -0.35243
 Alpha  occ. eigenvalues --   -0.34458  -0.34382  -0.33955  -0.33928  -0.33526
 Alpha  occ. eigenvalues --   -0.32931  -0.32833  -0.31550  -0.29428  -0.29127
 Alpha  occ. eigenvalues --   -0.27830  -0.27514  -0.27468  -0.26770  -0.25773
 Alpha  occ. eigenvalues --   -0.25446  -0.25024  -0.24239  -0.23711  -0.23304
 Alpha  occ. eigenvalues --   -0.21332  -0.20790  -0.20528
 Alpha virt. eigenvalues --   -0.06131  -0.05148  -0.03974  -0.02644  -0.02335
 Alpha virt. eigenvalues --   -0.01580  -0.00220  -0.00071   0.01314   0.01795
 Alpha virt. eigenvalues --    0.02298   0.03584   0.04055   0.06741   0.08966

 Mulliken charges:
               1
     1  C   -0.105161
     2  C   -0.170816
     3  C    0.256957
     4  C    0.108643
     5  C   -0.189345
     6  C   -0.168432
     7  C    0.103160
     8  C    0.416982
     9  N   -0.556033
    10  C    0.272936
    11  C   -0.186586
    12  C   -0.139794
    13  C   -0.225877
    14  C    0.098558
    15  C    0.204525
    16  N   -0.649385
    17  C    0.210721
    18  C   -0.151931
    19  C   -0.141524
    20  C   -0.124541
    21  C   -0.197381
    22  C    0.067946
    23  C    0.046610
    24  C   -0.190929
    25  C   -0.129135
    26  C   -0.129301
    27  C   -0.181615
    28  C    0.083602
    29  C   -0.172285
    30  C   -0.170522
    31  N   -0.566293
    32  C    0.259181
    33  C    0.098088
    34  C   -0.179355
    35  C   -0.204599
    36  C    0.147807
    37  C   -0.193977
    38  C   -0.133185
    39  C   -0.138868
    40  C   -0.184568
    41  C    0.137552
    42  C   -0.248037
    43  C   -0.172746
    44  H    0.142720
    45  H    0.143773
    46  H    0.133883
    47  H    0.160763
    48  H    0.141010
    49  H    0.128379
    50  H    0.132306
    51  H    0.157375
    52  H    0.140045
    53  H    0.134116
    54  H    0.142069
    55  H    0.137830
    56  H    0.132194
    57  H    0.132942
    58  H    0.137749
    59  H    0.149885
    60  H    0.159005
    61  H    0.129001
    62  H    0.130060
    63  H    0.129782
    64  H    0.130705
    65  H    0.130669
    66  H    0.132743
    67  H    0.157544
    68  H    0.142403
 Sum of Mulliken charges =  -0.00000

 Dipole moment (field-independent basis, Debye):
    X=              1.7175    Y=              1.1734    Z=              0.5183  Tot=              2.1436
 Quadrupole moment (field-independent basis, Debye-Ang):
   XX=           -214.9108   YY=           -215.4359   ZZ=           -244.3305
   XY=            -14.9201   XZ=              5.4876   YZ=             -2.8190

 1\1\GINC-NODE42\FOpt\RB3LYP\6-31G(d)\C40H25N3\WYKGROUP\05-Nov-2022\0\\
 #p b3lyp/6-31g(d) opt SCF=XQC\\Gaussian input prepared by ASE\\0,1\C,4
 .7292910482,-4.3249494815,-0.1285866551\C,3.3469481936,-4.1785584656,-
 0.0969985963\C,2.8083575238,-2.8812514021,-0.0483730814\C,1.3402513737
 ,-2.6440491752,-0.0171973935\C,0.4358772093,-3.6345979451,0.4036059301
 \C,-0.9328958313,-3.3967175816,0.4213711321\C,-1.4468939454,-2.1524915
 043,0.0210881107\C,-2.9013473084,-1.9543050419,0.0011704901\N,-3.75188
 52229,-2.9448056905,-0.13130395\C,-5.0046365661,-2.3592773733,-0.23682

 Normal termination of Gaussian 16 at Sat Nov  5 00:08:58 2022.
