 Gaussian 16, Revision B.01,
 Gaussian 16:  ES64L-G16RevB.01 20-Dec-2017

 -------------------------------------------------------------------
 #p b3lyp/6-31g(d) 6D 10F nosymm GFInput td=(50-50,nstate=2) SCF=XQC
 -------------------------------------------------------------------

 ------------------------------
 Gaussian input prepared by ASE
 ------------------------------
 Symbolic Z-matrix:
 Charge =  0 Multiplicity = 1

                          Input orientation:
 ---------------------------------------------------------------------
 Center     Atomic      Atomic             Coordinates (Angstroms)
 Number     Number       Type             X           Y           Z
 ---------------------------------------------------------------------
      1          6           0       -6.468881   -3.310838    0.138182
      2          6           0       -5.060863   -3.844496    0.167276
      3          6           0       -4.771661   -5.209445    0.239302
      4          6           0       -3.455444   -5.704184    0.266095
      5          6           0       -2.356233   -4.848726    0.221596
      6          6           0       -2.636465   -3.486050    0.149769
      7          6           0       -3.961476   -2.971572    0.122059
      8          7           0       -3.972334   -1.575352    0.048640
      9          6           0       -2.697936   -1.271273    0.033376
     10          7           0       -1.944373   -0.102282   -0.027242
     11          6           0       -2.477006    1.207850   -0.096561
     12          6           0       -3.869651    1.404946   -0.111120
     13          6           0       -4.367018    2.706277   -0.180021
     14          6           0       -5.872803    3.011579   -0.200173
     15          6           0       -6.729301    1.733349   -0.135759
     16          6           0       -6.226175    3.899070    1.017140
     17          6           0       -6.219062    3.767459   -1.505200
     18          6           0       -3.425766    3.750650   -0.231292
     19          6           0       -2.072896    3.445097   -0.211010
     20          7           0       -1.587858    2.198370   -0.144766
     21          6           0       -0.576621   -0.487756   -0.005923
     22          6           0        0.597507    0.259828   -0.035208
     23          6           0        1.810641   -0.436262   -0.000946
     24          8           0        2.951801    0.333540   -0.126058
     25          6           0        4.057844    0.087513    0.668252
     26          6           0        3.960733   -0.344281    1.991971
     27          6           0        5.146459   -0.495682    2.715719
     28          6           0        6.389108   -0.222481    2.157707
     29          6           0        6.479988    0.219737    0.818588
     30          7           0        7.698743    0.520049    0.238483
     31          6           0        8.986079    0.164405    0.696262
     32          6           0        9.894675    0.537588   -0.215170
     33          7           0        9.273722    1.208009   -1.294522
     34          6           0        9.799127    1.024297   -2.634734
     35          6           0        7.833898    0.965860   -1.149153
     36          6           0        5.290349    0.362954    0.077738
     37          6           0        1.869645   -1.834070    0.062835
     38          6           0        0.691569   -2.581501    0.104362
     39          6           0       -0.517185   -1.900100    0.068508
     40          7           0       -1.836620   -2.348533    0.090510
     41          1           0       -6.653393   -2.634893    0.981823
     42          1           0       -6.653104   -2.729878   -0.773552
     43          1           0       -7.200703   -4.123419    0.181985
     44          1           0       -5.597950   -5.915469    0.275915
     45          1           0       -3.292525   -6.776721    0.322596
     46          1           0       -1.340382   -5.230103    0.242051
     47          1           0       -4.521634    0.544188   -0.068249
     48          1           0       -7.791326    2.002656   -0.152244
     49          1           0       -6.540688    1.071642   -0.988078
     50          1           0       -6.544732    1.163792    0.781524
     51          1           0       -5.993669    3.386658    1.957459
     52          1           0       -5.677439    4.846711    1.006611
     53          1           0       -7.297317    4.133576    1.014025
     54          1           0       -7.290142    4.000687   -1.532578
     55          1           0       -5.670089    4.711175   -1.590070
     56          1           0       -5.981306    3.160115   -2.385788
     57          1           0       -3.735699    4.789034   -0.286080
     58          1           0       -1.327750    4.237666   -0.249484
     59          1           0        0.581232    1.337037   -0.088431
     60          1           0        2.995488   -0.542145    2.442988
     61          1           0        5.095926   -0.824221    3.750693
     62          1           0        7.282088   -0.331327    2.762700
     63          1           0        9.137611   -0.279300    1.666533
     64          1           0       10.971747    0.462674   -0.166134
     65          1           0        9.598184    0.015996   -3.041419
     66          1           0       10.881009    1.186841   -2.624678
     67          1           0        9.355617    1.762329   -3.311985
     68          1           0        7.246078    1.874215   -1.337533
     69          1           0        7.483691    0.178404   -1.855293
     70          1           0        5.296254    0.683616   -0.957008
     71          1           0        2.833323   -2.330526    0.078262
     72          1           0        0.723338   -3.664549    0.153928
 ---------------------------------------------------------------------

 SCF Done:  E(RB3LYP) =  -1680.51131445     A.U. after   15 cycles

 Excitation energies and oscillator strengths:

 Excited state symmetry could not be determined.
 Excited State   1:      Triplet-?Sym    2.8620 eV  433.20 nm  f=0.0000  <S**2>=2.000
     140 ->141        -0.11090
     140 ->144         0.19505
     140 ->145         0.56202
     140 ->146        -0.12977
     140 ->147        -0.13850
     140 ->149        -0.24075
 This state for optimization and/or second-order correction.
 Total Energy, E(TD-HF/TD-DFT) =  -1680.40613613
 Copying the excited state density for this state as the 1-particle RhoCI density.

 Excited state symmetry could not be determined.
 Excited State   2:      Triplet-?Sym    3.2920 eV  376.62 nm  f=0.0000  <S**2>=2.000
     139 ->141        -0.30387
     140 ->141         0.55429

 Excited state symmetry could not be determined.
 Excited State   3:      Singlet-?Sym    3.3240 eV  373.00 nm  f=0.0040  <S**2>=0.000
     140 ->141         0.70386

 Excited state symmetry could not be determined.
 Excited State   4:      Singlet-?Sym    3.5577 eV  348.49 nm  f=0.0395  <S**2>=0.000
     140 ->142         0.51952
     140 ->143         0.46018

 Alpha  occ. eigenvalues --  -19.18032 -14.40595 -14.39945 -14.36427 -14.34784
 Alpha  occ. eigenvalues --  -14.32979 -14.31521 -10.28713 -10.27061 -10.25390
 Alpha  occ. eigenvalues --  -10.24917 -10.24373 -10.24284 -10.23915 -10.23036
 Alpha  occ. eigenvalues --  -10.22351 -10.22348 -10.21733 -10.21072 -10.20966
 Alpha  occ. eigenvalues --  -10.20877 -10.20630 -10.20605 -10.20442 -10.19341
 Alpha  occ. eigenvalues --  -10.19064 -10.18983 -10.18967 -10.18855 -10.18807
 Alpha  occ. eigenvalues --  -10.18679 -10.18184 -10.17913 -10.17911 -10.17720
 Alpha  occ. eigenvalues --  -10.17719 -10.17708 -10.17420 -10.17349 -10.17348
 Alpha  occ. eigenvalues --   -1.06938  -1.06174  -0.99433  -0.98136  -0.93537
 Alpha  occ. eigenvalues --   -0.91073  -0.90803  -0.85248  -0.84133  -0.83738
 Alpha  occ. eigenvalues --   -0.83500  -0.78336  -0.77694  -0.77089  -0.76735
 Alpha  occ. eigenvalues --   -0.75683  -0.74694  -0.73598  -0.73020  -0.71742
 Alpha  occ. eigenvalues --   -0.69999  -0.68897  -0.68818  -0.67905  -0.66365
 Alpha  occ. eigenvalues --   -0.65153  -0.64330  -0.63395  -0.62311  -0.60948
 Alpha  occ. eigenvalues --   -0.59798  -0.58969  -0.58765  -0.57985  -0.56995
 Alpha  occ. eigenvalues --   -0.55563  -0.54335  -0.52271  -0.51518  -0.51118
 Alpha  occ. eigenvalues --   -0.49748  -0.49584  -0.49300  -0.48974  -0.48849
 Alpha  occ. eigenvalues --   -0.48752  -0.47483  -0.46857  -0.46721  -0.45676
 Alpha  occ. eigenvalues --   -0.45251  -0.44662  -0.44146  -0.43938  -0.43832
 Alpha  occ. eigenvalues --   -0.43737  -0.42857  -0.42639  -0.42476  -0.42269
 Alpha  occ. eigenvalues --   -0.42207  -0.42017  -0.41469  -0.40908  -0.40738
 Alpha  occ. eigenvalues --   -0.40649  -0.39514  -0.39419  -0.38702  -0.38405
 Alpha  occ. eigenvalues --   -0.38031  -0.37910  -0.37850  -0.37331  -0.36858
 Alpha  occ. eigenvalues --   -0.36776  -0.36387  -0.35737  -0.34959  -0.34829
 Alpha  occ. eigenvalues --   -0.34548  -0.34159  -0.33779  -0.33652  -0.32494
 Alpha  occ. eigenvalues --   -0.32440  -0.31959  -0.30170  -0.28911  -0.27798
 Alpha  occ. eigenvalues --   -0.27319  -0.26480  -0.26286  -0.24945  -0.23617
 Alpha  occ. eigenvalues --   -0.23191  -0.22098  -0.20394  -0.19344  -0.15879
 Alpha virt. eigenvalues --   -0.02592  -0.01456  -0.01276  -0.00331   0.01041
 Alpha virt. eigenvalues --    0.01285   0.02588   0.03928   0.05616   0.07862
 Alpha virt. eigenvalues --    0.08054   0.08243   0.08757   0.09839   0.11059

 Mulliken charges:
               1
     1  C   -0.516012
     2  C    0.126841
     3  C   -0.199177
     4  C   -0.150612
     5  C   -0.161142
     6  C    0.335212
     7  C    0.181740
     8  N   -0.646255
     9  C    0.828386
    10  N   -0.770294
    11  C    0.521354
    12  C   -0.271551
    13  C    0.200366
    14  C    0.010656
    15  C   -0.459626
    16  C   -0.441323
    17  C   -0.441322
    18  C   -0.207963
    19  C    0.045909
    20  N   -0.511808
    21  C    0.302780
    22  C   -0.218962
    23  C    0.355121
    24  O   -0.583052
    25  C    0.354538
    26  C   -0.185757
    27  C   -0.146935
    28  C   -0.177047
    29  C    0.375527
    30  N   -0.573256
    31  C    0.023660
    32  C   -0.010393
    33  N   -0.428746
    34  C   -0.308418
    35  C    0.062353
    36  C   -0.269812
    37  C   -0.184821
    38  C   -0.169331
    39  C    0.317041
    40  N   -0.751857
    41  H    0.166045
    42  H    0.166046
    43  H    0.146368
    44  H    0.116234
    45  H    0.124659
    46  H    0.134106
    47  H    0.211170
    48  H    0.140957
    49  H    0.156587
    50  H    0.156649
    51  H    0.152060
    52  H    0.143597
    53  H    0.143645
    54  H    0.143650
    55  H    0.143566
    56  H    0.152035
    57  H    0.132489
    58  H    0.141542
    59  H    0.190266
    60  H    0.138947
    61  H    0.129177
    62  H    0.122240
    63  H    0.161253
    64  H    0.148731
    65  H    0.136130
    66  H    0.159757
    67  H    0.159501
    68  H    0.161195
    69  H    0.123298
    70  H    0.138747
    71  H    0.152248
    72  H    0.151095
 Sum of Mulliken charges =  -0.00000

 Dipole moment (field-independent basis, Debye):
    X=              1.6083    Y=              0.3937    Z=             -0.7716  Tot=              1.8267
 Quadrupole moment (field-independent basis, Debye-Ang):
   XX=           -188.7620   YY=           -219.7672   ZZ=           -229.1699
   XY=            -15.7230   XZ=             -7.5245   YZ=             -4.9773

 Normal termination of Gaussian 16 at Sat Nov  5 10:13:17 2022.
