 Gaussian 16, Revision B.01,
 Gaussian 16:  ES64L-G16RevB.01 20-Dec-2017

 -----------------------------
 #p b3lyp/6-31g(d) opt SCF=XQC
 -----------------------------

 ------------------------------
 Gaussian input prepared by ASE
 ------------------------------
 Symbolic Z-matrix:
 Charge =  0 Multiplicity = 1

 SCF Done:  E(RB3LYP) =  -3339.65779755     A.U. after   16 cycles
 SCF Done:  E(RB3LYP) =  -3339.67823434     A.U. after   13 cycles
 SCF Done:  E(RB3LYP) =  -3339.67986620     A.U. after   14 cycles
 SCF Done:  E(RB3LYP) =  -3339.68094600     A.U. after   12 cycles
 SCF Done:  E(RB3LYP) =  -3339.68107649     A.U. after   12 cycles
 SCF Done:  E(RB3LYP) =  -3339.68111610     A.U. after   11 cycles
 SCF Done:  E(RB3LYP) =  -3339.68112772     A.U. after   11 cycles
 SCF Done:  E(RB3LYP) =  -3339.68113554     A.U. after   11 cycles
 SCF Done:  E(RB3LYP) =  -3339.68114019     A.U. after   10 cycles
 SCF Done:  E(RB3LYP) =  -3339.68114138     A.U. after   10 cycles
 SCF Done:  E(RB3LYP) =  -3339.68114200     A.U. after   10 cycles
 SCF Done:  E(RB3LYP) =  -3339.68114241     A.U. after    9 cycles
 SCF Done:  E(RB3LYP) =  -3339.68114269     A.U. after    9 cycles
 SCF Done:  E(RB3LYP) =  -3339.68114290     A.U. after   10 cycles
 SCF Done:  E(RB3LYP) =  -3339.68114301     A.U. after    8 cycles
 SCF Done:  E(RB3LYP) =  -3339.68114303     A.U. after    8 cycles
 SCF Done:  E(RB3LYP) =  -3339.68114302     A.U. after    7 cycles
 SCF Done:  E(RB3LYP) =  -3339.68114301     A.U. after    7 cycles
 Optimization completed.
    -- Stationary point found.

                         Standard orientation:
 ---------------------------------------------------------------------
 Center     Atomic      Atomic             Coordinates (Angstroms)
 Number     Number       Type             X           Y           Z
 ---------------------------------------------------------------------
      1          6           0      -17.155232    2.498650   -1.663770
      2          7           0      -16.027489    2.337505   -1.977871
      3          6           0      -14.707984    2.156013   -2.356483
      4          6           0      -14.273731    2.634676   -3.600187
      5          6           0      -12.944943    2.446763   -3.969620
      6          6           0      -12.056347    1.799066   -3.113048
      7          6           0      -12.486210    1.321674   -1.864451
      8          6           0      -11.561461    0.631939   -0.926450
      9          6           0      -10.166444    0.713072   -1.052566
     10          6           0       -9.398036    0.036057   -0.104200
     11          6           0       -7.908099    0.053768   -0.123455
     12          6           0       -7.169242   -1.129522    0.102509
     13          6           0       -7.800441   -2.404212    0.312120
     14          7           0       -8.199858   -3.485920    0.462921
     15          6           0       -5.767838   -1.121832    0.100881
     16          6           0       -5.036899    0.053909   -0.115984
     17          6           0       -3.555212    0.051612   -0.111793
     18          6           0       -2.830645    1.135915    0.410154
     19          6           0       -1.440178    1.132257    0.414323
     20          6           0       -0.712384    0.046157   -0.102062
     21          6           0        0.769664    0.042729   -0.095776
     22          6           0        1.493167    0.613110    0.965703
     23          6           0        2.884201    0.602964    0.981169
     24          6           0        3.598472    0.034740   -0.082616
     25          7           0        5.013884    0.031394   -0.076268
     26          6           0        5.835543   -1.086777   -0.278255
     27          6           0        5.492533   -2.424421   -0.493379
     28          6           0        6.520021   -3.351394   -0.629522
     29          6           0        7.878711   -2.968927   -0.571908
     30          7           0        8.897867   -3.954009   -0.726776
     31          6           0        8.828025   -4.870097   -1.808437
     32          6           0        9.197025   -6.215125   -1.634136
     33          6           0        9.123993   -7.109116   -2.700109
     34          6           0        8.666305   -6.690395   -3.951598
     35          6           0        8.289437   -5.357332   -4.125751
     36          6           0        8.375536   -4.450683   -3.070832
     37          6           0        9.984613   -3.991336    0.187249
     38          6           0       11.293802   -4.229221   -0.263601
     39          6           0       12.353617   -4.267411    0.640461
     40          6           0       12.135729   -4.051150    2.002698
     41          6           0       10.837105   -3.803527    2.452635
     42          6           0        9.768039   -3.781300    1.559339
     43          6           0        8.211543   -1.629489   -0.350115
     44          6           0        7.191780   -0.687942   -0.185349
     45          6           0        7.193635    0.736532    0.079712
     46          6           0        8.215828    1.677433    0.230836
     47          6           0        7.887284    3.016326    0.462808
     48          7           0        8.910523    3.992082    0.644873
     49          6           0        9.995696    3.718097    1.519586
     50          6           0        9.775808    3.064494    2.743596
     51          6           0       10.843227    2.783048    3.593727
     52          6           0       12.143766    3.160212    3.252346
     53          6           0       12.365032    3.816591    2.039864
     54          6           0       11.306787    4.086474    1.174261
     55          6           0        8.848828    5.215796   -0.071911
     56          6           0        8.401070    5.241487   -1.403400
     57          6           0        8.323659    6.447437   -2.097682
     58          6           0        8.704870    7.645003   -1.489460
     59          6           0        9.157810    7.622194   -0.168361
     60          6           0        9.221855    6.424588    0.540544
     61          6           0        6.529654    3.403408    0.517410
     62          6           0        5.499737    2.485419    0.343508
     63          6           0        5.838257    1.144692    0.141002
     64          6           0        2.890945   -0.528978   -1.153369
     65          6           0        1.499869   -0.531413   -1.150767
     66          6           0       -1.440771   -1.036995   -0.623739
     67          6           0       -2.831268   -1.035387   -0.628944
     68          6           0       -5.763029    1.230415   -0.334442
     69          6           0       -7.165761    1.236397   -0.338096
     70          6           0       -7.804231    2.506934   -0.543019
     71          7           0       -8.265294    3.560230   -0.718393
     72          7           0       -9.960391   -0.684585    0.873687
     73          6           0      -11.301326   -0.718826    0.918309
     74          6           0      -11.923995   -1.532788    1.993889
     75          6           0      -11.127007   -2.326630    2.833560
     76          6           0      -11.714226   -3.093627    3.837908
     77          6           0      -13.094347   -3.080549    4.024856
     78          6           0      -13.889417   -2.289211    3.184291
     79          7           0      -15.263742   -2.271431    3.360511
     80          6           0      -16.434561   -2.262376    3.518196
     81          6           0      -13.312779   -1.520066    2.170773
     82          7           0      -12.115991   -0.078011    0.067278
     83          6           0      -13.825998    1.499987   -1.495082
     84          1           0      -14.976342    3.139883   -4.254206
     85          1           0      -12.599435    2.805822   -4.934228
     86          1           0      -11.031108    1.651870   -3.435256
     87          1           0       -9.701924    1.291597   -1.838789
     88          1           0       -5.247933   -2.053951    0.293792
     89          1           0       -3.358904    1.984178    0.836493
     90          1           0       -0.909779    1.993890    0.808777
     91          1           0        0.960373    1.032666    1.814152
     92          1           0        3.423808    1.012732    1.828889
     93          1           0        4.456913   -2.744991   -0.531156
     94          1           0        6.279156   -4.398237   -0.783784
     95          1           0        9.539300   -6.552201   -0.660987
     96          1           0        9.413849   -8.145188   -2.544579
     97          1           0        8.604443   -7.392535   -4.778087
     98          1           0        7.938197   -5.012386   -5.094978
     99          1           0        8.095480   -3.412560   -3.218155
    100          1           0       11.473470   -4.382931   -1.322807
    101          1           0       13.359351   -4.452518    0.271912
    102          1           0       12.965722   -4.073925    2.703042
    103          1           0       10.648882   -3.638784    3.510473
    104          1           0        8.759653   -3.600736    1.917745
    105          1           0        9.254702   -1.334068   -0.295222
    106          1           0        9.258168    1.379893    0.172079
    107          1           0        8.766036    2.779515    3.021138
    108          1           0       10.652296    2.276422    4.536317
    109          1           0       12.972545    2.944658    3.920583
    110          1           0       13.372217    4.109160    1.754253
    111          1           0       11.489251    4.583253    0.226785
    112          1           0        8.117109    4.312803   -1.887881
    113          1           0        7.975516    6.445728   -3.127480
    114          1           0        8.649776    8.582015   -2.036167
    115          1           0        9.450917    8.546326    0.323286
    116          1           0        9.560599    6.417474    1.571576
    117          1           0        6.291285    4.447275    0.693859
    118          1           0        4.465212    2.810440    0.373566
    119          1           0        3.436067   -0.941799   -1.996062
    120          1           0        0.972597   -0.948113   -2.004071
    121          1           0       -0.911007   -1.901025   -1.013779
    122          1           0       -3.359881   -1.882380   -1.057360
    123          1           0       -5.242176    2.163476   -0.519976
    124          1           0      -10.054891   -2.344514    2.679893
    125          1           0      -11.091887   -3.710524    4.479152
    126          1           0      -13.565220   -3.671536    4.803369
    127          1           0      -13.938758   -0.918669    1.523745
    128          1           0      -14.174861    1.131841   -0.538568
 ---------------------------------------------------------------------

 The electronic state is 1-A.
 Alpha  occ. eigenvalues --  -14.39435 -14.37798 -14.37150 -14.36278 -14.36264
 Alpha  occ. eigenvalues --  -14.36213 -14.35937 -14.35769 -14.35212 -10.28690
 Alpha  occ. eigenvalues --  -10.27845 -10.27540 -10.27373 -10.27271 -10.27091
 Alpha  occ. eigenvalues --  -10.26546 -10.26143 -10.25496 -10.25428 -10.25249
 Alpha  occ. eigenvalues --  -10.24952 -10.24842 -10.24695 -10.23337 -10.23314
 Alpha  occ. eigenvalues --  -10.23302 -10.23120 -10.22983 -10.22903 -10.22892
 Alpha  occ. eigenvalues --  -10.22889 -10.22888 -10.22879 -10.22853 -10.22838
 Alpha  occ. eigenvalues --  -10.22563 -10.22446 -10.22341 -10.22316 -10.22213
 Alpha  occ. eigenvalues --  -10.22210 -10.22090 -10.22073 -10.21845 -10.21835
 Alpha  occ. eigenvalues --  -10.21834 -10.21825 -10.21600 -10.21597 -10.21518
 Alpha  occ. eigenvalues --  -10.21437 -10.21431 -10.21214 -10.20890 -10.20616
 Alpha  occ. eigenvalues --  -10.19998 -10.19995 -10.19903 -10.19866 -10.19569
 Alpha  occ. eigenvalues --  -10.19556 -10.19490 -10.19489 -10.19008 -10.18989
 Alpha  occ. eigenvalues --  -10.18989 -10.18983 -10.18939 -10.18927 -10.18923
 Alpha  occ. eigenvalues --  -10.18917 -10.18641 -10.18626 -10.18621 -10.18620
 Alpha  occ. eigenvalues --  -10.18601 -10.18581 -10.18579 -10.18570 -10.18500
 Alpha  occ. eigenvalues --  -10.18493 -10.18448 -10.18437  -1.01365  -1.00052
 Alpha  occ. eigenvalues --   -0.96867  -0.96241  -0.96229  -0.96122  -0.94275
 Alpha  occ. eigenvalues --   -0.92770  -0.91843  -0.90990  -0.89504  -0.88429
 Alpha  occ. eigenvalues --   -0.87951  -0.87386  -0.85635  -0.85533  -0.85196
 Alpha  occ. eigenvalues --   -0.85193  -0.84316  -0.83557  -0.83320  -0.82515
 Alpha  occ. eigenvalues --   -0.82256  -0.79977  -0.79169  -0.78318  -0.78111
 Alpha  occ. eigenvalues --   -0.77817  -0.77550  -0.77123  -0.76856  -0.76247
 Alpha  occ. eigenvalues --   -0.75746  -0.75378  -0.75182  -0.74559  -0.74312
 Alpha  occ. eigenvalues --   -0.74127  -0.74119  -0.73355  -0.72879  -0.71202
 Alpha  occ. eigenvalues --   -0.70709  -0.70031  -0.69785  -0.68803  -0.67591
 Alpha  occ. eigenvalues --   -0.67278  -0.66511  -0.66350  -0.64809  -0.64581
 Alpha  occ. eigenvalues --   -0.63208  -0.63168  -0.62553  -0.62176  -0.62128
 Alpha  occ. eigenvalues --   -0.61966  -0.61553  -0.60937  -0.60117  -0.59970
 Alpha  occ. eigenvalues --   -0.59857  -0.59551  -0.59143  -0.58742  -0.58145
 Alpha  occ. eigenvalues --   -0.57565  -0.56658  -0.56268  -0.55377  -0.55069
 Alpha  occ. eigenvalues --   -0.54249  -0.53756  -0.53340  -0.53268  -0.53112
 Alpha  occ. eigenvalues --   -0.52727  -0.52613  -0.52365  -0.52055  -0.51266
 Alpha  occ. eigenvalues --   -0.51051  -0.50702  -0.49520  -0.49412  -0.49298
 Alpha  occ. eigenvalues --   -0.48680  -0.48655  -0.48527  -0.47931  -0.47850
 Alpha  occ. eigenvalues --   -0.47636  -0.47374  -0.46869  -0.46820  -0.46388
 Alpha  occ. eigenvalues --   -0.45896  -0.45895  -0.45706  -0.45404  -0.45212
 Alpha  occ. eigenvalues --   -0.45056  -0.44855  -0.44728  -0.44458  -0.44373
 Alpha  occ. eigenvalues --   -0.44312  -0.44239  -0.44022  -0.43906  -0.43700
 Alpha  occ. eigenvalues --   -0.43420  -0.43199  -0.42985  -0.42935  -0.42702
 Alpha  occ. eigenvalues --   -0.42472  -0.42317  -0.42157  -0.41963  -0.41940
 Alpha  occ. eigenvalues --   -0.41913  -0.41870  -0.41859  -0.41116  -0.40518
 Alpha  occ. eigenvalues --   -0.40078  -0.39675  -0.39391  -0.39290  -0.39092
 Alpha  occ. eigenvalues --   -0.38577  -0.38432  -0.38300  -0.37977  -0.37849
 Alpha  occ. eigenvalues --   -0.37731  -0.37532  -0.37381  -0.37228  -0.37163
 Alpha  occ. eigenvalues --   -0.36585  -0.36448  -0.36390  -0.36349  -0.36293
 Alpha  occ. eigenvalues --   -0.36262  -0.36232  -0.35810  -0.35674  -0.35635
 Alpha  occ. eigenvalues --   -0.35600  -0.35378  -0.35222  -0.35128  -0.34730
 Alpha  occ. eigenvalues --   -0.34439  -0.34358  -0.34238  -0.34057  -0.34009
 Alpha  occ. eigenvalues --   -0.33999  -0.33820  -0.32482  -0.32169  -0.31009
 Alpha  occ. eigenvalues --   -0.30471  -0.30428  -0.30037  -0.29870  -0.29196
 Alpha  occ. eigenvalues --   -0.28719  -0.28253  -0.28093  -0.27666  -0.27621
 Alpha  occ. eigenvalues --   -0.27114  -0.26711  -0.26472  -0.26166  -0.25590
 Alpha  occ. eigenvalues --   -0.25579  -0.25216  -0.25180  -0.25077  -0.24885
 Alpha  occ. eigenvalues --   -0.24578  -0.24566  -0.22505  -0.22134  -0.18443
 Alpha  occ. eigenvalues --   -0.17521
 Alpha virt. eigenvalues --   -0.10142  -0.08648  -0.08104  -0.06451  -0.04931
 Alpha virt. eigenvalues --   -0.04534  -0.03938  -0.03605  -0.03338  -0.02668
 Alpha virt. eigenvalues --   -0.01301  -0.01217  -0.00962  -0.00952  -0.00650

 Mulliken charges:
               1
     1  C   -0.063981
     2  N   -0.324797
     3  C    0.294443
     4  C   -0.110031
     5  C   -0.148085
     6  C   -0.159539
     7  C    0.083840
     8  C    0.283580
     9  C   -0.194105
    10  C    0.232602
    11  C    0.110604
    12  C    0.109634
    13  C    0.262812
    14  N   -0.484029
    15  C   -0.189657
    16  C    0.098051
    17  C    0.091116
    18  C   -0.177547
    19  C   -0.180134
    20  C    0.098359
    21  C    0.099264
    22  C   -0.190022
    23  C   -0.160282
    24  C    0.286235
    25  N   -0.750622
    26  C    0.318501
    27  C   -0.183804
    28  C   -0.173506
    29  C    0.265315
    30  N   -0.655845
    31  C    0.285880
    32  C   -0.166603
    33  C   -0.139864
    34  C   -0.130190
    35  C   -0.139656
    36  C   -0.168826
    37  C    0.284065
    38  C   -0.166504
    39  C   -0.139866
    40  C   -0.129069
    41  C   -0.138705
    42  C   -0.165049
    43  C   -0.247142
    44  C    0.058974
    45  C    0.059379
    46  C   -0.246862
    47  C    0.266401
    48  N   -0.655996
    49  C    0.284176
    50  C   -0.164576
    51  C   -0.138686
    52  C   -0.129119
    53  C   -0.139810
    54  C   -0.166654
    55  C    0.284947
    56  C   -0.168649
    57  C   -0.139547
    58  C   -0.130069
    59  C   -0.139908
    60  C   -0.166431
    61  C   -0.174923
    62  C   -0.183243
    63  C    0.318116
    64  C   -0.160424
    65  C   -0.190088
    66  C   -0.180051
    67  C   -0.177806
    68  C   -0.191017
    69  C    0.105211
    70  C    0.228393
    71  N   -0.476532
    72  N   -0.527404
    73  C    0.462548
    74  C    0.058465
    75  C   -0.143401
    76  C   -0.149701
    77  C   -0.110653
    78  C    0.289280
    79  N   -0.322522
    80  C   -0.073768
    81  C   -0.160669
    82  N   -0.554586
    83  C   -0.154814
    84  H    0.164796
    85  H    0.151634
    86  H    0.145261
    87  H    0.172819
    88  H    0.177259
    89  H    0.143779
    90  H    0.144493
    91  H    0.142886
    92  H    0.157464
    93  H    0.142550
    94  H    0.145410
    95  H    0.143971
    96  H    0.130125
    97  H    0.125747
    98  H    0.128521
    99  H    0.140469
   100  H    0.143756
   101  H    0.130252
   102  H    0.126130
   103  H    0.129364
   104  H    0.140253
   105  H    0.150434
   106  H    0.150240
   107  H    0.139085
   108  H    0.129204
   109  H    0.126161
   110  H    0.130313
   111  H    0.143922
   112  H    0.141657
   113  H    0.129254
   114  H    0.125914
   115  H    0.130038
   116  H    0.143699
   117  H    0.145555
   118  H    0.142025
   119  H    0.157295
   120  H    0.142449
   121  H    0.144580
   122  H    0.143846
   123  H    0.175731
   124  H    0.178793
   125  H    0.149018
   126  H    0.160183
   127  H    0.181113
   128  H    0.187734
 Sum of Mulliken charges =  -0.00000

 Dipole moment (field-independent basis, Debye):
    X=             10.8925    Y=              0.5271    Z=             -2.8316  Tot=             11.2669
 Quadrupole moment (field-independent basis, Debye-Ang):
   XX=           -721.4746   YY=           -478.3892   ZZ=           -440.5534
   XY=             -5.6630   XZ=             47.4425   YZ=             -2.8909

 1\1\GINC-NODE93\FOpt\RB3LYP\6-31G(d)\C74H45N9\WYKGROUP\04-Nov-2022\0\\
 #p b3lyp/6-31g(d) opt SCF=XQC\\Gaussian input prepared by ASE\\0,1\C,1
 7.8338070125,1.6298412964,-3.4533603171\N,16.7102924193,1.9432878122,-
 3.2638927042\C,15.3952272589,2.3205081208,-3.0501441737\C,14.919484178
 9,3.5150659949,-3.6079909318\C,13.5955953427,3.8835663286,-3.386642219
 8\C,12.7522091772,3.0736456288,-2.6279880733\C,13.2235835115,1.8740557
 252,-2.0707888982\C,12.347350209,0.9860710921,-1.2618139868\C,10.94826
 87148,1.0889939747,-1.2849840725\C,10.2277362142,0.1914177267,-0.49543

 Normal termination of Gaussian 16 at Fri Nov  4 12:53:52 2022.
