 Gaussian 16, Revision B.01,
 Gaussian 16:  ES64L-G16RevB.01 20-Dec-2017

 -----------------------------
 #p b3lyp/6-31g(d) opt SCF=XQC
 -----------------------------

 ------------------------------
 Gaussian input prepared by ASE
 ------------------------------
 Symbolic Z-matrix:
 Charge =  0 Multiplicity = 1

 SCF Done:  E(RB3LYP) =  -1680.50137915     A.U. after   15 cycles
 SCF Done:  E(RB3LYP) =  -1680.50935790     A.U. after   13 cycles
 SCF Done:  E(RB3LYP) =  -1680.51001897     A.U. after   12 cycles
 SCF Done:  E(RB3LYP) =  -1680.51030489     A.U. after   11 cycles
 SCF Done:  E(RB3LYP) =  -1680.51039710     A.U. after   10 cycles
 SCF Done:  E(RB3LYP) =  -1680.51044438     A.U. after   11 cycles
 SCF Done:  E(RB3LYP) =  -1680.51048226     A.U. after   10 cycles
 SCF Done:  E(RB3LYP) =  -1680.51051645     A.U. after   10 cycles
 SCF Done:  E(RB3LYP) =  -1680.51052485     A.U. after    9 cycles
 SCF Done:  E(RB3LYP) =  -1680.51053066     A.U. after    9 cycles
 SCF Done:  E(RB3LYP) =  -1680.51127133     A.U. after   10 cycles
 SCF Done:  E(RB3LYP) =  -1680.51128514     A.U. after   10 cycles
 SCF Done:  E(RB3LYP) =  -1680.51129773     A.U. after   10 cycles
 SCF Done:  E(RB3LYP) =  -1680.51131469     A.U. after   10 cycles
 SCF Done:  E(RB3LYP) =  -1680.51131998     A.U. after    9 cycles
 SCF Done:  E(RB3LYP) =  -1680.51132033     A.U. after    9 cycles
 SCF Done:  E(RB3LYP) =  -1680.51132077     A.U. after    8 cycles
 SCF Done:  E(RB3LYP) =  -1680.51132091     A.U. after    8 cycles
 SCF Done:  E(RB3LYP) =  -1680.51132093     A.U. after    6 cycles
 SCF Done:  E(RB3LYP) =  -1680.51132094     A.U. after    6 cycles
 Optimization completed on the basis of negligible forces.
    -- Stationary point found.

                         Standard orientation:
 ---------------------------------------------------------------------
 Center     Atomic      Atomic             Coordinates (Angstroms)
 Number     Number       Type             X           Y           Z
 ---------------------------------------------------------------------
      1          6           0        6.819533    2.827246   -0.237182
      2          6           0        5.436269    3.422418   -0.259577
      3          6           0        5.207182    4.799220   -0.321632
      4          6           0        3.913923    5.351446   -0.342564
      5          6           0        2.778271    4.544778   -0.302107
      6          6           0        2.998498    3.170651   -0.240070
      7          6           0        4.299677    2.598323   -0.218119
      8          7           0        4.249320    1.202503   -0.154181
      9          6           0        2.962822    0.954574   -0.138609
     10          7           0        2.158744   -0.180552   -0.083675
     11          6           0        2.633430   -1.513263   -0.024482
     12          6           0        4.016074   -1.771721   -0.020638
     13          6           0        4.455914   -3.094094    0.038134
     14          6           0        5.946846   -3.465642    0.046949
     15          6           0        6.858539   -2.226050   -0.015001
     16          6           0        6.267323   -4.244198    1.345220
     17          6           0        6.253280   -4.360236   -1.177856
     18          6           0        3.469805   -4.096175    0.090277
     19          6           0        2.131653   -3.731071    0.081456
     20          7           0        1.701737   -2.463788    0.025390
     21          6           0        0.809211    0.264766   -0.099296
     22          6           0       -0.396508   -0.429875   -0.054229
     23          6           0       -1.577972    0.318751   -0.087561
     24          8           0       -2.752205   -0.408817   -0.135703
     25          6           0       -3.842473   -0.037861    0.631431
     26          6           0       -3.719991    0.516908    1.906319
     27          6           0       -4.894345    0.790364    2.612575
     28          6           0       -6.150505    0.518552    2.084965
     29          6           0       -6.267292   -0.048363    0.795770
     30          7           0       -7.500874   -0.350344    0.248817
     31          6           0       -8.769175    0.104565    0.670419
     32          6           0       -9.697735   -0.315939   -0.199336
     33          7           0       -9.112013   -1.115498   -1.208138
     34          6           0       -9.635641   -1.041153   -2.559530
     35          6           0       -7.662294   -0.923645   -1.088276
     36          6           0       -5.088760   -0.315532    0.071689
     37          6           0       -1.575693    1.717317   -0.161213
     38          6           0       -0.365975    2.412833   -0.194085
     39          6           0        0.811746    1.678846   -0.163775
     40          7           0        2.149561    2.068980   -0.186839
     41          1           0        6.978653    2.229796    0.668584
     42          1           0        6.973686    2.152211   -1.087638
     43          1           0        7.586277    3.607328   -0.273859
     44          1           0        6.063623    5.468513   -0.355077
     45          1           0        3.798178    6.430466   -0.391467
     46          1           0        1.780118    4.970506   -0.318439
     47          1           0        4.705151   -0.940330   -0.062912
     48          1           0        7.907725   -2.541991   -0.005749
     49          1           0        6.694658   -1.643428   -0.928003
     50          1           0        6.703572   -1.561793    0.842098
     51          1           0        6.062091   -3.632396    2.230886
     52          1           0        5.677771   -5.163328    1.428131
     53          1           0        7.327200   -4.524629    1.364357
     54          1           0        7.313030   -4.641771   -1.182989
     55          1           0        5.663290   -5.282739   -1.169311
     56          1           0        6.037794   -3.832277   -2.113619
     57          1           0        3.733919   -5.147518    0.137426
     58          1           0        1.352496   -4.490150    0.121482
     59          1           0       -0.427453   -1.506787   -0.001500
     60          1           0       -2.744789    0.715499    2.335044
     61          1           0       -4.824346    1.216221    3.610277
     62          1           0       -7.034844    0.725222    2.677003
     63          1           0       -8.896354    0.647441    1.592576
     64          1           0      -10.770261   -0.189417   -0.157107
     65          1           0       -9.392999   -0.087349   -3.063341
     66          1           0      -10.723513   -1.154326   -2.532788
     67          1           0       -9.228117   -1.860742   -3.161409
     68          1           0       -7.115566   -1.870990   -1.187034
     69          1           0       -7.281660   -0.225305   -1.868534
     70          1           0       -5.113829   -0.735490   -0.926592
     71          1           0       -2.516734    2.254677   -0.193880
     72          1           0       -0.350273    3.495870   -0.251015
 ---------------------------------------------------------------------

 The electronic state is 1-A.
 Alpha  occ. eigenvalues --  -19.18032 -14.40595 -14.39946 -14.36427 -14.34784
 Alpha  occ. eigenvalues --  -14.32979 -14.31521 -10.28713 -10.27061 -10.25390
 Alpha  occ. eigenvalues --  -10.24917 -10.24373 -10.24284 -10.23915 -10.23036
 Alpha  occ. eigenvalues --  -10.22351 -10.22348 -10.21733 -10.21072 -10.20966
 Alpha  occ. eigenvalues --  -10.20877 -10.20630 -10.20605 -10.20442 -10.19341
 Alpha  occ. eigenvalues --  -10.19064 -10.18983 -10.18967 -10.18855 -10.18807
 Alpha  occ. eigenvalues --  -10.18679 -10.18184 -10.17913 -10.17912 -10.17720
 Alpha  occ. eigenvalues --  -10.17719 -10.17708 -10.17420 -10.17349 -10.17348
 Alpha  occ. eigenvalues --   -1.06938  -1.06174  -0.99433  -0.98136  -0.93537
 Alpha  occ. eigenvalues --   -0.91073  -0.90803  -0.85248  -0.84133  -0.83738
 Alpha  occ. eigenvalues --   -0.83500  -0.78336  -0.77694  -0.77089  -0.76735
 Alpha  occ. eigenvalues --   -0.75683  -0.74694  -0.73598  -0.73020  -0.71742
 Alpha  occ. eigenvalues --   -0.69999  -0.68897  -0.68818  -0.67905  -0.66365
 Alpha  occ. eigenvalues --   -0.65153  -0.64330  -0.63395  -0.62311  -0.60948
 Alpha  occ. eigenvalues --   -0.59798  -0.58969  -0.58765  -0.57985  -0.56995
 Alpha  occ. eigenvalues --   -0.55563  -0.54335  -0.52271  -0.51518  -0.51118
 Alpha  occ. eigenvalues --   -0.49748  -0.49584  -0.49300  -0.48974  -0.48849
 Alpha  occ. eigenvalues --   -0.48752  -0.47483  -0.46858  -0.46721  -0.45676
 Alpha  occ. eigenvalues --   -0.45251  -0.44662  -0.44146  -0.43938  -0.43832
 Alpha  occ. eigenvalues --   -0.43737  -0.42857  -0.42639  -0.42476  -0.42269
 Alpha  occ. eigenvalues --   -0.42207  -0.42017  -0.41469  -0.40908  -0.40738
 Alpha  occ. eigenvalues --   -0.40649  -0.39514  -0.39419  -0.38702  -0.38405
 Alpha  occ. eigenvalues --   -0.38031  -0.37910  -0.37850  -0.37331  -0.36858
 Alpha  occ. eigenvalues --   -0.36776  -0.36387  -0.35737  -0.34959  -0.34829
 Alpha  occ. eigenvalues --   -0.34548  -0.34159  -0.33779  -0.33652  -0.32494
 Alpha  occ. eigenvalues --   -0.32440  -0.31959  -0.30170  -0.28911  -0.27798
 Alpha  occ. eigenvalues --   -0.27319  -0.26480  -0.26287  -0.24945  -0.23617
 Alpha  occ. eigenvalues --   -0.23191  -0.22098  -0.20394  -0.19344  -0.15879
 Alpha virt. eigenvalues --   -0.02592  -0.01456  -0.01276  -0.00331   0.01041
 Alpha virt. eigenvalues --    0.01285   0.02588   0.03928   0.05616   0.07862
 Alpha virt. eigenvalues --    0.08054   0.08243   0.08757   0.09838   0.11059

 Mulliken charges:
               1
     1  C   -0.516012
     2  C    0.126834
     3  C   -0.199176
     4  C   -0.150617
     5  C   -0.161127
     6  C    0.335189
     7  C    0.181743
     8  N   -0.646239
     9  C    0.828377
    10  N   -0.770289
    11  C    0.521336
    12  C   -0.271552
    13  C    0.200365
    14  C    0.010670
    15  C   -0.459642
    16  C   -0.441325
    17  C   -0.441316
    18  C   -0.207961
    19  C    0.045897
    20  N   -0.511788
    21  C    0.302781
    22  C   -0.218960
    23  C    0.355135
    24  O   -0.583062
    25  C    0.354551
    26  C   -0.185778
    27  C   -0.146944
    28  C   -0.177022
    29  C    0.375488
    30  N   -0.573258
    31  C    0.023669
    32  C   -0.010398
    33  N   -0.428745
    34  C   -0.308417
    35  C    0.062343
    36  C   -0.269785
    37  C   -0.184833
    38  C   -0.169323
    39  C    0.317035
    40  N   -0.751854
    41  H    0.166046
    42  H    0.166046
    43  H    0.146369
    44  H    0.116234
    45  H    0.124660
    46  H    0.134105
    47  H    0.211172
    48  H    0.140959
    49  H    0.156589
    50  H    0.156654
    51  H    0.152061
    52  H    0.143598
    53  H    0.143647
    54  H    0.143646
    55  H    0.143564
    56  H    0.152034
    57  H    0.132489
    58  H    0.141543
    59  H    0.190266
    60  H    0.138950
    61  H    0.129178
    62  H    0.122240
    63  H    0.161254
    64  H    0.148731
    65  H    0.136130
    66  H    0.159756
    67  H    0.159500
    68  H    0.161198
    69  H    0.123298
    70  H    0.138747
    71  H    0.152248
    72  H    0.151094
 Sum of Mulliken charges =  -0.00000

 Dipole moment (field-independent basis, Debye):
    X=             -1.6278    Y=             -0.3964    Z=             -0.7281  Tot=              1.8268
 Quadrupole moment (field-independent basis, Debye-Ang):
   XX=           -190.8026   YY=           -217.3674   ZZ=           -229.9989
   XY=            -15.9365   XZ=              9.0858   YZ=              3.7348

 Normal termination of Gaussian 16 at Sat Nov  5 01:20:42 2022.
