 Gaussian 16, Revision B.01,
 Gaussian 16:  ES64L-G16RevB.01 20-Dec-2017

 -------------------------------------------------------------------
 #p b3lyp/6-31g(d) 6D 10F nosymm GFInput td=(50-50,nstate=2) SCF=XQC
 -------------------------------------------------------------------

 ------------------------------
 Gaussian input prepared by ASE
 ------------------------------
 Symbolic Z-matrix:
 Charge =  0 Multiplicity = 1

                          Input orientation:
 ---------------------------------------------------------------------
 Center     Atomic      Atomic             Coordinates (Angstroms)
 Number     Number       Type             X           Y           Z
 ---------------------------------------------------------------------
      1          6           0       17.833807    1.629841   -3.453360
      2          7           0       16.710292    1.943288   -3.263893
      3          6           0       15.395227    2.320508   -3.050144
      4          6           0       14.919484    3.515066   -3.607991
      5          6           0       13.595595    3.883566   -3.386642
      6          6           0       12.752209    3.073646   -2.627988
      7          6           0       13.223584    1.874056   -2.070789
      8          6           0       12.347350    0.986071   -1.261814
      9          6           0       10.948269    1.088994   -1.284984
     10          6           0       10.227736    0.191418   -0.495435
     11          6           0        8.738527    0.192038   -0.442037
     12          6           0        8.060439    0.056729    0.790454
     13          6           0        8.754789   -0.038967    2.045804
     14          7           0        9.207548   -0.094758    3.115507
     15          6           0        6.660402    0.041634    0.850965
     16          6           0        5.871036    0.151638   -0.301628
     17          6           0        4.391382    0.130652   -0.226784
     18          6           0        3.624165   -0.487879   -1.227752
     19          6           0        2.235681   -0.507684   -1.155999
     20          6           0        1.552530    0.088790   -0.082000
     21          6           0        0.072601    0.065806   -0.005839
     22          6           0       -0.660733   -1.047633   -0.450813
     23          6           0       -2.049300   -1.078162   -0.371644
     24          6           0       -2.752074    0.020900    0.141065
     25          7           0       -4.165454   -0.001388    0.213902
     26          6           0       -4.935961    0.283384    1.350323
     27          6           0       -4.533012    0.612850    2.647361
     28          6           0       -5.517177    0.813760    3.608924
     29          6           0       -6.891484    0.708975    3.299184
     30          7           0       -7.864849    0.933468    4.316639
     31          6           0       -7.768206    2.088249    5.135924
     32          6           0       -8.069998    2.022107    6.507123
     33          6           0       -7.970978    3.159455    7.305550
     34          6           0       -7.553165    4.376985    6.763258
     35          6           0       -7.242944    4.444065    5.403597
     36          6           0       -7.355787    3.316530    4.592295
     37          6           0       -8.934313    0.013298    4.482123
     38          6           0      -10.237507    0.467307    4.745546
     39          6           0      -11.280188   -0.442554    4.909756
     40          6           0      -11.051795   -1.815462    4.796192
     41          6           0       -9.759630   -2.269491    4.523516
     42          6           0       -8.706784   -1.368925    4.375632
     43          6           0       -7.284249    0.372832    2.000413
     44          6           0       -6.308052    0.142100    1.027080
     45          6           0       -6.373635   -0.240429   -0.368898
     46          6           0       -7.437013   -0.480942   -1.243195
     47          6           0       -7.169049   -0.819594   -2.572816
     48          7           0       -8.234653   -1.093848   -3.479206
     49          6           0       -9.291885   -1.955159   -3.081468
     50          6           0       -9.022211   -3.118014   -2.340662
     51          6           0      -10.061737   -3.954006   -1.938391
     52          6           0      -11.383887   -3.660095   -2.278585
     53          6           0      -11.654890   -2.508974   -3.021136
     54          6           0      -10.624215   -1.656709   -3.412726
     55          6           0       -8.242397   -0.480580   -4.759402
     56          6           0       -7.817023    0.849218   -4.916584
     57          6           0       -7.807877    1.441720   -6.178008
     58          6           0       -8.236227    0.731746   -7.301339
     59          6           0       -8.667074   -0.587998   -7.147630
     60          6           0       -8.663042   -1.195612   -5.893957
     61          6           0       -5.830710   -0.890596   -3.019784
     62          6           0       -4.761061   -0.629200   -2.170550
     63          6           0       -5.038446   -0.319871   -0.836185
     64          6           0       -2.035158    1.142844    0.579421
     65          6           0       -0.645669    1.156414    0.514262
     66          6           0        2.323511    0.707001    0.917658
     67          6           0        3.712106    0.728008    0.847859
     68          6           0        6.536851    0.279884   -1.526127
     69          6           0        7.937483    0.299123   -1.600747
     70          6           0        8.511480    0.405062   -2.913457
     71          7           0        8.919095    0.497573   -3.998842
     72          7           0       10.838831   -0.716681    0.275118
     73          6           0       12.180405   -0.742914    0.247527
     74          6           0       12.857694   -1.739914    1.116087
     75          6           0       12.112498   -2.519797    2.014355
     76          6           0       12.751043   -3.450126    2.832020
     77          6           0       14.131703   -3.621667    2.767153
     78          6           0       14.875088   -2.840707    1.871396
     79          7           0       16.249569   -3.002014    1.801248
     80          6           0       17.420928   -3.146462    1.748175
     81          6           0       14.246866   -1.901297    1.050322
     82          7           0       12.950366    0.061210   -0.500217
     83          6           0       14.558914    1.506543   -2.283123
     84          1           0       15.587038    4.132856   -4.199045
     85          1           0       13.218499    4.810971   -3.806747
     86          1           0       11.730280    3.395187   -2.458069
     87          1           0       10.444618    1.819038   -1.903037
     88          1           0        6.188519   -0.079099    1.820043
     89          1           0        4.117965   -0.977149   -2.062707
     90          1           0        1.671020   -0.978439   -1.955297
     91          1           0       -0.135459   -1.921846   -0.824449
     92          1           0       -2.594627   -1.963139   -0.683331
     93          1           0       -3.484010    0.689018    2.912870
     94          1           0       -5.229150    1.057239    4.626496
     95          1           0       -8.380736    1.076473    6.939571
     96          1           0       -8.208728    3.087250    8.363810
     97          1           0       -7.470733    5.259622    7.391008
     98          1           0       -6.923566    5.385239    4.963202
     99          1           0       -7.127796    3.380274    3.533148
    100          1           0      -10.426018    1.533491    4.819970
    101          1           0      -12.281547   -0.071461    5.112640
    102          1           0      -11.868827   -2.520967    4.917060
    103          1           0       -9.563122   -3.335131    4.437581
    104          1           0       -7.702716   -1.729503    4.176304
    105          1           0       -8.339319    0.281612    1.761717
    106          1           0       -8.464786   -0.409625   -0.901067
    107          1           0       -7.995841   -3.359308   -2.083322
    108          1           0       -9.832337   -4.848980   -1.365679
    109          1           0      -12.191023   -4.317572   -1.968531
    110          1           0      -12.679162   -2.260240   -3.286823
    111          1           0      -10.844766   -0.755951   -3.976453
    112          1           0       -7.496691    1.412427   -4.045956
    113          1           0       -7.476022    2.472024   -6.278186
    114          1           0       -8.234279    1.199287   -8.281807
    115          1           0       -8.996213   -1.158075   -8.012690
    116          1           0       -8.985071   -2.226305   -5.785353
    117          1           0       -5.639618   -1.150438   -4.055919
    118          1           0       -3.742846   -0.674293   -2.542017
    119          1           0       -2.572975    2.010618    0.947428
    120          1           0       -0.112418    2.047389    0.832991
    121          1           0        1.829522    1.161392    1.771374
    122          1           0        4.273762    1.231369    1.629871
    123          1           0        5.969350    0.381246   -2.444811
    124          1           0       11.040201   -2.377488    2.071739
    125          1           0       12.168782   -4.044983    3.529284
    126          1           0       14.642172   -4.342919    3.396666
    127          1           0       14.833412   -1.299346    0.367832
    128          1           0       14.939669    0.587998   -1.854804
 ---------------------------------------------------------------------

 SCF Done:  E(RB3LYP) =  -3339.68114033     A.U. after   16 cycles

 Excitation energies and oscillator strengths:

 Excited state symmetry could not be determined.
 Excited State   1:      Triplet-?Sym    1.8096 eV  685.13 nm  f=0.0000  <S**2>=2.000
     276 -> 277        0.70307
 This state for optimization and/or second-order correction.
 Total Energy, E(TD-HF/TD-DFT) =  -3339.61463752
 Copying the excited state density for this state as the 1-particle RhoCI density.

 Excited state symmetry could not be determined.
 Excited State   2:      Singlet-?Sym    1.8223 eV  680.36 nm  f=0.0500  <S**2>=0.000
     276 -> 277        0.70580

 Excited state symmetry could not be determined.
 Excited State   3:      Triplet-?Sym    2.0802 eV  596.02 nm  f=0.0000  <S**2>=2.000
     275 -> 277        0.70576

 Excited state symmetry could not be determined.
 Excited State   4:      Singlet-?Sym    2.0817 eV  595.58 nm  f=0.0008  <S**2>=0.000
     275 -> 277        0.70613

 Alpha  occ. eigenvalues --  -14.39435 -14.37797 -14.37150 -14.36278 -14.36264
 Alpha  occ. eigenvalues --  -14.36213 -14.35937 -14.35769 -14.35212 -10.28690
 Alpha  occ. eigenvalues --  -10.27845 -10.27540 -10.27373 -10.27271 -10.27091
 Alpha  occ. eigenvalues --  -10.26546 -10.26143 -10.25496 -10.25428 -10.25249
 Alpha  occ. eigenvalues --  -10.24952 -10.24842 -10.24695 -10.23337 -10.23314
 Alpha  occ. eigenvalues --  -10.23302 -10.23120 -10.22983 -10.22902 -10.22892
 Alpha  occ. eigenvalues --  -10.22889 -10.22888 -10.22879 -10.22853 -10.22838
 Alpha  occ. eigenvalues --  -10.22563 -10.22446 -10.22341 -10.22316 -10.22213
 Alpha  occ. eigenvalues --  -10.22210 -10.22090 -10.22073 -10.21845 -10.21835
 Alpha  occ. eigenvalues --  -10.21834 -10.21825 -10.21600 -10.21597 -10.21518
 Alpha  occ. eigenvalues --  -10.21437 -10.21431 -10.21214 -10.20890 -10.20616
 Alpha  occ. eigenvalues --  -10.19998 -10.19995 -10.19903 -10.19866 -10.19569
 Alpha  occ. eigenvalues --  -10.19556 -10.19490 -10.19489 -10.19008 -10.18989
 Alpha  occ. eigenvalues --  -10.18989 -10.18983 -10.18939 -10.18928 -10.18923
 Alpha  occ. eigenvalues --  -10.18917 -10.18641 -10.18626 -10.18621 -10.18620
 Alpha  occ. eigenvalues --  -10.18601 -10.18581 -10.18579 -10.18570 -10.18500
 Alpha  occ. eigenvalues --  -10.18493 -10.18448 -10.18437  -1.01365  -1.00052
 Alpha  occ. eigenvalues --   -0.96867  -0.96241  -0.96229  -0.96122  -0.94275
 Alpha  occ. eigenvalues --   -0.92770  -0.91843  -0.90990  -0.89504  -0.88429
 Alpha  occ. eigenvalues --   -0.87951  -0.87386  -0.85635  -0.85533  -0.85196
 Alpha  occ. eigenvalues --   -0.85193  -0.84316  -0.83557  -0.83320  -0.82515
 Alpha  occ. eigenvalues --   -0.82255  -0.79977  -0.79169  -0.78318  -0.78111
 Alpha  occ. eigenvalues --   -0.77817  -0.77550  -0.77123  -0.76856  -0.76247
 Alpha  occ. eigenvalues --   -0.75747  -0.75378  -0.75182  -0.74559  -0.74312
 Alpha  occ. eigenvalues --   -0.74127  -0.74119  -0.73355  -0.72879  -0.71202
 Alpha  occ. eigenvalues --   -0.70709  -0.70031  -0.69785  -0.68803  -0.67591
 Alpha  occ. eigenvalues --   -0.67278  -0.66511  -0.66350  -0.64809  -0.64581
 Alpha  occ. eigenvalues --   -0.63208  -0.63168  -0.62553  -0.62176  -0.62128
 Alpha  occ. eigenvalues --   -0.61966  -0.61553  -0.60937  -0.60117  -0.59970
 Alpha  occ. eigenvalues --   -0.59857  -0.59551  -0.59144  -0.58742  -0.58145
 Alpha  occ. eigenvalues --   -0.57565  -0.56658  -0.56268  -0.55377  -0.55069
 Alpha  occ. eigenvalues --   -0.54249  -0.53756  -0.53340  -0.53268  -0.53112
 Alpha  occ. eigenvalues --   -0.52727  -0.52613  -0.52365  -0.52055  -0.51266
 Alpha  occ. eigenvalues --   -0.51051  -0.50702  -0.49520  -0.49412  -0.49298
 Alpha  occ. eigenvalues --   -0.48680  -0.48655  -0.48527  -0.47931  -0.47850
 Alpha  occ. eigenvalues --   -0.47636  -0.47374  -0.46869  -0.46820  -0.46388
 Alpha  occ. eigenvalues --   -0.45896  -0.45895  -0.45706  -0.45404  -0.45212
 Alpha  occ. eigenvalues --   -0.45056  -0.44855  -0.44728  -0.44458  -0.44373
 Alpha  occ. eigenvalues --   -0.44312  -0.44239  -0.44022  -0.43906  -0.43700
 Alpha  occ. eigenvalues --   -0.43420  -0.43199  -0.42985  -0.42935  -0.42702
 Alpha  occ. eigenvalues --   -0.42472  -0.42317  -0.42157  -0.41963  -0.41940
 Alpha  occ. eigenvalues --   -0.41913  -0.41870  -0.41859  -0.41116  -0.40518
 Alpha  occ. eigenvalues --   -0.40078  -0.39675  -0.39391  -0.39290  -0.39092
 Alpha  occ. eigenvalues --   -0.38577  -0.38432  -0.38300  -0.37977  -0.37849
 Alpha  occ. eigenvalues --   -0.37731  -0.37532  -0.37381  -0.37228  -0.37163
 Alpha  occ. eigenvalues --   -0.36585  -0.36448  -0.36390  -0.36349  -0.36293
 Alpha  occ. eigenvalues --   -0.36262  -0.36232  -0.35810  -0.35674  -0.35635
 Alpha  occ. eigenvalues --   -0.35600  -0.35378  -0.35222  -0.35128  -0.34730
 Alpha  occ. eigenvalues --   -0.34439  -0.34358  -0.34238  -0.34057  -0.34009
 Alpha  occ. eigenvalues --   -0.33999  -0.33820  -0.32482  -0.32169  -0.31009
 Alpha  occ. eigenvalues --   -0.30471  -0.30428  -0.30037  -0.29870  -0.29196
 Alpha  occ. eigenvalues --   -0.28719  -0.28253  -0.28093  -0.27666  -0.27621
 Alpha  occ. eigenvalues --   -0.27114  -0.26711  -0.26472  -0.26166  -0.25590
 Alpha  occ. eigenvalues --   -0.25579  -0.25216  -0.25180  -0.25077  -0.24885
 Alpha  occ. eigenvalues --   -0.24578  -0.24566  -0.22505  -0.22134  -0.18443
 Alpha  occ. eigenvalues --   -0.17521
 Alpha virt. eigenvalues --   -0.10142  -0.08648  -0.08104  -0.06451  -0.04931
 Alpha virt. eigenvalues --   -0.04534  -0.03938  -0.03605  -0.03338  -0.02668
 Alpha virt. eigenvalues --   -0.01301  -0.01217  -0.00962  -0.00952  -0.00650

 Mulliken charges:
               1
     1  C   -0.063981
     2  N   -0.324795
     3  C    0.294456
     4  C   -0.110043
     5  C   -0.148083
     6  C   -0.159537
     7  C    0.083844
     8  C    0.283582
     9  C   -0.194117
    10  C    0.232629
    11  C    0.110569
    12  C    0.109657
    13  C    0.262817
    14  N   -0.484027
    15  C   -0.189674
    16  C    0.098056
    17  C    0.091114
    18  C   -0.177545
    19  C   -0.180132
    20  C    0.098348
    21  C    0.099271
    22  C   -0.190022
    23  C   -0.160288
    24  C    0.286257
    25  N   -0.750623
    26  C    0.318497
    27  C   -0.183806
    28  C   -0.173492
    29  C    0.265284
    30  N   -0.655835
    31  C    0.285893
    32  C   -0.166603
    33  C   -0.139864
    34  C   -0.130191
    35  C   -0.139653
    36  C   -0.168834
    37  C    0.284071
    38  C   -0.166501
    39  C   -0.139862
    40  C   -0.129073
    41  C   -0.138706
    42  C   -0.165052
    43  C   -0.247131
    44  C    0.058978
    45  C    0.059403
    46  C   -0.246850
    47  C    0.266391
    48  N   -0.656009
    49  C    0.284185
    50  C   -0.164589
    51  C   -0.138687
    52  C   -0.129115
    53  C   -0.139817
    54  C   -0.166640
    55  C    0.284951
    56  C   -0.168643
    57  C   -0.139546
    58  C   -0.130074
    59  C   -0.139894
    60  C   -0.166445
    61  C   -0.174926
    62  C   -0.183232
    63  C    0.318078
    64  C   -0.160437
    65  C   -0.190092
    66  C   -0.180045
    67  C   -0.177805
    68  C   -0.191027
    69  C    0.105245
    70  C    0.228382
    71  N   -0.476533
    72  N   -0.527418
    73  C    0.462558
    74  C    0.058467
    75  C   -0.143407
    76  C   -0.149698
    77  C   -0.110661
    78  C    0.289289
    79  N   -0.322521
    80  C   -0.073768
    81  C   -0.160672
    82  N   -0.554596
    83  C   -0.154823
    84  H    0.164796
    85  H    0.151634
    86  H    0.145261
    87  H    0.172819
    88  H    0.177259
    89  H    0.143780
    90  H    0.144494
    91  H    0.142887
    92  H    0.157463
    93  H    0.142551
    94  H    0.145408
    95  H    0.143968
    96  H    0.130125
    97  H    0.125747
    98  H    0.128520
    99  H    0.140469
   100  H    0.143755
   101  H    0.130252
   102  H    0.126130
   103  H    0.129364
   104  H    0.140253
   105  H    0.150431
   106  H    0.150242
   107  H    0.139086
   108  H    0.129204
   109  H    0.126162
   110  H    0.130313
   111  H    0.143921
   112  H    0.141652
   113  H    0.129254
   114  H    0.125914
   115  H    0.130036
   116  H    0.143699
   117  H    0.145555
   118  H    0.142023
   119  H    0.157297
   120  H    0.142449
   121  H    0.144580
   122  H    0.143847
   123  H    0.175731
   124  H    0.178793
   125  H    0.149017
   126  H    0.160184
   127  H    0.181112
   128  H    0.187734
 Sum of Mulliken charges =  -0.00000

 Dipole moment (field-independent basis, Debye):
    X=            -10.9477    Y=              2.6528    Z=             -0.2274  Tot=             11.2668
 Quadrupole moment (field-independent basis, Debye-Ang):
   XX=           -741.3545   YY=           -440.3482   ZZ=           -477.3071
   XY=             45.6615   XZ=              2.1800   YZ=             -8.1885

 Normal termination of Gaussian 16 at Sat Nov  5 11:30:34 2022.
