 Gaussian 16, Revision B.01,
 Gaussian 16:  ES64L-G16RevB.01 20-Dec-2017

 -------------------------------------------------------------------
 #p b3lyp/6-31g(d) 6D 10F nosymm GFInput td=(50-50,nstate=2) SCF=XQC
 -------------------------------------------------------------------

 ------------------------------
 Gaussian input prepared by ASE
 ------------------------------
 Symbolic Z-matrix:
 Charge =  0 Multiplicity = 1

                          Input orientation:
 ---------------------------------------------------------------------
 Center     Atomic      Atomic             Coordinates (Angstroms)
 Number     Number       Type             X           Y           Z
 ---------------------------------------------------------------------
      1          6           0        4.520842    1.036797   -1.361344
      2          6           0        3.852475   -0.257497   -0.845405
      3          6           0        4.259924   -1.451944   -1.737380
      4          6           0        4.196285   -0.515663    0.621255
      5          6           0        5.441455   -0.732565    1.200146
      6          6           0        5.524176   -0.951474    2.580676
      7          6           0        4.369210   -0.952568    3.369862
      8          6           0        3.115312   -0.735299    2.794667
      9          6           0        3.033099   -0.516721    1.417505
     10          6           0        1.874674   -0.264746    0.553265
     11          6           0        0.513240   -0.174092    0.863822
     12          6           0       -0.380410    0.081339   -0.170309
     13          6           0        0.075485    0.233975   -1.496321
     14          6           0        1.437731    0.139035   -1.807549
     15          6           0        2.332556   -0.109374   -0.774037
     16          6           0       -1.078951    0.479564   -2.364864
     17          6           0       -1.148624    0.711553   -3.740908
     18          6           0       -2.397085    0.923344   -4.328256
     19          6           0       -3.559608    0.906788   -3.550149
     20          6           0       -3.489724    0.678402   -2.171194
     21          6           0       -2.249282    0.460131   -1.582329
     22          6           0       -1.915042    0.207880   -0.099502
     23          6           0       -2.485377   -1.122888    0.438861
     24          6           0       -2.836408   -2.169446   -0.424422
     25          6           0       -3.268283   -3.399242    0.075832
     26          6           0       -3.355539   -3.610655    1.451494
     27          6           0       -3.004559   -2.578570    2.322883
     28          6           0       -2.574228   -1.350151    1.821512
     29          6           0       -2.392070    1.429524    0.716837
     30          6           0       -3.722427    1.512196    1.158326
     31          6           0       -4.191836    2.646251    1.820815
     32          6           0       -3.340474    3.726790    2.056539
     33          6           0       -2.017828    3.659062    1.619999
     34          6           0       -1.549710    2.523473    0.956129
     35          1           0        5.612764    0.940843   -1.346901
     36          1           0        4.245278    1.896569   -0.742320
     37          1           0        4.215608    1.245973   -2.393281
     38          1           0        3.950737   -1.283586   -2.775600
     39          1           0        5.347631   -1.588146   -1.728530
     40          1           0        3.796124   -2.380108   -1.388726
     41          1           0        6.345423   -0.733971    0.595195
     42          1           0        6.493151   -1.121999    3.042299
     43          1           0        4.448233   -1.124174    4.440154
     44          1           0        2.220916   -0.737686    3.412598
     45          1           0        0.164595   -0.305036    1.884518
     46          1           0        1.780917    0.255837   -2.833164
     47          1           0       -0.246837    0.729241   -4.347723
     48          1           0       -2.466010    1.105247   -5.397507
     49          1           0       -4.525392    1.076249   -4.018515
     50          1           0       -4.396385    0.676943   -1.572916
     51          1           0       -2.772688   -2.025211   -1.497760
     52          1           0       -3.537705   -4.192743   -0.616584
     53          1           0       -3.694732   -4.566911    1.840743
     54          1           0       -3.067916   -2.725845    3.398083
     55          1           0       -2.318454   -0.554074    2.514157
     56          1           0       -4.395255    0.675677    0.995715
     57          1           0       -5.225513    2.681723    2.155492
     58          1           0       -3.703823    4.609387    2.576165
     59          1           0       -1.341590    4.491833    1.795629
     60          1           0       -0.518077    2.490763    0.622321
 ---------------------------------------------------------------------

 SCF Done:  E(RB3LYP) =  -1311.31635017     A.U. after   15 cycles

 Excitation energies and oscillator strengths:

 Excited state symmetry could not be determined.
 Excited State   1:      Triplet-?Sym    2.6519 eV  467.53 nm  f=0.0000  <S**2>=2.000
     115 ->116         0.65246
 This state for optimization and/or second-order correction.
 Total Energy, E(TD-HF/TD-DFT) =  -1311.21889561
 Copying the excited state density for this state as the 1-particle RhoCI density.

 Excited state symmetry could not be determined.
 Excited State   2:      Triplet-?Sym    3.5162 eV  352.61 nm  f=0.0000  <S**2>=2.000
     108 ->116        -0.31415
     110 ->116        -0.11621
     110 ->117         0.10456
     111 ->116        -0.10376
     112 ->116        -0.10066
     112 ->120         0.10142
     112 ->121        -0.11201
     113 ->116         0.13370
     113 ->117        -0.14314
     113 ->118        -0.11050
     115 ->117         0.16665
     115 ->118         0.10065
     115 ->120        -0.16637
     115 ->121        -0.16382
     115 ->122        -0.27277

 Excited state symmetry could not be determined.
 Excited State   3:      Singlet-?Sym    3.8590 eV  321.29 nm  f=0.6909  <S**2>=0.000
     115 ->116         0.69283

 Excited state symmetry could not be determined.
 Excited State   4:      Singlet-?Sym    4.1867 eV  296.13 nm  f=0.0032  <S**2>=0.000
     110 ->116        -0.10677
     113 ->116        -0.18408
     114 ->116         0.18865
     115 ->117         0.62795

 Alpha  occ. eigenvalues --  -10.21642 -10.20583 -10.19679 -10.19677 -10.19202
 Alpha  occ. eigenvalues --  -10.19153 -10.19134 -10.19081 -10.19052 -10.18916
 Alpha  occ. eigenvalues --  -10.18895 -10.18884 -10.18842 -10.18812 -10.18788
 Alpha  occ. eigenvalues --  -10.18784 -10.18721 -10.18716 -10.18695 -10.18663
 Alpha  occ. eigenvalues --  -10.18622 -10.18604 -10.18600 -10.18595 -10.18523
 Alpha  occ. eigenvalues --  -10.18518 -10.18460 -10.18457 -10.18351 -10.18348
 Alpha  occ. eigenvalues --  -10.18209 -10.18204 -10.17936 -10.17895  -0.89481
 Alpha  occ. eigenvalues --   -0.87864  -0.85121  -0.84431  -0.83707  -0.81615
 Alpha  occ. eigenvalues --   -0.79336  -0.77906  -0.74863  -0.74250  -0.74146
 Alpha  occ. eigenvalues --   -0.73811  -0.73638  -0.73346  -0.72840  -0.69761
 Alpha  occ. eigenvalues --   -0.68597  -0.67601  -0.64451  -0.62213  -0.60835
 Alpha  occ. eigenvalues --   -0.60087  -0.59626  -0.59109  -0.58521  -0.57254
 Alpha  occ. eigenvalues --   -0.56775  -0.55449  -0.54930  -0.51468  -0.51346
 Alpha  occ. eigenvalues --   -0.50624  -0.49084  -0.47794  -0.47336  -0.45716
 Alpha  occ. eigenvalues --   -0.45570  -0.45122  -0.44749  -0.44087  -0.43900
 Alpha  occ. eigenvalues --   -0.43571  -0.43371  -0.42962  -0.42730  -0.42620
 Alpha  occ. eigenvalues --   -0.41831  -0.41430  -0.41407  -0.41162  -0.40774
 Alpha  occ. eigenvalues --   -0.39746  -0.39060  -0.38313  -0.37829  -0.37463
 Alpha  occ. eigenvalues --   -0.36640  -0.36136  -0.35917  -0.35211  -0.35098
 Alpha  occ. eigenvalues --   -0.34444  -0.34284  -0.34176  -0.34091  -0.33484
 Alpha  occ. eigenvalues --   -0.33332  -0.32490  -0.32094  -0.31596  -0.31382
 Alpha  occ. eigenvalues --   -0.29088  -0.25908  -0.24825  -0.24774  -0.24444
 Alpha  occ. eigenvalues --   -0.24247  -0.24171  -0.23123  -0.23036  -0.19711
 Alpha virt. eigenvalues --   -0.04240  -0.01703  -0.00870  -0.00119   0.00285
 Alpha virt. eigenvalues --    0.00471   0.01223   0.01544   0.01988   0.06181
 Alpha virt. eigenvalues --    0.08434   0.09682   0.09802   0.10253   0.10716

 Mulliken charges:
               1
     1  C   -0.436886
     2  C   -0.065114
     3  C   -0.436969
     4  C    0.102741
     5  C   -0.203622
     6  C   -0.132043
     7  C   -0.136543
     8  C   -0.191406
     9  C    0.076640
    10  C    0.084242
    11  C   -0.251571
    12  C    0.074738
    13  C    0.094606
    14  C   -0.274192
    15  C    0.097858
    16  C    0.085653
    17  C   -0.193418
    18  C   -0.134849
    19  C   -0.134471
    20  C   -0.181163
    21  C    0.081947
    22  C   -0.229851
    23  C    0.155925
    24  C   -0.184301
    25  C   -0.132945
    26  C   -0.126642
    27  C   -0.136534
    28  C   -0.177787
    29  C    0.155274
    30  C   -0.177676
    31  C   -0.136564
    32  C   -0.126793
    33  C   -0.133020
    34  C   -0.183900
    35  H    0.144108
    36  H    0.156890
    37  H    0.143638
    38  H    0.143461
    39  H    0.143792
    40  H    0.159081
    41  H    0.123535
    42  H    0.126327
    43  H    0.127322
    44  H    0.129822
    45  H    0.134253
    46  H    0.125914
    47  H    0.128008
    48  H    0.128214
    49  H    0.128533
    50  H    0.133388
    51  H    0.143308
    52  H    0.128811
    53  H    0.127270
    54  H    0.128253
    55  H    0.138529
    56  H    0.138632
    57  H    0.128357
    58  H    0.127205
    59  H    0.129070
    60  H    0.142914
 Sum of Mulliken charges =  -0.00000

 Dipole moment (field-independent basis, Debye):
    X=              0.3270    Y=             -0.0167    Z=             -0.2598  Tot=              0.4180
 Quadrupole moment (field-independent basis, Debye-Ang):
   XX=           -180.2878   YY=           -193.8007   ZZ=           -181.1938
   XY=              0.8961   XZ=             -2.7381   YZ=             -0.1892

 Normal termination of Gaussian 16 at Sat Nov  5 10:29:06 2022.
