 Gaussian 16, Revision B.01,
 Gaussian 16:  ES64L-G16RevB.01 20-Dec-2017

 -----------------------------
 #p b3lyp/6-31g(d) opt SCF=XQC
 -----------------------------

 ------------------------------
 Gaussian input prepared by ASE
 ------------------------------
 Symbolic Z-matrix:
 Charge =  0 Multiplicity = 1

 SCF Done:  E(RB3LYP) =  -1311.30867089     A.U. after   14 cycles
 SCF Done:  E(RB3LYP) =  -1311.31616724     A.U. after   12 cycles
 SCF Done:  E(RB3LYP) =  -1311.31625738     A.U. after   11 cycles
 SCF Done:  E(RB3LYP) =  -1311.31630869     A.U. after   11 cycles
 SCF Done:  E(RB3LYP) =  -1311.31635306     A.U. after   10 cycles
 SCF Done:  E(RB3LYP) =  -1311.31635358     A.U. after    7 cycles
 Optimization completed.
    -- Stationary point found.

                         Standard orientation:
 ---------------------------------------------------------------------
 Center     Atomic      Atomic             Coordinates (Angstroms)
 Number     Number       Type             X           Y           Z
 ---------------------------------------------------------------------
      1          6           0        4.264376    2.260632    1.188530
      2          6           0        3.849002    1.399122   -0.025293
      3          6           0        4.300166    2.083379   -1.335477
      4          6           0        4.406430   -0.019948    0.081759
      5          6           0        5.732348   -0.434854    0.130791
      6          6           0        6.017038   -1.802293    0.229236
      7          6           0        4.981471   -2.741454    0.277609
      8          6           0        3.647392   -2.331376    0.228812
      9          6           0        3.363670   -0.967186    0.130835
     10          6           0        2.082338   -0.255927    0.062662
     11          6           0        0.771205   -0.744787    0.073320
     12          6           0       -0.271776    0.171747   -0.000422
     13          6           0       -0.011304    1.554818   -0.093782
     14          6           0        1.301128    2.043586   -0.108656
     15          6           0        2.344228    1.129244   -0.028112
     16          6           0       -1.288387    2.269558   -0.168665
     17          6           0       -1.561475    3.637272   -0.252050
     18          6           0       -2.890993    4.058832   -0.308241
     19          6           0       -3.933268    3.126127   -0.278093
     20          6           0       -3.660098    1.756355   -0.190553
     21          6           0       -2.337386    1.330804   -0.141172
     22          6           0       -1.788136   -0.104170   -0.025868
     23          6           0       -2.099386   -0.979852   -1.259709
     24          6           0       -2.410103   -0.408666   -2.501066
     25          6           0       -2.603858   -1.206110   -3.630539
     26          6           0       -2.487831   -2.593123   -3.544015
     27          6           0       -2.174171   -3.175077   -2.314929
     28          6           0       -1.981885   -2.377064   -1.187201
     29          6           0       -2.320889   -0.720316    1.286732
     30          6           0       -3.583937   -1.332765    1.321599
     31          6           0       -4.116598   -1.816531    2.516404
     32          6           0       -3.397758   -1.697676    3.706820
     33          6           0       -2.143703   -1.088175    3.686707
     34          6           0       -1.612275   -0.603577    2.489974
     35          1           0        5.352252    2.393034    1.215074
     36          1           0        3.954143    1.793070    2.128465
     37          1           0        3.806184    3.255022    1.133159
     38          1           0        3.842868    3.075023   -1.432235
     39          1           0        5.388688    2.212442   -1.349644
     40          1           0        4.014841    1.488571   -2.208948
     41          1           0        6.544773    0.287437    0.093519
     42          1           0        7.050486   -2.136294    0.268145
     43          1           0        5.217075   -3.799718    0.353686
     44          1           0        2.846522   -3.065538    0.266264
     45          1           0        0.574782   -1.811769    0.132377
     46          1           0        1.493497    3.111649   -0.183088
     47          1           0       -0.754032    4.364882   -0.271442
     48          1           0       -3.117947    5.119696   -0.373024
     49          1           0       -4.964283    3.466924   -0.319169
     50          1           0       -4.475617    1.039536   -0.157808
     51          1           0       -2.502090    0.668692   -2.589132
     52          1           0       -2.847419   -0.736884   -4.580369
     53          1           0       -2.641777   -3.213963   -4.422566
     54          1           0       -2.081179   -4.254795   -2.229365
     55          1           0       -1.752058   -2.848064   -0.236278
     56          1           0       -4.151434   -1.446099    0.402900
     57          1           0       -5.095102   -2.290110    2.513769
     58          1           0       -3.809861   -2.077777    4.637789
     59          1           0       -1.570708   -0.987677    4.604982
     60          1           0       -0.636046   -0.130593    2.495260
 ---------------------------------------------------------------------

 The electronic state is 1-A.
 Alpha  occ. eigenvalues --  -10.21642 -10.20583 -10.19679 -10.19677 -10.19202
 Alpha  occ. eigenvalues --  -10.19153 -10.19134 -10.19081 -10.19052 -10.18916
 Alpha  occ. eigenvalues --  -10.18894 -10.18884 -10.18842 -10.18812 -10.18788
 Alpha  occ. eigenvalues --  -10.18784 -10.18721 -10.18716 -10.18695 -10.18663
 Alpha  occ. eigenvalues --  -10.18622 -10.18604 -10.18600 -10.18595 -10.18523
 Alpha  occ. eigenvalues --  -10.18518 -10.18460 -10.18457 -10.18351 -10.18348
 Alpha  occ. eigenvalues --  -10.18209 -10.18204 -10.17936 -10.17895  -0.89481
 Alpha  occ. eigenvalues --   -0.87864  -0.85121  -0.84431  -0.83707  -0.81615
 Alpha  occ. eigenvalues --   -0.79336  -0.77906  -0.74863  -0.74250  -0.74146
 Alpha  occ. eigenvalues --   -0.73811  -0.73638  -0.73346  -0.72840  -0.69761
 Alpha  occ. eigenvalues --   -0.68597  -0.67601  -0.64451  -0.62213  -0.60835
 Alpha  occ. eigenvalues --   -0.60087  -0.59626  -0.59109  -0.58521  -0.57254
 Alpha  occ. eigenvalues --   -0.56775  -0.55449  -0.54930  -0.51468  -0.51346
 Alpha  occ. eigenvalues --   -0.50624  -0.49084  -0.47794  -0.47336  -0.45716
 Alpha  occ. eigenvalues --   -0.45570  -0.45122  -0.44749  -0.44087  -0.43900
 Alpha  occ. eigenvalues --   -0.43571  -0.43371  -0.42962  -0.42730  -0.42620
 Alpha  occ. eigenvalues --   -0.41831  -0.41430  -0.41407  -0.41162  -0.40774
 Alpha  occ. eigenvalues --   -0.39746  -0.39060  -0.38313  -0.37829  -0.37463
 Alpha  occ. eigenvalues --   -0.36640  -0.36136  -0.35917  -0.35211  -0.35098
 Alpha  occ. eigenvalues --   -0.34444  -0.34284  -0.34176  -0.34091  -0.33484
 Alpha  occ. eigenvalues --   -0.33332  -0.32490  -0.32094  -0.31596  -0.31382
 Alpha  occ. eigenvalues --   -0.29088  -0.25908  -0.24825  -0.24774  -0.24444
 Alpha  occ. eigenvalues --   -0.24247  -0.24171  -0.23123  -0.23036  -0.19711
 Alpha virt. eigenvalues --   -0.04240  -0.01703  -0.00870  -0.00119   0.00285
 Alpha virt. eigenvalues --    0.00471   0.01223   0.01544   0.01988   0.06181
 Alpha virt. eigenvalues --    0.08434   0.09682   0.09802   0.10254   0.10716

 Mulliken charges:
               1
     1  C   -0.436887
     2  C   -0.065116
     3  C   -0.436966
     4  C    0.102736
     5  C   -0.203614
     6  C   -0.132049
     7  C   -0.136539
     8  C   -0.191403
     9  C    0.076633
    10  C    0.084250
    11  C   -0.251577
    12  C    0.074742
    13  C    0.094601
    14  C   -0.274181
    15  C    0.097852
    16  C    0.085650
    17  C   -0.193416
    18  C   -0.134842
    19  C   -0.134479
    20  C   -0.181168
    21  C    0.081954
    22  C   -0.229835
    23  C    0.155890
    24  C   -0.184288
    25  C   -0.132942
    26  C   -0.126648
    27  C   -0.136528
    28  C   -0.177781
    29  C    0.155285
    30  C   -0.177681
    31  C   -0.136559
    32  C   -0.126789
    33  C   -0.133020
    34  C   -0.183920
    35  H    0.144108
    36  H    0.156890
    37  H    0.143639
    38  H    0.143461
    39  H    0.143792
    40  H    0.159079
    41  H    0.123535
    42  H    0.126328
    43  H    0.127321
    44  H    0.129821
    45  H    0.134251
    46  H    0.125913
    47  H    0.128007
    48  H    0.128214
    49  H    0.128534
    50  H    0.133388
    51  H    0.143308
    52  H    0.128810
    53  H    0.127270
    54  H    0.128253
    55  H    0.138529
    56  H    0.138632
    57  H    0.128357
    58  H    0.127205
    59  H    0.129071
    60  H    0.142918
 Sum of Mulliken charges =  -0.00000

 Dipole moment (field-independent basis, Debye):
    X=              0.2910    Y=              0.2976    Z=             -0.0381  Tot=              0.4180
 Quadrupole moment (field-independent basis, Debye-Ang):
   XX=           -181.3854   YY=           -180.7232   ZZ=           -193.0663
   XY=              3.2162   XZ=              1.9556   YZ=             -1.9396

 Normal termination of Gaussian 16 at Fri Nov  4 23:58:53 2022.
