 Gaussian 16, Revision B.01,
 Gaussian 16:  ES64L-G16RevB.01 20-Dec-2017

 -------------------------------------------------------------------
 #p b3lyp/6-31g(d) 6D 10F nosymm GFInput td=(50-50,nstate=2) SCF=XQC
 -------------------------------------------------------------------

 ------------------------------
 Gaussian input prepared by ASE
 ------------------------------
 Symbolic Z-matrix:
 Charge =  0 Multiplicity = 1

                          Input orientation:
 ---------------------------------------------------------------------
 Center     Atomic      Atomic             Coordinates (Angstroms)
 Number     Number       Type             X           Y           Z
 ---------------------------------------------------------------------
      1          6           0        8.684199    0.532592   -2.008725
      2          6           0        7.909720    0.321076   -0.930659
      3          6           0        6.460790    0.280587   -0.985779
      4          6           0        5.604200    0.067384    0.049716
      5          6           0        6.094335   -0.256703    1.432599
      6          6           0        5.696284    0.498174    2.472263
      7          6           0        6.978787   -1.440327    1.634980
      8          6           0        6.842282   -2.583371    0.828719
      9          6           0        7.626364   -3.714615    1.049629
     10          6           0        8.576071   -3.724896    2.072620
     11          6           0        8.736148   -2.590420    2.870898
     12          6           0        7.948450   -1.461490    2.653144
     13          6           0        4.137942    0.161071   -0.162200
     14          6           0        3.574766    1.021322   -1.121535
     15          6           0        2.205062    1.066136   -1.310859
     16          6           0        1.309959    0.283348   -0.552596
     17          6           0        1.846846   -0.616701    0.404408
     18          6           0        3.244627   -0.633403    0.568902
     19          6           0        1.103417   -1.629031    1.228347
     20          6           0        1.607390   -2.945301    1.172820
     21          6           0        1.118537   -3.968534    1.977788
     22          6           0        0.097203   -3.695548    2.885176
     23          6           0       -0.430890   -2.409306    2.940746
     24          6           0        0.039138   -1.367994    2.121051
     25          6           0       -0.711406   -0.075066    2.258994
     26          6           0       -0.486222    0.776363    3.345770
     27          6           0       -1.334385    1.858535    3.594836
     28          6           0       -2.435688    2.083580    2.770337
     29          6           0       -2.667568    1.247349    1.676398
     30          6           0       -1.807730    0.179482    1.403422
     31          6           0       -1.981100   -0.692693    0.206697
     32          6           0       -3.000410   -1.638073    0.104983
     33          6           0       -3.056891   -2.544676   -0.967716
     34          6           0       -4.122207   -3.584722   -1.048426
     35          6           0       -3.727857   -4.920086   -1.237469
     36          6           0       -4.653024   -5.960389   -1.276301
     37          6           0       -6.009539   -5.679054   -1.119816
     38          6           0       -6.420059   -4.360285   -0.939612
     39          6           0       -5.503237   -3.296352   -0.907950
     40          6           0       -6.043382   -1.912641   -0.763859
     41          6           0       -6.948056   -1.611797    0.267257
     42          6           0       -7.492155   -0.333130    0.394306
     43          6           0       -7.146432    0.668980   -0.513107
     44          6           0       -6.254849    0.380863   -1.549355
     45          6           0       -5.709037   -0.895716   -1.673232
     46          6           0       -2.040440   -2.494462   -1.934309
     47          6           0       -1.032707   -1.532400   -1.865841
     48          6           0       -1.010136   -0.617706   -0.812478
     49          7           0       -0.072414    0.464542   -0.788348
     50          6           0       -0.590459    1.765843   -1.035565
     51          6           0       -1.632054    1.957455   -1.956852
     52          6           0       -2.158012    3.226982   -2.180174
     53          6           0       -1.664740    4.357348   -1.509903
     54          6           0       -2.223816    5.709103   -1.757455
     55          6           0       -2.357081    6.641187   -0.713208
     56          6           0       -2.881867    7.911527   -0.945564
     57          6           0       -3.290384    8.281146   -2.228422
     58          6           0       -3.166193    7.366941   -3.276261
     59          6           0       -2.637849    6.098111   -3.043607
     60          6           0       -0.620777    4.152576   -0.589844
     61          6           0       -0.098636    2.888636   -0.347366
     62          1           0        8.257080    0.679200   -2.998688
     63          1           0        9.766899    0.566849   -1.935354
     64          1           0        8.382838    0.181866    0.038023
     65          1           0        6.032204    0.455317   -1.971719
     66          1           0        5.048570    1.357559    2.329292
     67          1           0        5.988304    0.270333    3.493107
     68          1           0        6.111808   -2.582249    0.025354
     69          1           0        7.496271   -4.589633    0.418045
     70          1           0        9.193006   -4.603780    2.239515
     71          1           0        9.484406   -2.579528    3.659298
     72          1           0        8.100209   -0.575229    3.262694
     73          1           0        4.211217    1.674330   -1.710950
     74          1           0        1.794464    1.736895   -2.057797
     75          1           0        3.647527   -1.296426    1.326550
     76          1           0        2.405711   -3.160347    0.468896
     77          1           0        1.536416   -4.968406    1.896197
     78          1           0       -0.294836   -4.474590    3.533444
     79          1           0       -1.242757   -2.191131    3.629151
     80          1           0        0.347997    0.573575    4.012272
     81          1           0       -1.142772    2.510796    4.442938
     82          1           0       -3.109061    2.912990    2.969233
     83          1           0       -3.511012    1.429840    1.016210
     84          1           0       -3.743239   -1.696840    0.894149
     85          1           0       -2.667335   -5.140849   -1.321230
     86          1           0       -4.313814   -6.983160   -1.416828
     87          1           0       -6.745835   -6.477823   -1.146585
     88          1           0       -7.479169   -4.134368   -0.850743
     89          1           0       -7.211292   -2.384911    0.984492
     90          1           0       -8.183252   -0.120260    1.205784
     91          1           0       -7.568961    1.665465   -0.416286
     92          1           0       -5.986610    1.152245   -2.266532
     93          1           0       -5.021873   -1.112692   -2.485410
     94          1           0       -2.062953   -3.189063   -2.769623
     95          1           0       -0.276130   -1.467911   -2.642774
     96          1           0       -2.037745    1.105915   -2.492628
     97          1           0       -2.979863    3.337654   -2.882401
     98          1           0       -2.069152    6.356449    0.295049
     99          1           0       -2.980556    8.611300   -0.119538
    100          1           0       -3.700420    9.271027   -2.409707
    101          1           0       -3.471926    7.645507   -4.281577
    102          1           0       -2.519206    5.406616   -3.873303
    103          1           0       -0.202801    5.002544   -0.057578
    104          1           0        0.694818    2.763571    0.381267
 ---------------------------------------------------------------------

 SCF Done:  E(RB3LYP) =  -2367.00635840     A.U. after   16 cycles

 Excitation energies and oscillator strengths:

 Excited state symmetry could not be determined.
 Excited State   1:      Triplet-?Sym    2.0434 eV  606.74 nm  f=0.0000  <S**2>=2.000
     204 -> 206       -0.38194
     205 -> 206        0.53420
 This state for optimization and/or second-order correction.
 Total Energy, E(TD-HF/TD-DFT) =  -2366.93126362
 Copying the excited state density for this state as the 1-particle RhoCI density.

 Excited state symmetry could not be determined.
 Excited State   2:      Triplet-?Sym    2.7927 eV  443.96 nm  f=0.0000  <S**2>=2.000
     202 -> 208       -0.10866
     204 -> 206        0.27560
     204 -> 207        0.10170
     205 -> 206        0.21450
     205 -> 207        0.31120
     205 -> 208        0.35536
     205 -> 211        0.10205

 Excited state symmetry could not be determined.
 Excited State   3:      Singlet-?Sym    3.1441 eV  394.34 nm  f=0.5765  <S**2>=0.000
     205 -> 206        0.69175

 Excited state symmetry could not be determined.
 Excited State   4:      Singlet-?Sym    3.2950 eV  376.28 nm  f=0.1696  <S**2>=0.000
     205 -> 207        0.69112

 Alpha  occ. eigenvalues --  -14.35931 -10.23051 -10.22480 -10.22430 -10.20169
 Alpha  occ. eigenvalues --  -10.20112 -10.20016 -10.19981 -10.19924 -10.19799
 Alpha  occ. eigenvalues --  -10.19789 -10.19783 -10.19643 -10.19625 -10.19589
 Alpha  occ. eigenvalues --  -10.19455 -10.19439 -10.19372 -10.19208 -10.19153
 Alpha  occ. eigenvalues --  -10.19098 -10.19090 -10.19048 -10.18982 -10.18976
 Alpha  occ. eigenvalues --  -10.18966 -10.18957 -10.18910 -10.18905 -10.18861
 Alpha  occ. eigenvalues --  -10.18833 -10.18825 -10.18767 -10.18753 -10.18715
 Alpha  occ. eigenvalues --  -10.18668 -10.18637 -10.18624 -10.18597 -10.18562
 Alpha  occ. eigenvalues --  -10.18542 -10.18539 -10.18519 -10.18512 -10.18510
 Alpha  occ. eigenvalues --  -10.18495 -10.18485 -10.18483 -10.18463 -10.18439
 Alpha  occ. eigenvalues --  -10.18434 -10.18433 -10.18407 -10.18382 -10.18358
 Alpha  occ. eigenvalues --  -10.18321 -10.18256 -10.18255 -10.18159 -10.17978
 Alpha  occ. eigenvalues --  -10.17787  -0.96064  -0.87458  -0.86821  -0.86381
 Alpha  occ. eigenvalues --   -0.85884  -0.85636  -0.84793  -0.84207  -0.83902
 Alpha  occ. eigenvalues --   -0.83340  -0.81619  -0.78375  -0.78040  -0.77497
 Alpha  occ. eigenvalues --   -0.77406  -0.76970  -0.76634  -0.76199  -0.75077
 Alpha  occ. eigenvalues --   -0.74351  -0.74202  -0.74107  -0.73642  -0.72876
 Alpha  occ. eigenvalues --   -0.72468  -0.72118  -0.72009  -0.71663  -0.71180
 Alpha  occ. eigenvalues --   -0.70727  -0.68841  -0.64004  -0.63279  -0.62795
 Alpha  occ. eigenvalues --   -0.62205  -0.61864  -0.61497  -0.61327  -0.61061
 Alpha  occ. eigenvalues --   -0.60714  -0.60073  -0.59527  -0.59096  -0.58749
 Alpha  occ. eigenvalues --   -0.58673  -0.58176  -0.57634  -0.57130  -0.56190
 Alpha  occ. eigenvalues --   -0.55957  -0.55644  -0.53242  -0.52898  -0.52694
 Alpha  occ. eigenvalues --   -0.52322  -0.51426  -0.50970  -0.50155  -0.49807
 Alpha  occ. eigenvalues --   -0.48982  -0.48142  -0.47820  -0.47299  -0.47137
 Alpha  occ. eigenvalues --   -0.46891  -0.46079  -0.45717  -0.45584  -0.45336
 Alpha  occ. eigenvalues --   -0.45027  -0.45004  -0.44976  -0.44203  -0.43971
 Alpha  occ. eigenvalues --   -0.43776  -0.43708  -0.43618  -0.43344  -0.43225
 Alpha  occ. eigenvalues --   -0.42902  -0.42596  -0.42398  -0.41961  -0.41881
 Alpha  occ. eigenvalues --   -0.41791  -0.41678  -0.41658  -0.41421  -0.41226
 Alpha  occ. eigenvalues --   -0.41098  -0.40990  -0.40743  -0.39763  -0.38747
 Alpha  occ. eigenvalues --   -0.38136  -0.37669  -0.37608  -0.37173  -0.37091
 Alpha  occ. eigenvalues --   -0.36882  -0.36785  -0.36600  -0.36415  -0.36235
 Alpha  occ. eigenvalues --   -0.35872  -0.35688  -0.35515  -0.35133  -0.34909
 Alpha  occ. eigenvalues --   -0.34816  -0.34755  -0.34673  -0.34206  -0.33881
 Alpha  occ. eigenvalues --   -0.33579  -0.33548  -0.33438  -0.33352  -0.32911
 Alpha  occ. eigenvalues --   -0.32584  -0.32450  -0.32310  -0.31710  -0.29738
 Alpha  occ. eigenvalues --   -0.28504  -0.27424  -0.27175  -0.26712  -0.25892
 Alpha  occ. eigenvalues --   -0.25811  -0.24869  -0.24722  -0.24686  -0.24564
 Alpha  occ. eigenvalues --   -0.24418  -0.24042  -0.23884  -0.23724  -0.23167
 Alpha  occ. eigenvalues --   -0.22964  -0.22370  -0.21916  -0.20561  -0.17596
 Alpha virt. eigenvalues --   -0.04664  -0.03537  -0.02655  -0.01980  -0.01823
 Alpha virt. eigenvalues --   -0.01367  -0.01063  -0.00298  -0.00064   0.00182
 Alpha virt. eigenvalues --    0.00252   0.00320   0.00694   0.01251   0.01714

 Mulliken charges:
               1
     1  C   -0.357997
     2  C   -0.046267
     3  C   -0.184018
     4  C    0.009280
     5  C    0.060729
     6  C   -0.383660
     7  C    0.107090
     8  C   -0.170910
     9  C   -0.130851
    10  C   -0.127288
    11  C   -0.132514
    12  C   -0.180689
    13  C    0.124285
    14  C   -0.192656
    15  C   -0.181509
    16  C    0.271260
    17  C    0.061654
    18  C   -0.263732
    19  C    0.047760
    20  C   -0.180605
    21  C   -0.127404
    22  C   -0.127083
    23  C   -0.155352
    24  C    0.008482
    25  C    0.037683
    26  C   -0.177581
    27  C   -0.127938
    28  C   -0.128317
    29  C   -0.164202
    30  C    0.042155
    31  C    0.066250
    32  C   -0.211701
    33  C    0.075557
    34  C    0.041508
    35  C   -0.178133
    36  C   -0.129536
    37  C   -0.128273
    38  C   -0.178113
    39  C    0.042461
    40  C    0.056248
    41  C   -0.168328
    42  C   -0.133796
    43  C   -0.128015
    44  C   -0.135808
    45  C   -0.151327
    46  C   -0.185928
    47  C   -0.158084
    48  C    0.205500
    49  N   -0.664647
    50  C    0.296527
    51  C   -0.180641
    52  C   -0.191277
    53  C    0.095803
    54  C    0.089770
    55  C   -0.175783
    56  C   -0.133922
    57  C   -0.128327
    58  C   -0.133954
    59  C   -0.175736
    60  C   -0.190300
    61  C   -0.151393
    62  H    0.137821
    63  H    0.142645
    64  H    0.140868
    65  H    0.125473
    66  H    0.153622
    67  H    0.145666
    68  H    0.138452
    69  H    0.129782
    70  H    0.128829
    71  H    0.129484
    72  H    0.130712
    73  H    0.133316
    74  H    0.147816
    75  H    0.148565
    76  H    0.136332
    77  H    0.128597
    78  H    0.129438
    79  H    0.135285
    80  H    0.134646
    81  H    0.127444
    82  H    0.129107
    83  H    0.146017
    84  H    0.146054
    85  H    0.138252
    86  H    0.131082
    87  H    0.131162
    88  H    0.136380
    89  H    0.132672
    90  H    0.130411
    91  H    0.130892
    92  H    0.131399
    93  H    0.137269
    94  H    0.135312
    95  H    0.140974
    96  H    0.139981
    97  H    0.128597
    98  H    0.130379
    99  H    0.127948
   100  H    0.127235
   101  H    0.128064
   102  H    0.129481
   103  H    0.131936
   104  H    0.148200
 Sum of Mulliken charges =  -0.00000

 Dipole moment (field-independent basis, Debye):
    X=             -1.0635    Y=             -1.0281    Z=              0.4072  Tot=              1.5343
 Quadrupole moment (field-independent basis, Debye-Ang):
   XX=           -333.3413   YY=           -323.8380   ZZ=           -333.0444
   XY=             -6.1011   XZ=              2.1492   YZ=              3.0185

 Normal termination of Gaussian 16 at Sat Nov  5 12:03:34 2022.
