 Gaussian 16, Revision B.01,
 Gaussian 16:  ES64L-G16RevB.01 20-Dec-2017

 -----------------------------
 #p b3lyp/6-31g(d) opt SCF=XQC
 -----------------------------

 ------------------------------
 Gaussian input prepared by ASE
 ------------------------------
 Symbolic Z-matrix:
 Charge =  0 Multiplicity = 1

 SCF Done:  E(RB3LYP) =  -2366.98000379     A.U. after   16 cycles
 SCF Done:  E(RB3LYP) =  -2367.00214453     A.U. after   15 cycles
 SCF Done:  E(RB3LYP) =  -2367.00486333     A.U. after   13 cycles
 SCF Done:  E(RB3LYP) =  -2367.00606563     A.U. after   13 cycles
 SCF Done:  E(RB3LYP) =  -2367.00626754     A.U. after   11 cycles
 SCF Done:  E(RB3LYP) =  -2367.00634226     A.U. after   11 cycles
 SCF Done:  E(RB3LYP) =  -2367.00635859     A.U. after   10 cycles
 SCF Done:  E(RB3LYP) =  -2367.00636151     A.U. after   10 cycles
 SCF Done:  E(RB3LYP) =  -2367.00636218     A.U. after    8 cycles
 SCF Done:  E(RB3LYP) =  -2367.00636252     A.U. after    8 cycles
 SCF Done:  E(RB3LYP) =  -2367.00636263     A.U. after    7 cycles
 SCF Done:  E(RB3LYP) =  -2367.00636268     A.U. after    7 cycles
 SCF Done:  E(RB3LYP) =  -2367.00636270     A.U. after    6 cycles
 SCF Done:  E(RB3LYP) =  -2367.00636272     A.U. after    6 cycles
 SCF Done:  E(RB3LYP) =  -2367.00636272     A.U. after    6 cycles
 SCF Done:  E(RB3LYP) =  -2367.00636273     A.U. after    6 cycles
 SCF Done:  E(RB3LYP) =  -2367.00636273     A.U. after    6 cycles
 Optimization completed.
    -- Stationary point found.

                         Standard orientation:
 ---------------------------------------------------------------------
 Center     Atomic      Atomic             Coordinates (Angstroms)
 Number     Number       Type             X           Y           Z
 ---------------------------------------------------------------------
      1          6           0        8.129796    2.545906   -2.985799
      2          6           0        7.585043    2.013478   -1.878303
      3          6           0        6.172252    1.710010   -1.751791
      4          6           0        5.540938    1.167617   -0.675360
      5          6           0        6.294831    0.713723    0.542530
      6          6           0        5.953969    1.193788    1.751883
      7          6           0        7.380025   -0.298477    0.394254
      8          6           0        7.301195   -1.294319   -0.594342
      9          6           0        8.283223   -2.277915   -0.701388
     10          6           0        9.375320   -2.280828    0.168023
     11          6           0        9.477185   -1.287478    1.144132
     12          6           0        8.492523   -0.307336    1.254267
     13          6           0        4.064139    1.017094   -0.672943
     14          6           0        3.221157    1.904583   -1.365232
     15          6           0        1.849914    1.721204   -1.362885
     16          6           0        1.228247    0.667175   -0.661826
     17          6           0        2.051698   -0.263389    0.023864
     18          6           0        3.441696   -0.043330   -0.000798
     19          6           0        1.625452   -1.521914    0.724438
     20          6           0        2.319892   -2.690849    0.348959
     21          6           0        2.140136   -3.908659    0.995939
     22          6           0        1.249042   -3.990215    2.063786
     23          6           0        0.535988   -2.854892    2.436593
     24          6           0        0.692106   -1.620665    1.781255
     25          6           0       -0.225201   -0.534749    2.264311
     26          6           0        0.032627    0.148468    3.457400
     27          6           0       -0.927586    0.993339    4.020157
     28          6           0       -2.169775    1.141976    3.405188
     29          6           0       -2.437741    0.473404    2.208960
     30          6           0       -1.472356   -0.351396    1.624226
     31          6           0       -1.694233   -1.026385    0.313479
     32          6           0       -2.550042   -2.116337    0.162885
     33          6           0       -2.632446   -2.823450   -1.049139
     34          6           0       -3.514319   -4.017211   -1.191761
     35          6           0       -2.945163   -5.202832   -1.686546
     36          6           0       -3.683777   -6.377432   -1.806683
     37          6           0       -5.024325   -6.387735   -1.423808
     38          6           0       -5.607972   -5.219734   -0.938747
     39          6           0       -4.882466   -4.022640   -0.819901
     40          6           0       -5.608653   -2.810204   -0.340499
     41          6           0       -6.370620   -2.863618    0.837931
     42          6           0       -7.086432   -1.750684    1.280837
     43          6           0       -7.059206   -0.563082    0.548712
     44          6           0       -6.312874   -0.498963   -0.630531
     45          6           0       -5.595217   -1.610086   -1.070170
     46          6           0       -1.807982   -2.420162   -2.111031
     47          6           0       -0.971534   -1.310657   -1.988014
     48          6           0       -0.926584   -0.598862   -0.788816
     49          7           0       -0.184918    0.621165   -0.676440
     50          6           0       -0.939756    1.823947   -0.596398
     51          6           0       -2.134122    1.967812   -1.319722
     52          6           0       -2.887646    3.134335   -1.221604
     53          6           0       -2.481553    4.208178   -0.413979
     54          6           0       -3.284545    5.452082   -0.319123
     55          6           0       -3.395578    6.152811    0.894813
     56          6           0       -4.149559    7.321864    0.984155
     57          6           0       -4.815139    7.818373   -0.138213
     58          6           0       -4.716413    7.133832   -1.350986
     59          6           0       -3.959165    5.966861   -1.440206
     60          6           0       -1.282953    4.052234    0.305284
     61          6           0       -0.530939    2.887170    0.227372
     62          1           0        7.529699    2.773820   -3.864372
     63          1           0        9.190065    2.771121   -3.048264
     64          1           0        8.225266    1.804990   -1.024948
     65          1           0        5.566833    1.964176   -2.620791
     66          1           0        5.161296    1.926992    1.864120
     67          1           0        6.440708    0.856575    2.662203
     68          1           0        6.459617   -1.295861   -1.280442
     69          1           0        8.195629   -3.042659   -1.468833
     70          1           0       10.145068   -3.042737    0.079245
     71          1           0       10.331703   -1.268436    1.815712
     72          1           0        8.595814    0.476088    1.999665
     73          1           0        3.639436    2.755781   -1.893819
     74          1           0        1.220560    2.418406   -1.905331
     75          1           0        4.064043   -0.736305    0.554565
     76          1           0        3.017546   -2.629614   -0.480860
     77          1           0        2.695373   -4.783357    0.667851
     78          1           0        1.098608   -4.927108    2.593362
     79          1           0       -0.177876   -2.913044    3.253689
     80          1           0        0.985599   -0.002456    3.957734
     81          1           0       -0.708951    1.517726    4.946792
     82          1           0       -2.927108    1.783761    3.847309
     83          1           0       -3.395386    0.601886    1.712013
     84          1           0       -3.135565   -2.446354    1.015107
     85          1           0       -1.890732   -5.202063   -1.948527
     86          1           0       -3.210977   -7.279211   -2.186323
     87          1           0       -5.616198   -7.295030   -1.509725
     88          1           0       -6.661034   -5.216110   -0.670980
     89          1           0       -6.385445   -3.782072    1.419004
     90          1           0       -7.661911   -1.811893    2.200892
     91          1           0       -7.615949    0.304897    0.891553
     92          1           0       -6.292889    0.418750   -1.212535
     93          1           0       -5.023016   -1.553475   -1.991195
     94          1           0       -1.853092   -2.955736   -3.055410
     95          1           0       -0.371569   -0.974568   -2.829013
     96          1           0       -2.478236    1.157610   -1.953693
     97          1           0       -3.819478    3.204493   -1.776200
     98          1           0       -2.905661    5.761899    1.782356
     99          1           0       -4.224771    7.841122    1.936235
    100          1           0       -5.403777    8.729157   -0.068674
    101          1           0       -5.222185    7.514915   -2.234560
    102          1           0       -3.866463    5.459999   -2.396832
    103          1           0       -0.927195    4.863827    0.933941
    104          1           0        0.379864    2.793278    0.808526
 ---------------------------------------------------------------------

 The electronic state is 1-A.
 Alpha  occ. eigenvalues --  -14.35931 -10.23051 -10.22480 -10.22430 -10.20169
 Alpha  occ. eigenvalues --  -10.20112 -10.20016 -10.19981 -10.19924 -10.19799
 Alpha  occ. eigenvalues --  -10.19789 -10.19783 -10.19643 -10.19625 -10.19589
 Alpha  occ. eigenvalues --  -10.19455 -10.19439 -10.19372 -10.19208 -10.19153
 Alpha  occ. eigenvalues --  -10.19098 -10.19090 -10.19048 -10.18982 -10.18976
 Alpha  occ. eigenvalues --  -10.18966 -10.18957 -10.18910 -10.18905 -10.18861
 Alpha  occ. eigenvalues --  -10.18833 -10.18825 -10.18767 -10.18753 -10.18716
 Alpha  occ. eigenvalues --  -10.18668 -10.18637 -10.18624 -10.18597 -10.18562
 Alpha  occ. eigenvalues --  -10.18542 -10.18539 -10.18519 -10.18513 -10.18510
 Alpha  occ. eigenvalues --  -10.18495 -10.18485 -10.18483 -10.18463 -10.18439
 Alpha  occ. eigenvalues --  -10.18434 -10.18433 -10.18407 -10.18382 -10.18358
 Alpha  occ. eigenvalues --  -10.18321 -10.18256 -10.18255 -10.18159 -10.17978
 Alpha  occ. eigenvalues --  -10.17787  -0.96064  -0.87458  -0.86821  -0.86381
 Alpha  occ. eigenvalues --   -0.85884  -0.85636  -0.84793  -0.84207  -0.83902
 Alpha  occ. eigenvalues --   -0.83340  -0.81619  -0.78375  -0.78040  -0.77497
 Alpha  occ. eigenvalues --   -0.77406  -0.76970  -0.76634  -0.76199  -0.75077
 Alpha  occ. eigenvalues --   -0.74351  -0.74202  -0.74107  -0.73642  -0.72876
 Alpha  occ. eigenvalues --   -0.72468  -0.72118  -0.72009  -0.71663  -0.71180
 Alpha  occ. eigenvalues --   -0.70727  -0.68841  -0.64004  -0.63279  -0.62795
 Alpha  occ. eigenvalues --   -0.62205  -0.61864  -0.61497  -0.61327  -0.61061
 Alpha  occ. eigenvalues --   -0.60714  -0.60073  -0.59527  -0.59096  -0.58749
 Alpha  occ. eigenvalues --   -0.58673  -0.58176  -0.57634  -0.57130  -0.56190
 Alpha  occ. eigenvalues --   -0.55957  -0.55644  -0.53242  -0.52898  -0.52694
 Alpha  occ. eigenvalues --   -0.52322  -0.51426  -0.50970  -0.50155  -0.49807
 Alpha  occ. eigenvalues --   -0.48982  -0.48142  -0.47820  -0.47299  -0.47137
 Alpha  occ. eigenvalues --   -0.46891  -0.46079  -0.45717  -0.45584  -0.45336
 Alpha  occ. eigenvalues --   -0.45027  -0.45003  -0.44976  -0.44203  -0.43971
 Alpha  occ. eigenvalues --   -0.43776  -0.43708  -0.43618  -0.43344  -0.43225
 Alpha  occ. eigenvalues --   -0.42902  -0.42596  -0.42398  -0.41961  -0.41881
 Alpha  occ. eigenvalues --   -0.41791  -0.41678  -0.41658  -0.41421  -0.41226
 Alpha  occ. eigenvalues --   -0.41098  -0.40990  -0.40743  -0.39763  -0.38747
 Alpha  occ. eigenvalues --   -0.38136  -0.37669  -0.37608  -0.37173  -0.37091
 Alpha  occ. eigenvalues --   -0.36882  -0.36785  -0.36601  -0.36415  -0.36235
 Alpha  occ. eigenvalues --   -0.35872  -0.35688  -0.35515  -0.35133  -0.34909
 Alpha  occ. eigenvalues --   -0.34816  -0.34755  -0.34673  -0.34206  -0.33881
 Alpha  occ. eigenvalues --   -0.33579  -0.33548  -0.33438  -0.33352  -0.32911
 Alpha  occ. eigenvalues --   -0.32584  -0.32450  -0.32310  -0.31710  -0.29738
 Alpha  occ. eigenvalues --   -0.28504  -0.27424  -0.27175  -0.26712  -0.25892
 Alpha  occ. eigenvalues --   -0.25811  -0.24869  -0.24722  -0.24686  -0.24564
 Alpha  occ. eigenvalues --   -0.24418  -0.24042  -0.23885  -0.23724  -0.23167
 Alpha  occ. eigenvalues --   -0.22964  -0.22370  -0.21916  -0.20561  -0.17596
 Alpha virt. eigenvalues --   -0.04664  -0.03537  -0.02655  -0.01980  -0.01823
 Alpha virt. eigenvalues --   -0.01367  -0.01063  -0.00298  -0.00064   0.00182
 Alpha virt. eigenvalues --    0.00252   0.00320   0.00694   0.01251   0.01714

 Mulliken charges:
               1
     1  C   -0.357998
     2  C   -0.046272
     3  C   -0.184000
     4  C    0.009280
     5  C    0.060743
     6  C   -0.383658
     7  C    0.107045
     8  C   -0.170877
     9  C   -0.130861
    10  C   -0.127287
    11  C   -0.132518
    12  C   -0.180687
    13  C    0.124269
    14  C   -0.192657
    15  C   -0.181517
    16  C    0.271267
    17  C    0.061647
    18  C   -0.263719
    19  C    0.047736
    20  C   -0.180587
    21  C   -0.127409
    22  C   -0.127100
    23  C   -0.155336
    24  C    0.008510
    25  C    0.037705
    26  C   -0.177593
    27  C   -0.127935
    28  C   -0.128300
    29  C   -0.164208
    30  C    0.042142
    31  C    0.066260
    32  C   -0.211740
    33  C    0.075577
    34  C    0.041505
    35  C   -0.178126
    36  C   -0.129537
    37  C   -0.128273
    38  C   -0.178115
    39  C    0.042465
    40  C    0.056258
    41  C   -0.168331
    42  C   -0.133791
    43  C   -0.128020
    44  C   -0.135796
    45  C   -0.151351
    46  C   -0.185914
    47  C   -0.158112
    48  C    0.205523
    49  N   -0.664659
    50  C    0.296531
    51  C   -0.180633
    52  C   -0.191275
    53  C    0.095813
    54  C    0.089764
    55  C   -0.175785
    56  C   -0.133924
    57  C   -0.128328
    58  C   -0.133949
    59  C   -0.175736
    60  C   -0.190313
    61  C   -0.151399
    62  H    0.137821
    63  H    0.142645
    64  H    0.140868
    65  H    0.125470
    66  H    0.153621
    67  H    0.145665
    68  H    0.138451
    69  H    0.129783
    70  H    0.128830
    71  H    0.129486
    72  H    0.130714
    73  H    0.133315
    74  H    0.147820
    75  H    0.148565
    76  H    0.136328
    77  H    0.128597
    78  H    0.129439
    79  H    0.135281
    80  H    0.134644
    81  H    0.127443
    82  H    0.129102
    83  H    0.146014
    84  H    0.146057
    85  H    0.138248
    86  H    0.131083
    87  H    0.131162
    88  H    0.136380
    89  H    0.132671
    90  H    0.130412
    91  H    0.130892
    92  H    0.131400
    93  H    0.137271
    94  H    0.135313
    95  H    0.140973
    96  H    0.139975
    97  H    0.128594
    98  H    0.130383
    99  H    0.127948
   100  H    0.127235
   101  H    0.128064
   102  H    0.129481
   103  H    0.131938
   104  H    0.148201
 Sum of Mulliken charges =  -0.00000

 Dipole moment (field-independent basis, Debye):
    X=             -0.8029    Y=             -1.2640    Z=              0.3338  Tot=              1.5342
 Quadrupole moment (field-independent basis, Debye-Ang):
   XX=           -330.7846   YY=           -327.9202   ZZ=           -331.7996
   XY=             -6.9395   XZ=              0.1111   YZ=              5.4938

 1\1\GINC-NODE90\FOpt\RB3LYP\6-31G(d)\C60H43N1\WYKGROUP\05-Nov-2022\0\\
 #p b3lyp/6-31g(d) opt SCF=XQC\\Gaussian input prepared by ASE\\0,1\C,8
 .6841993998,0.5325924174,-2.0087248124\C,7.9097200838,0.3210760572,-0.
 9306589515\C,6.4607897803,0.2805870284,-0.9857786477\C,5.6042001322,0.
 0673844721,0.0497160905\C,6.0943354319,-0.2567026302,1.4325993683\C,5.
 6962835081,0.4981737429,2.4722625937\C,6.9787873342,-1.4403273917,1.63
 49797791\C,6.8422823475,-2.5833712293,0.8287191075\C,7.62636361,-3.714
 6147424,1.049629187\C,8.5760707818,-3.7248964276,2.0726199978\C,8.7361

 Normal termination of Gaussian 16 at Sat Nov  5 01:48:55 2022.
