 Gaussian 16, Revision B.01,
 Gaussian 16:  ES64L-G16RevB.01 20-Dec-2017

 -----------------------------
 #p b3lyp/6-31g(d) opt SCF=XQC
 -----------------------------

 ------------------------------
 Gaussian input prepared by ASE
 ------------------------------
 Symbolic Z-matrix:
 Charge =  0 Multiplicity = 1

 SCF Done:  E(RB3LYP) =  -1948.52335401     A.U. after   17 cycles
 SCF Done:  E(RB3LYP) =  -1948.53874974     A.U. after   15 cycles
 SCF Done:  E(RB3LYP) =  -1948.53779066     A.U. after   16 cycles
 SCF Done:  E(RB3LYP) =  -1948.54732102     A.U. after   13 cycles
 SCF Done:  E(RB3LYP) =  -1948.54832674     A.U. after   13 cycles
 SCF Done:  E(RB3LYP) =  -1948.54885709     A.U. after   12 cycles
 SCF Done:  E(RB3LYP) =  -1948.54905918     A.U. after   12 cycles
 SCF Done:  E(RB3LYP) =  -1948.54914227     A.U. after   12 cycles
 SCF Done:  E(RB3LYP) =  -1948.54918561     A.U. after   11 cycles
 SCF Done:  E(RB3LYP) =  -1948.54919770     A.U. after   10 cycles
 SCF Done:  E(RB3LYP) =  -1948.54919880     A.U. after    8 cycles
 SCF Done:  E(RB3LYP) =  -1948.54919919     A.U. after    7 cycles
 SCF Done:  E(RB3LYP) =  -1948.54919933     A.U. after    7 cycles
 SCF Done:  E(RB3LYP) =  -1948.54919943     A.U. after    7 cycles
 Optimization completed.
    -- Stationary point found.

                         Standard orientation:
 ---------------------------------------------------------------------
 Center     Atomic      Atomic             Coordinates (Angstroms)
 Number     Number       Type             X           Y           Z
 ---------------------------------------------------------------------
      1          6           0       -1.734656    6.213885   -0.386490
      2          6           0       -0.709026    5.561238   -1.074981
      3          6           0       -0.352025    4.260246   -0.729551
      4          6           0       -1.020924    3.595928    0.311209
      5          6           0       -0.640984    2.213517    0.683465
      6          7           0       -1.370714    1.583240    1.613912
      7          6           0       -0.978791    0.336990    1.924783
      8          6           0       -1.731100   -0.393071    2.970190
      9          6           0       -1.295512   -1.656304    3.401911
     10          6           0       -1.998306   -2.339134    4.391327
     11          6           0       -3.143583   -1.772679    4.956982
     12          6           0       -3.582899   -0.516841    4.530252
     13          6           0       -2.880515    0.171863    3.544589
     14          7           0        0.070229   -0.285091    1.362012
     15          6           0        0.714776    0.423981    0.435288
     16          7           0        1.826851   -0.181093   -0.179962
     17          6           0        3.106342    0.417180   -0.196483
     18          6           0        3.423788    1.783419   -0.032544
     19          6           0        4.749078    2.141262   -0.048430
     20          6           0        5.790319    1.184882   -0.227061
     21          6           0        7.149561    1.589848   -0.247624
     22          6           0        8.164582    0.675245   -0.421644
     23          6           0        7.850003   -0.691026   -0.586196
     24          6           0        6.538022   -1.118126   -0.571900
     25          6           0        5.466832   -0.204970   -0.391439
     26          6           0        4.082634   -0.573799   -0.361333
     27          6           0        3.381971   -1.843923   -0.468812
     28          6           0        3.802226   -3.171053   -0.643584
     29          6           0        2.848669   -4.175913   -0.749621
     30          6           0        1.483629   -3.869054   -0.746813
     31          6           0        1.012356   -2.557513   -0.597416
     32          6           0       -0.439493   -2.291879   -0.783799
     33          6           0       -1.398565   -3.081490   -0.111159
     34          6           0       -2.765089   -2.914042   -0.315146
     35          6           0       -3.198216   -1.936443   -1.217081
     36          6           0       -2.229714   -1.161101   -1.882487
     37          6           0       -0.865089   -1.312029   -1.695914
     38          8           0       -2.809174   -0.253859   -2.741009
     39          6           0       -4.168920   -0.440121   -2.627237
     40          6           0       -5.131571    0.276141   -3.324020
     41          6           0       -6.464363   -0.057751   -3.074722
     42          6           0       -6.805017   -1.069973   -2.161972
     43          6           0       -5.821545   -1.777187   -1.472149
     44          6           0       -4.478615   -1.459657   -1.706097
     45          6           0        1.991510   -1.566266   -0.383376
     46          7           0        0.416881    1.667159    0.055623
     47          6           0       -2.053471    4.256103    0.995922
     48          6           0       -2.405288    5.557872    0.648952
     49          1           0       -2.011466    7.229524   -0.656879
     50          1           0       -0.188250    6.066362   -1.883842
     51          1           0        0.437355    3.742130   -1.262507
     52          1           0       -0.404481   -2.083006    2.955733
     53          1           0       -1.651852   -3.313955    4.723781
     54          1           0       -3.691023   -2.307359    5.728894
     55          1           0       -4.473510   -0.073697    4.967479
     56          1           0       -3.210627    1.147263    3.205951
     57          1           0        2.639944    2.519557    0.084543
     58          1           0        5.023976    3.186407    0.069902
     59          1           0        7.376467    2.646196   -0.122089
     60          1           0        9.201254    1.000159   -0.434438
     61          1           0        8.648266   -1.414949   -0.727407
     62          1           0        6.329635   -2.171325   -0.708247
     63          1           0        4.852816   -3.427226   -0.698485
     64          1           0        3.164357   -5.207062   -0.880844
     65          1           0        0.758235   -4.658756   -0.919121
     66          1           0       -1.052469   -3.825732    0.599335
     67          1           0       -3.478803   -3.529485    0.225188
     68          1           0       -0.156867   -0.702570   -2.246864
     69          1           0       -4.853128    1.055560   -4.025418
     70          1           0       -7.251746    0.477218   -3.598160
     71          1           0       -7.852156   -1.303855   -1.992217
     72          1           0       -6.093084   -2.558257   -0.767429
     73          1           0       -2.566574    3.736488    1.797014
     74          1           0       -3.203733    6.062211    1.186352
 ---------------------------------------------------------------------

 The electronic state is 1-A.
 Alpha  occ. eigenvalues --  -19.20544 -14.39048 -14.34260 -14.34088 -14.33860
 Alpha  occ. eigenvalues --  -10.31030 -10.28014 -10.27915 -10.24564 -10.24527
 Alpha  occ. eigenvalues --  -10.22929 -10.22920 -10.20480 -10.20329 -10.20260
 Alpha  occ. eigenvalues --  -10.20175 -10.19963 -10.19926 -10.19890 -10.19726
 Alpha  occ. eigenvalues --  -10.19672 -10.19589 -10.19571 -10.19568 -10.19565
 Alpha  occ. eigenvalues --  -10.19558 -10.19513 -10.19509 -10.19477 -10.19450
 Alpha  occ. eigenvalues --  -10.19446 -10.19419 -10.19391 -10.19359 -10.19303
 Alpha  occ. eigenvalues --  -10.19289 -10.19225 -10.18970 -10.18959 -10.18929
 Alpha  occ. eigenvalues --  -10.18869 -10.18809 -10.18761 -10.18736 -10.18698
 Alpha  occ. eigenvalues --  -10.18553 -10.18532 -10.18514  -1.10134  -1.03848
 Alpha  occ. eigenvalues --   -0.98762  -0.91339  -0.90403  -0.86715  -0.86357
 Alpha  occ. eigenvalues --   -0.85670  -0.85629  -0.85544  -0.84348  -0.81577
 Alpha  occ. eigenvalues --   -0.79713  -0.78099  -0.77010  -0.76244  -0.75913
 Alpha  occ. eigenvalues --   -0.75307  -0.74974  -0.74876  -0.74732  -0.73717
 Alpha  occ. eigenvalues --   -0.73471  -0.71446  -0.70900  -0.68083  -0.67703
 Alpha  occ. eigenvalues --   -0.64888  -0.63645  -0.62503  -0.62208  -0.61619
 Alpha  occ. eigenvalues --   -0.61235  -0.60611  -0.60320  -0.59361  -0.58587
 Alpha  occ. eigenvalues --   -0.58462  -0.57616  -0.56712  -0.55210  -0.54751
 Alpha  occ. eigenvalues --   -0.53006  -0.52267  -0.51938  -0.51647  -0.51120
 Alpha  occ. eigenvalues --   -0.49993  -0.49269  -0.49161  -0.47811  -0.47101
 Alpha  occ. eigenvalues --   -0.46860  -0.46224  -0.46027  -0.45656  -0.45453
 Alpha  occ. eigenvalues --   -0.44894  -0.44731  -0.44324  -0.44004  -0.43851
 Alpha  occ. eigenvalues --   -0.43602  -0.43424  -0.43127  -0.42629  -0.42592
 Alpha  occ. eigenvalues --   -0.42420  -0.42225  -0.41695  -0.41332  -0.41193
 Alpha  occ. eigenvalues --   -0.40796  -0.39918  -0.38612  -0.38366  -0.37943
 Alpha  occ. eigenvalues --   -0.37620  -0.37368  -0.36981  -0.36892  -0.36404
 Alpha  occ. eigenvalues --   -0.35968  -0.35807  -0.35476  -0.35294  -0.35126
 Alpha  occ. eigenvalues --   -0.34857  -0.34671  -0.34541  -0.34335  -0.33843
 Alpha  occ. eigenvalues --   -0.33280  -0.32990  -0.32549  -0.32226  -0.30085
 Alpha  occ. eigenvalues --   -0.29573  -0.27972  -0.26951  -0.26803  -0.25842
 Alpha  occ. eigenvalues --   -0.25587  -0.25404  -0.25010  -0.24884  -0.24730
 Alpha  occ. eigenvalues --   -0.24503  -0.22406  -0.21940  -0.20759  -0.19666
 Alpha virt. eigenvalues --   -0.07110  -0.05856  -0.04461  -0.03317  -0.00664
 Alpha virt. eigenvalues --   -0.00463  -0.00389  -0.00007   0.00195   0.00528
 Alpha virt. eigenvalues --    0.01634   0.02764   0.03616   0.04288   0.05880

 Mulliken charges:
               1
     1  C   -0.115679
     2  C   -0.138734
     3  C   -0.160339
     4  C    0.074516
     5  C    0.452849
     6  N   -0.543238
     7  C    0.458284
     8  C    0.074773
     9  C   -0.155359
    10  C   -0.141744
    11  C   -0.116146
    12  C   -0.140402
    13  C   -0.154991
    14  N   -0.497393
    15  C    0.629990
    16  N   -0.727762
    17  C    0.281323
    18  C   -0.158768
    19  C   -0.213830
    20  C    0.154486
    21  C   -0.209138
    22  C   -0.129528
    23  C   -0.145014
    24  C   -0.179425
    25  C    0.072768
    26  C   -0.039189
    27  C    0.058843
    28  C   -0.200138
    29  C   -0.138994
    30  C   -0.192864
    31  C    0.099099
    32  C    0.080739
    33  C   -0.183861
    34  C   -0.195739
    35  C    0.090065
    36  C    0.327315
    37  C   -0.263821
    38  O   -0.552452
    39  C    0.321124
    40  C   -0.200784
    41  C   -0.136796
    42  C   -0.145209
    43  C   -0.190473
    44  C    0.081578
    45  C    0.256770
    46  N   -0.523973
    47  C   -0.154591
    48  C   -0.139424
    49  H    0.135445
    50  H    0.136360
    51  H    0.165671
    52  H    0.168454
    53  H    0.134578
    54  H    0.134252
    55  H    0.134452
    56  H    0.161715
    57  H    0.168078
    58  H    0.131255
    59  H    0.128659
    60  H    0.127864
    61  H    0.128244
    62  H    0.136400
    63  H    0.144414
    64  H    0.128255
    65  H    0.133482
    66  H    0.133167
    67  H    0.137187
    68  H    0.161255
    69  H    0.147375
    70  H    0.132809
    71  H    0.129390
    72  H    0.134956
    73  H    0.162198
    74  H    0.135359
 Sum of Mulliken charges =  -0.00000

 Dipole moment (field-independent basis, Debye):
    X=             -1.9035    Y=              0.4564    Z=              1.1663  Tot=              2.2785
 Quadrupole moment (field-independent basis, Debye-Ang):
   XX=           -242.3652   YY=           -240.1664   ZZ=           -267.5783
   XY=             -1.7712   XZ=             -7.5708   YZ=             -8.7111

 Normal termination of Gaussian 16 at Sat Nov  5 00:59:11 2022.
