 Gaussian 16, Revision B.01,
 Gaussian 16:  ES64L-G16RevB.01 20-Dec-2017

 -------------------------------------------------------------------
 #p b3lyp/6-31g(d) 6D 10F nosymm GFInput td=(50-50,nstate=2) SCF=XQC
 -------------------------------------------------------------------

 ------------------------------
 Gaussian input prepared by ASE
 ------------------------------
 Symbolic Z-matrix:
 Charge =  0 Multiplicity = 1

                          Input orientation:
 ---------------------------------------------------------------------
 Center     Atomic      Atomic             Coordinates (Angstroms)
 Number     Number       Type             X           Y           Z
 ---------------------------------------------------------------------
      1          6           0       -3.005047   -2.856493   -4.925965
      2          6           0       -2.319903   -1.638977   -4.936854
      3          6           0       -1.881097   -1.072437   -3.742772
      4          6           0       -2.122967   -1.721310   -2.521138
      5          6           0       -1.660816   -1.119411   -1.249083
      6          7           0       -1.824991   -1.819933   -0.118684
      7          6           0       -1.400767   -1.226168    1.008640
      8          6           0       -1.587472   -1.943198    2.290375
      9          6           0       -1.255357   -1.319282    3.503761
     10          6           0       -1.439073   -1.990614    4.709862
     11          6           0       -1.950999   -3.290747    4.718898
     12          6           0       -2.281617   -3.917422    3.514658
     13          6           0       -2.104218   -3.248171    2.306428
     14          7           0       -0.835487   -0.008491    1.051782
     15          6           0       -0.702187    0.592841   -0.130450
     16          7           0       -0.121475    1.875053   -0.138458
     17          6           0       -0.762232    2.997003   -0.709387
     18          6           0       -1.783935    3.005577   -1.684224
     19          6           0       -2.290679    4.220847   -2.072844
     20          6           0       -1.815636    5.449205   -1.528580
     21          6           0       -2.354985    6.688434   -1.959131
     22          6           0       -1.902658    7.882243   -1.442148
     23          6           0       -0.881123    7.876538   -0.467897
     24          6           0       -0.334448    6.688492   -0.027890
     25          6           0       -0.777977    5.439634   -0.535340
     26          6           0       -0.262003    4.167591   -0.124705
     27          6           0        0.746243    3.760242    0.841319
     28          6           0        1.583918    4.460983    1.722054
     29          6           0        2.488957    3.754020    2.503953
     30          6           0        2.613991    2.366519    2.374679
     31          6           0        1.816777    1.622735    1.493889
     32          6           0        2.131117    0.183936    1.283619
     33          6           0        2.312506   -0.673246    2.391811
     34          6           0        2.679988   -2.006967    2.239551
     35          6           0        2.878911   -2.509320    0.949258
     36          6           0        2.698441   -1.641020   -0.144087
     37          6           0        2.334741   -0.310246   -0.015424
     38          8           0        2.940077   -2.276682   -1.341361
     39          6           0        3.276432   -3.573029   -1.020586
     40          6           0        3.597253   -4.562641   -1.938724
     41          6           0        3.912882   -5.820354   -1.420550
     42          6           0        3.903545   -6.063241   -0.036833
     43          6           0        3.577826   -5.054363    0.868317
     44          6           0        3.258013   -3.785471    0.371676
     45          6           0        0.831549    2.343297    0.788735
     46          7           0       -1.093486    0.099873   -1.306139
     47          6           0       -2.808181   -2.946580   -2.517906
     48          6           0       -3.247464   -3.508048   -3.713962
     49          1           0       -3.347487   -3.296845   -5.858747
     50          1           0       -2.125398   -1.131518   -5.877740
     51          1           0       -1.341907   -0.131757   -3.740893
     52          1           0       -0.860859   -0.309833    3.482079
     53          1           0       -1.184608   -1.499044    5.644976
     54          1           0       -2.093345   -3.813269    5.661304
     55          1           0       -2.679283   -4.928651    3.517970
     56          1           0       -2.358043   -3.723198    1.365695
     57          1           0       -2.138014    2.079832   -2.117405
     58          1           0       -3.074185    4.259433   -2.825526
     59          1           0       -3.139774    6.677233   -2.712189
     60          1           0       -2.325898    8.823739   -1.781079
     61          1           0       -0.519270    8.816917   -0.060492
     62          1           0        0.452470    6.718425    0.714476
     63          1           0        1.540055    5.539776    1.803660
     64          1           0        3.138798    4.287367    3.191989
     65          1           0        3.387760    1.845753    2.931098
     66          1           0        2.139093   -0.278028    3.387909
     67          1           0        2.801359   -2.644350    3.110832
     68          1           0        2.226348    0.324403   -0.888371
     69          1           0        3.599661   -4.360143   -3.004544
     70          1           0        4.170447   -6.625458   -2.102911
     71          1           0        4.154329   -7.053797    0.331844
     72          1           0        3.572296   -5.250256    1.936975
     73          1           0       -2.989766   -3.442635   -1.571344
     74          1           0       -3.779670   -4.455296   -3.701705
 ---------------------------------------------------------------------

 SCF Done:  E(RB3LYP) =  -1948.54920704     A.U. after   16 cycles

 Excitation energies and oscillator strengths:

 Excited state symmetry could not be determined.
 Excited State   1:      Triplet-?Sym    2.5386 eV  488.40 nm  f=0.0000  <S**2>=2.000
     159 ->162        -0.10280
     159 ->163         0.15441
     159 ->164        -0.16240
     160 ->161        -0.10525
     160 ->162        -0.22735
     160 ->163         0.51824
     160 ->164        -0.22893
 This state for optimization and/or second-order correction.
 Total Energy, E(TD-HF/TD-DFT) =  -1948.45591591
 Copying the excited state density for this state as the 1-particle RhoCI density.

 Excited state symmetry could not be determined.
 Excited State   2:      Triplet-?Sym    2.8720 eV  431.70 nm  f=0.0000  <S**2>=2.000
     158 ->164         0.11887
     159 ->161        -0.20742
     159 ->163         0.19813
     160 ->161         0.55800
     160 ->162        -0.14094
     160 ->164        -0.14268

 Excited state symmetry could not be determined.
 Excited State   3:      Singlet-?Sym    2.9281 eV  423.43 nm  f=0.0022  <S**2>=0.000
     160 ->161         0.69921

 Excited state symmetry could not be determined.
 Excited State   4:      Singlet-?Sym    3.1842 eV  389.37 nm  f=0.0078  <S**2>=0.000
     159 ->161         0.69120

 Alpha  occ. eigenvalues --  -19.20544 -14.39048 -14.34260 -14.34088 -14.33860
 Alpha  occ. eigenvalues --  -10.31030 -10.28014 -10.27915 -10.24564 -10.24527
 Alpha  occ. eigenvalues --  -10.22929 -10.22921 -10.20480 -10.20329 -10.20260
 Alpha  occ. eigenvalues --  -10.20175 -10.19963 -10.19926 -10.19890 -10.19726
 Alpha  occ. eigenvalues --  -10.19672 -10.19589 -10.19571 -10.19568 -10.19565
 Alpha  occ. eigenvalues --  -10.19558 -10.19513 -10.19509 -10.19477 -10.19450
 Alpha  occ. eigenvalues --  -10.19446 -10.19418 -10.19391 -10.19359 -10.19303
 Alpha  occ. eigenvalues --  -10.19289 -10.19225 -10.18970 -10.18959 -10.18929
 Alpha  occ. eigenvalues --  -10.18869 -10.18809 -10.18761 -10.18736 -10.18699
 Alpha  occ. eigenvalues --  -10.18553 -10.18532 -10.18514  -1.10134  -1.03848
 Alpha  occ. eigenvalues --   -0.98762  -0.91339  -0.90403  -0.86715  -0.86357
 Alpha  occ. eigenvalues --   -0.85670  -0.85629  -0.85544  -0.84348  -0.81577
 Alpha  occ. eigenvalues --   -0.79713  -0.78099  -0.77010  -0.76244  -0.75913
 Alpha  occ. eigenvalues --   -0.75307  -0.74974  -0.74876  -0.74732  -0.73717
 Alpha  occ. eigenvalues --   -0.73471  -0.71446  -0.70900  -0.68083  -0.67703
 Alpha  occ. eigenvalues --   -0.64888  -0.63645  -0.62503  -0.62208  -0.61618
 Alpha  occ. eigenvalues --   -0.61235  -0.60611  -0.60320  -0.59361  -0.58587
 Alpha  occ. eigenvalues --   -0.58462  -0.57616  -0.56712  -0.55210  -0.54751
 Alpha  occ. eigenvalues --   -0.53006  -0.52267  -0.51938  -0.51646  -0.51120
 Alpha  occ. eigenvalues --   -0.49993  -0.49269  -0.49161  -0.47811  -0.47101
 Alpha  occ. eigenvalues --   -0.46860  -0.46224  -0.46027  -0.45656  -0.45453
 Alpha  occ. eigenvalues --   -0.44894  -0.44731  -0.44324  -0.44004  -0.43851
 Alpha  occ. eigenvalues --   -0.43602  -0.43424  -0.43127  -0.42630  -0.42592
 Alpha  occ. eigenvalues --   -0.42420  -0.42225  -0.41695  -0.41332  -0.41193
 Alpha  occ. eigenvalues --   -0.40796  -0.39918  -0.38612  -0.38366  -0.37943
 Alpha  occ. eigenvalues --   -0.37620  -0.37368  -0.36981  -0.36892  -0.36404
 Alpha  occ. eigenvalues --   -0.35968  -0.35807  -0.35476  -0.35294  -0.35126
 Alpha  occ. eigenvalues --   -0.34857  -0.34671  -0.34541  -0.34335  -0.33843
 Alpha  occ. eigenvalues --   -0.33281  -0.32990  -0.32549  -0.32226  -0.30085
 Alpha  occ. eigenvalues --   -0.29573  -0.27972  -0.26951  -0.26803  -0.25842
 Alpha  occ. eigenvalues --   -0.25587  -0.25404  -0.25010  -0.24884  -0.24730
 Alpha  occ. eigenvalues --   -0.24503  -0.22406  -0.21940  -0.20759  -0.19666
 Alpha virt. eigenvalues --   -0.07110  -0.05856  -0.04461  -0.03317  -0.00664
 Alpha virt. eigenvalues --   -0.00463  -0.00389  -0.00007   0.00195   0.00528
 Alpha virt. eigenvalues --    0.01634   0.02764   0.03616   0.04288   0.05880

 Mulliken charges:
               1
     1  C   -0.115672
     2  C   -0.138730
     3  C   -0.160361
     4  C    0.074539
     5  C    0.452858
     6  N   -0.543241
     7  C    0.458233
     8  C    0.074822
     9  C   -0.155404
    10  C   -0.141728
    11  C   -0.116154
    12  C   -0.140397
    13  C   -0.155005
    14  N   -0.497364
    15  C    0.630012
    16  N   -0.727760
    17  C    0.281333
    18  C   -0.158770
    19  C   -0.213834
    20  C    0.154487
    21  C   -0.209141
    22  C   -0.129525
    23  C   -0.145019
    24  C   -0.179424
    25  C    0.072783
    26  C   -0.039200
    27  C    0.058858
    28  C   -0.200147
    29  C   -0.138993
    30  C   -0.192867
    31  C    0.099136
    32  C    0.080747
    33  C   -0.183883
    34  C   -0.195719
    35  C    0.090057
    36  C    0.327324
    37  C   -0.263835
    38  O   -0.552449
    39  C    0.321113
    40  C   -0.200784
    41  C   -0.136799
    42  C   -0.145211
    43  C   -0.190467
    44  C    0.081576
    45  C    0.256719
    46  N   -0.523970
    47  C   -0.154611
    48  C   -0.139424
    49  H    0.135443
    50  H    0.136360
    51  H    0.165672
    52  H    0.168463
    53  H    0.134577
    54  H    0.134252
    55  H    0.134453
    56  H    0.161716
    57  H    0.168075
    58  H    0.131255
    59  H    0.128660
    60  H    0.127864
    61  H    0.128244
    62  H    0.136399
    63  H    0.144415
    64  H    0.128256
    65  H    0.133483
    66  H    0.133167
    67  H    0.137187
    68  H    0.161256
    69  H    0.147376
    70  H    0.132810
    71  H    0.129390
    72  H    0.134957
    73  H    0.162199
    74  H    0.135359
 Sum of Mulliken charges =  -0.00000

 Dipole moment (field-independent basis, Debye):
    X=             -0.7311    Y=             -2.0914    Z=              0.5321  Tot=              2.2785
 Quadrupole moment (field-independent basis, Debye-Ang):
   XX=           -267.5295   YY=           -240.7278   ZZ=           -242.1251
   XY=              1.9420   XZ=             11.6724   YZ=             -0.6878

 Normal termination of Gaussian 16 at Sat Nov  5 10:57:46 2022.
