 Gaussian 16, Revision B.01,
 Gaussian 16:  ES64L-G16RevB.01 20-Dec-2017

 -----------------------------
 #p b3lyp/6-31g(d) opt SCF=XQC
 -----------------------------

 ------------------------------
 Gaussian input prepared by ASE
 ------------------------------
 Symbolic Z-matrix:
 Charge =  0 Multiplicity = 1

 SCF Done:  E(RB3LYP) =  -1348.23236419     A.U. after   14 cycles
 SCF Done:  E(RB3LYP) =  -1348.23868775     A.U. after   12 cycles
 SCF Done:  E(RB3LYP) =  -1348.23876460     A.U. after   10 cycles
 SCF Done:  E(RB3LYP) =  -1348.23876639     A.U. after    8 cycles
 SCF Done:  E(RB3LYP) =  -1348.23876657     A.U. after    7 cycles
 SCF Done:  E(RB3LYP) =  -1348.23876662     A.U. after    7 cycles
 SCF Done:  E(RB3LYP) =  -1348.23876672     A.U. after    7 cycles
 SCF Done:  E(RB3LYP) =  -1348.23876684     A.U. after    9 cycles
 SCF Done:  E(RB3LYP) =  -1348.23876697     A.U. after    9 cycles
 SCF Done:  E(RB3LYP) =  -1348.23876683     A.U. after   10 cycles
 SCF Done:  E(RB3LYP) =  -1348.23877813     A.U. after   11 cycles
 SCF Done:  E(RB3LYP) =  -1348.23877809     A.U. after    9 cycles
 SCF Done:  E(RB3LYP) =  -1348.23877827     A.U. after    7 cycles
 SCF Done:  E(RB3LYP) =  -1348.23877828     A.U. after    6 cycles
 SCF Done:  E(RB3LYP) =  -1348.23877831     A.U. after    7 cycles
 SCF Done:  E(RB3LYP) =  -1348.23877832     A.U. after    6 cycles
 SCF Done:  E(RB3LYP) =  -1348.23877835     A.U. after    7 cycles
 SCF Done:  E(RB3LYP) =  -1348.23877837     A.U. after    7 cycles
 SCF Done:  E(RB3LYP) =  -1348.23877838     A.U. after    7 cycles
 SCF Done:  E(RB3LYP) =  -1348.23877838     A.U. after    6 cycles
 Optimization completed.
    -- Stationary point found.

                         Standard orientation:
 ---------------------------------------------------------------------
 Center     Atomic      Atomic             Coordinates (Angstroms)
 Number     Number       Type             X           Y           Z
 ---------------------------------------------------------------------
      1          6           0        6.700219    1.154362    2.791220
      2          6           0        6.193612    0.669460    1.452107
      3          6           0        7.081838    0.390276    0.405123
      4          6           0        6.607572   -0.028842   -0.837540
      5          6           0        5.237334   -0.178634   -1.054668
      6          6           0        4.327062    0.089748   -0.022832
      7          6           0        2.853105   -0.072747   -0.239095
      8          6           0        2.214821   -1.278347    0.125215
      9          6           0        2.942055   -2.373278    0.696070
     10          6           0        2.315584   -3.536120    1.057152
     11          6           0        0.912600   -3.681556    0.874008
     12          6           0        0.178138   -2.663769    0.326355
     13          6           0        0.790734   -1.432572   -0.077085
     14          6           0        0.041096   -0.381332   -0.649709
     15          6           0       -1.430696   -0.548726   -0.871690
     16          6           0       -1.908267   -1.271527   -1.990133
     17          6           0       -3.264603   -1.424619   -2.192410
     18          6           0       -4.207381   -0.870322   -1.296582
     19          6           0       -5.615800   -1.035299   -1.514379
     20          6           0       -6.526258   -0.504938   -0.654897
     21          6           0       -6.112462    0.239054    0.500654
     22          6           0       -7.069774    0.785565    1.386735
     23          6           0       -6.682588    1.503304    2.501016
     24          6           0       -5.312926    1.695344    2.761026
     25          6           0       -4.358195    1.170254    1.908791
     26          6           0       -4.721803    0.430367    0.759286
     27          6           0       -3.745723   -0.138559   -0.162659
     28          6           0       -2.349650   -0.000068    0.014278
     29          6           0        0.680663    0.822038   -1.020947
     30          6           0       -0.038710    1.906673   -1.621206
     31          6           0        0.587898    3.072525   -1.972220
     32          6           0        1.982849    3.233997   -1.745891
     33          6           0        2.712713    2.220917   -1.183954
     34          6           0        2.102978    0.979973   -0.806943
     35          6           0        4.821892    0.510226    1.220072
     36          1           0        5.995888    0.918715    3.595753
     37          1           0        6.843071    2.243338    2.791881
     38          1           0        7.665755    0.701871    3.042527
     39          1           0        8.152025    0.500738    0.566332
     40          1           0        7.308541   -0.244605   -1.639890
     41          1           0        4.868050   -0.508547   -2.021806
     42          1           0        4.011327   -2.264829    0.839874
     43          1           0        2.889999   -4.351961    1.487910
     44          1           0        0.423285   -4.605067    1.171967
     45          1           0       -0.891694   -2.778996    0.192206
     46          1           0       -1.196167   -1.702534   -2.688194
     47          1           0       -3.627987   -1.979055   -3.054666
     48          1           0       -5.940479   -1.597168   -2.386895
     49          1           0       -7.591650   -0.635858   -0.828778
     50          1           0       -8.124655    0.629208    1.173013
     51          1           0       -7.428844    1.917590    3.173360
     52          1           0       -5.001005    2.259169    3.636003
     53          1           0       -3.310872    1.335832    2.137008
     54          1           0       -1.964301    0.549366    0.866323
     55          1           0       -1.102129    1.788844   -1.796885
     56          1           0        0.018854    3.879328   -2.426458
     57          1           0        2.469333    4.165384   -2.023309
     58          1           0        3.776590    2.346232   -1.015910
     59          1           0        4.117510    0.716039    2.023036
 ---------------------------------------------------------------------

 The electronic state is 1-A.
 Alpha  occ. eigenvalues --  -10.20125 -10.20043 -10.19821 -10.19809 -10.19769
 Alpha  occ. eigenvalues --  -10.19696 -10.19669 -10.19627 -10.19613 -10.19587
 Alpha  occ. eigenvalues --  -10.19555 -10.19543 -10.19531 -10.19109 -10.19105
 Alpha  occ. eigenvalues --  -10.19054 -10.19038 -10.19017 -10.18995 -10.18977
 Alpha  occ. eigenvalues --  -10.18967 -10.18952 -10.18866 -10.18586 -10.18577
 Alpha  occ. eigenvalues --  -10.18560 -10.18548 -10.18514 -10.18504 -10.18497
 Alpha  occ. eigenvalues --  -10.18404 -10.18288 -10.18273 -10.18271 -10.18266
 Alpha  occ. eigenvalues --   -0.88431  -0.87710  -0.85572  -0.84640  -0.84170
 Alpha  occ. eigenvalues --   -0.81398  -0.79877  -0.78955  -0.77325  -0.76542
 Alpha  occ. eigenvalues --   -0.75135  -0.74390  -0.73723  -0.73205  -0.72211
 Alpha  occ. eigenvalues --   -0.71864  -0.69076  -0.68256  -0.64334  -0.63088
 Alpha  occ. eigenvalues --   -0.62567  -0.61250  -0.61130  -0.60090  -0.58746
 Alpha  occ. eigenvalues --   -0.58347  -0.58195  -0.55827  -0.53422  -0.53023
 Alpha  occ. eigenvalues --   -0.51999  -0.51871  -0.50608  -0.49565  -0.48541
 Alpha  occ. eigenvalues --   -0.47568  -0.46309  -0.46053  -0.45876  -0.45554
 Alpha  occ. eigenvalues --   -0.44207  -0.43935  -0.43677  -0.42720  -0.42459
 Alpha  occ. eigenvalues --   -0.42367  -0.42157  -0.42035  -0.41700  -0.40917
 Alpha  occ. eigenvalues --   -0.40497  -0.40115  -0.40042  -0.39608  -0.39076
 Alpha  occ. eigenvalues --   -0.38583  -0.38152  -0.37228  -0.36274  -0.36178
 Alpha  occ. eigenvalues --   -0.35573  -0.35419  -0.35040  -0.34784  -0.33963
 Alpha  occ. eigenvalues --   -0.33801  -0.33340  -0.32970  -0.32543  -0.30996
 Alpha  occ. eigenvalues --   -0.30808  -0.29486  -0.28544  -0.28239  -0.25888
 Alpha  occ. eigenvalues --   -0.25141  -0.24445  -0.23868  -0.23420  -0.22282
 Alpha  occ. eigenvalues --   -0.21130  -0.18665
 Alpha virt. eigenvalues --   -0.05869  -0.03855  -0.03272  -0.01083  -0.00166
 Alpha virt. eigenvalues --    0.00250   0.00694   0.01587   0.03687   0.04670
 Alpha virt. eigenvalues --    0.06962   0.08009   0.09618   0.09926   0.10514

 Mulliken charges:
               1
     1  C   -0.529662
     2  C    0.177695
     3  C   -0.176921
     4  C   -0.130389
     5  C   -0.154105
     6  C    0.011028
     7  C   -0.079806
     8  C    0.104504
     9  C   -0.197974
    10  C   -0.135124
    11  C   -0.134703
    12  C   -0.199197
    13  C    0.105883
    14  C   -0.082965
    15  C    0.011073
    16  C   -0.153604
    17  C   -0.211247
    18  C    0.146603
    19  C   -0.194906
    20  C   -0.192901
    21  C    0.141820
    22  C   -0.207166
    23  C   -0.127288
    24  C   -0.139184
    25  C   -0.185960
    26  C    0.057456
    27  C    0.066122
    28  C   -0.228909
    29  C    0.106395
    30  C   -0.199027
    31  C   -0.134867
    32  C   -0.135027
    33  C   -0.198078
    34  C    0.104356
    35  C   -0.204770
    36  H    0.158810
    37  H    0.166402
    38  H    0.157249
    39  H    0.121983
    40  H    0.130260
    41  H    0.135556
    42  H    0.146537
    43  H    0.128015
    44  H    0.128591
    45  H    0.146277
    46  H    0.138432
    47  H    0.131846
    48  H    0.130479
    49  H    0.130331
    50  H    0.129683
    51  H    0.130422
    52  H    0.130691
    53  H    0.138497
    54  H    0.142512
    55  H    0.146157
    56  H    0.128762
    57  H    0.127942
    58  H    0.146136
    59  H    0.129274
 Sum of Mulliken charges =  -0.00000

 Dipole moment (field-independent basis, Debye):
    X=              0.2522    Y=              0.2058    Z=              0.4023  Tot=              0.5175
 Quadrupole moment (field-independent basis, Debye-Ang):
   XX=           -172.1524   YY=           -193.3203   ZZ=           -191.2774
   XY=              2.1839   XZ=              3.5761   YZ=              4.2240

 Normal termination of Gaussian 16 at Sat Nov  5 01:56:10 2022.
