 Gaussian 16, Revision B.01,
 Gaussian 16:  ES64L-G16RevB.01 20-Dec-2017

 -------------------------------------------------------------------
 #p b3lyp/6-31g(d) 6D 10F nosymm GFInput td=(50-50,nstate=2) SCF=XQC
 -------------------------------------------------------------------

 ------------------------------
 Gaussian input prepared by ASE
 ------------------------------
 Symbolic Z-matrix:
 Charge =  0 Multiplicity = 1

                          Input orientation:
 ---------------------------------------------------------------------
 Center     Atomic      Atomic             Coordinates (Angstroms)
 Number     Number       Type             X           Y           Z
 ---------------------------------------------------------------------
      1          6           0       -6.359379    2.278055    2.333069
      2          6           0       -5.885275    1.654227    1.040371
      3          6           0       -6.788872    1.354593    0.012365
      4          6           0       -6.350882    0.752342   -1.166727
      5          6           0       -5.001655    0.441334   -1.339913
      6          6           0       -4.075718    0.734474   -0.328963
      7          6           0       -2.622605    0.412220   -0.503137
      8          6           0       -1.732486    1.399899   -0.978298
      9          6           0       -2.180265    2.719254   -1.313580
     10          6           0       -1.310303    3.676035   -1.763897
     11          6           0        0.072997    3.377390   -1.906548
     12          6           0        0.544882    2.127994   -1.603920
     13          6           0       -0.328504    1.090866   -1.139761
     14          6           0        0.149532   -0.202326   -0.833009
     15          6           0        1.600992   -0.524303   -1.014837
     16          6           0        2.112141   -0.824565   -2.299360
     17          6           0        3.449710   -1.120641   -2.464433
     18          6           0        4.339924   -1.131504   -1.366260
     19          6           0        5.729358   -1.439631   -1.547442
     20          6           0        6.589530   -1.450203   -0.494391
     21          6           0        6.139756   -1.154124    0.836057
     22          6           0        7.044848   -1.168626    1.922730
     23          6           0        6.622635   -0.885759    3.206633
     24          6           0        5.269427   -0.577680    3.439815
     25          6           0        4.365597   -0.557222    2.392816
     26          6           0        4.766058   -0.842148    1.066372
     27          6           0        3.843909   -0.830903   -0.063189
     28          6           0        2.468181   -0.532650    0.070685
     29          6           0       -0.742003   -1.192643   -0.364606
     30          6           0       -0.302430   -2.522094   -0.058703
     31          6           0       -1.172245   -3.474467    0.401154
     32          6           0       -2.547102   -3.160948    0.587326
     33          6           0       -3.014182   -1.906591    0.298827
     34          6           0       -2.143967   -0.879032   -0.191791
     35          6           0       -4.534043    1.340070    0.849876
     36          1           0       -5.555945    2.832271    2.829280
     37          1           0       -6.711257    1.513135    3.038303
     38          1           0       -7.192809    2.968492    2.163205
     39          1           0       -7.842097    1.596791    0.137048
     40          1           0       -7.062810    0.528163   -1.957030
     41          1           0       -4.659881   -0.024705   -2.260005
     42          1           0       -3.233704    2.951367   -1.203252
     43          1           0       -1.675280    4.669243   -2.011748
     44          1           0        0.756840    4.146231   -2.256293
     45          1           0        1.601022    1.907017   -1.711392
     46          1           0        1.440303   -0.821354   -3.153038
     47          1           0        3.838544   -1.353196   -3.453199
     48          1           0        6.080943   -1.665599   -2.551297
     49          1           0        7.640969   -1.684780   -0.642328
     50          1           0        8.087544   -1.408533    1.727463
     51          1           0        7.328888   -0.900509    4.032203
     52          1           0        4.930138   -0.354124    4.447627
     53          1           0        3.329736   -0.316112    2.605520
     54          1           0        2.057982   -0.298651    1.047073
     55          1           0        0.744373   -2.766994   -0.199539
     56          1           0       -0.812776   -4.475327    0.625067
     57          1           0       -3.227946   -3.922694    0.957870
     58          1           0       -4.063549   -1.672046    0.438797
     59          1           0       -3.816787    1.571215    1.634337
 ---------------------------------------------------------------------

 SCF Done:  E(RB3LYP) =  -1348.23877465     A.U. after   14 cycles

 Excitation energies and oscillator strengths:

 Excited state symmetry could not be determined.
 Excited State   1:      Triplet-?Sym    1.7321 eV  715.79 nm  f=0.0000  <S**2>=2.000
     117 ->118         0.69676
     117 <-118         0.13790
 This state for optimization and/or second-order correction.
 Total Energy, E(TD-HF/TD-DFT) =  -1348.17512037
 Copying the excited state density for this state as the 1-particle RhoCI density.

 Excited state symmetry could not be determined.
 Excited State   2:      Triplet-?Sym    2.7182 eV  456.12 nm  f=0.0000  <S**2>=2.000
     109 ->126        -0.10045
     110 ->124         0.14912
     115 ->120        -0.30372
     116 ->118         0.10496
     116 ->119         0.58761
     117 ->119        -0.11031

 Excited state symmetry could not be determined.
 Excited State   3:      Singlet-?Sym    3.1391 eV  394.97 nm  f=0.2121  <S**2>=0.000
     117 ->118         0.69943

 Excited state symmetry could not be determined.
 Excited State   4:      Singlet-?Sym    3.5212 eV  352.11 nm  f=0.0023  <S**2>=0.000
     117 ->119         0.68516
     117 ->120         0.13257

 Alpha  occ. eigenvalues --  -10.20125 -10.20043 -10.19821 -10.19809 -10.19769
 Alpha  occ. eigenvalues --  -10.19696 -10.19669 -10.19627 -10.19613 -10.19587
 Alpha  occ. eigenvalues --  -10.19555 -10.19543 -10.19531 -10.19109 -10.19105
 Alpha  occ. eigenvalues --  -10.19054 -10.19037 -10.19017 -10.18995 -10.18977
 Alpha  occ. eigenvalues --  -10.18967 -10.18952 -10.18866 -10.18586 -10.18577
 Alpha  occ. eigenvalues --  -10.18560 -10.18548 -10.18514 -10.18504 -10.18497
 Alpha  occ. eigenvalues --  -10.18404 -10.18288 -10.18273 -10.18271 -10.18266
 Alpha  occ. eigenvalues --   -0.88431  -0.87710  -0.85572  -0.84640  -0.84170
 Alpha  occ. eigenvalues --   -0.81398  -0.79877  -0.78954  -0.77325  -0.76542
 Alpha  occ. eigenvalues --   -0.75135  -0.74390  -0.73723  -0.73204  -0.72211
 Alpha  occ. eigenvalues --   -0.71864  -0.69076  -0.68256  -0.64334  -0.63088
 Alpha  occ. eigenvalues --   -0.62567  -0.61250  -0.61130  -0.60090  -0.58746
 Alpha  occ. eigenvalues --   -0.58347  -0.58195  -0.55827  -0.53422  -0.53023
 Alpha  occ. eigenvalues --   -0.51999  -0.51871  -0.50608  -0.49565  -0.48541
 Alpha  occ. eigenvalues --   -0.47568  -0.46309  -0.46053  -0.45876  -0.45554
 Alpha  occ. eigenvalues --   -0.44207  -0.43935  -0.43677  -0.42720  -0.42459
 Alpha  occ. eigenvalues --   -0.42367  -0.42157  -0.42035  -0.41700  -0.40917
 Alpha  occ. eigenvalues --   -0.40497  -0.40114  -0.40042  -0.39608  -0.39076
 Alpha  occ. eigenvalues --   -0.38583  -0.38152  -0.37228  -0.36274  -0.36178
 Alpha  occ. eigenvalues --   -0.35573  -0.35419  -0.35040  -0.34784  -0.33963
 Alpha  occ. eigenvalues --   -0.33801  -0.33340  -0.32970  -0.32543  -0.30996
 Alpha  occ. eigenvalues --   -0.30808  -0.29486  -0.28544  -0.28239  -0.25888
 Alpha  occ. eigenvalues --   -0.25141  -0.24445  -0.23868  -0.23420  -0.22282
 Alpha  occ. eigenvalues --   -0.21130  -0.18665
 Alpha virt. eigenvalues --   -0.05869  -0.03855  -0.03272  -0.01083  -0.00166
 Alpha virt. eigenvalues --    0.00250   0.00694   0.01587   0.03687   0.04670
 Alpha virt. eigenvalues --    0.06962   0.08009   0.09618   0.09926   0.10514

 Mulliken charges:
               1
     1  C   -0.529658
     2  C    0.177695
     3  C   -0.176926
     4  C   -0.130389
     5  C   -0.154111
     6  C    0.011033
     7  C   -0.079800
     8  C    0.104514
     9  C   -0.197982
    10  C   -0.135125
    11  C   -0.134704
    12  C   -0.199204
    13  C    0.105901
    14  C   -0.082986
    15  C    0.011084
    16  C   -0.153598
    17  C   -0.211254
    18  C    0.146613
    19  C   -0.194909
    20  C   -0.192899
    21  C    0.141820
    22  C   -0.207161
    23  C   -0.127292
    24  C   -0.139180
    25  C   -0.185959
    26  C    0.057448
    27  C    0.066122
    28  C   -0.228916
    29  C    0.106400
    30  C   -0.199031
    31  C   -0.134867
    32  C   -0.135030
    33  C   -0.198081
    34  C    0.104360
    35  C   -0.204776
    36  H    0.158809
    37  H    0.166401
    38  H    0.157248
    39  H    0.121984
    40  H    0.130260
    41  H    0.135556
    42  H    0.146538
    43  H    0.128015
    44  H    0.128591
    45  H    0.146278
    46  H    0.138428
    47  H    0.131846
    48  H    0.130478
    49  H    0.130331
    50  H    0.129683
    51  H    0.130422
    52  H    0.130690
    53  H    0.138496
    54  H    0.142515
    55  H    0.146159
    56  H    0.128762
    57  H    0.127943
    58  H    0.146138
    59  H    0.129274
 Sum of Mulliken charges =  -0.00000

 Dipole moment (field-independent basis, Debye):
    X=             -0.2519    Y=              0.1639    Z=              0.4214  Tot=              0.5176
 Quadrupole moment (field-independent basis, Debye-Ang):
   XX=           -173.0981   YY=           -195.3188   ZZ=           -188.5180
   XY=             -5.5966   XZ=             -2.8392   YZ=              0.9645

 Normal termination of Gaussian 16 at Sat Nov  5 10:41:07 2022.
