 Gaussian 16, Revision B.01,
 Gaussian 16:  ES64L-G16RevB.01 20-Dec-2017

 -----------------------------
 #p b3lyp/6-31g(d) opt SCF=XQC
 -----------------------------

 ------------------------------
 Gaussian input prepared by ASE
 ------------------------------
 Symbolic Z-matrix:
 Charge =  0 Multiplicity = 1

 SCF Done:  E(RB3LYP) =  -1730.44592637     A.U. after   16 cycles
 SCF Done:  E(RB3LYP) =  -1730.45604295     A.U. after   13 cycles
 SCF Done:  E(RB3LYP) =  -1730.45699158     A.U. after   12 cycles
 SCF Done:  E(RB3LYP) =  -1730.45744860     A.U. after   12 cycles
 SCF Done:  E(RB3LYP) =  -1730.45764491     A.U. after   12 cycles
 SCF Done:  E(RB3LYP) =  -1730.45776877     A.U. after   11 cycles
 SCF Done:  E(RB3LYP) =  -1730.45781998     A.U. after   10 cycles
 SCF Done:  E(RB3LYP) =  -1730.45782940     A.U. after    9 cycles
 SCF Done:  E(RB3LYP) =  -1730.45784306     A.U. after   10 cycles
 SCF Done:  E(RB3LYP) =  -1730.45784596     A.U. after    9 cycles
 SCF Done:  E(RB3LYP) =  -1730.45784718     A.U. after    9 cycles
 SCF Done:  E(RB3LYP) =  -1730.45784778     A.U. after    8 cycles
 SCF Done:  E(RB3LYP) =  -1730.45784803     A.U. after    8 cycles
 SCF Done:  E(RB3LYP) =  -1730.45784818     A.U. after    7 cycles
 SCF Done:  E(RB3LYP) =  -1730.45784826     A.U. after    7 cycles
 SCF Done:  E(RB3LYP) =  -1730.45784831     A.U. after    7 cycles
 SCF Done:  E(RB3LYP) =  -1730.45784836     A.U. after    7 cycles
 SCF Done:  E(RB3LYP) =  -1730.45784839     A.U. after    6 cycles
 Optimization completed.
    -- Stationary point found.

                         Standard orientation:
 ---------------------------------------------------------------------
 Center     Atomic      Atomic             Coordinates (Angstroms)
 Number     Number       Type             X           Y           Z
 ---------------------------------------------------------------------
      1          6           0       -4.492996   -4.478823    0.902342
      2          6           0       -5.065934   -3.575638    0.092772
      3          6           0       -6.303968   -3.889563   -0.715816
      4          7           0       -4.493929   -2.287801   -0.123737
      5          6           0       -5.320793   -1.135982   -0.064630
      6          6           0       -5.104197   -0.054606   -0.935148
      7          6           0       -5.920935    1.068170   -0.883862
      8          6           0       -6.995040    1.157891    0.020785
      9          6           0       -7.871136    2.355030    0.061125
     10          6           0       -8.222982    3.034991   -1.117987
     11          6           0       -9.045489    4.159854   -1.080886
     12          6           0       -9.539303    4.631255    0.136897
     13          6           0       -9.200199    3.966631    1.316910
     14          6           0       -8.375063    2.843754    1.279195
     15          6           0       -7.203270    0.070712    0.884288
     16          6           0       -6.377602   -1.050301    0.854596
     17          6           0       -3.078423   -2.124539   -0.149533
     18          6           0       -2.449074   -1.120035    0.599378
     19          6           0       -1.067845   -0.953531    0.542846
     20          6           0       -0.256634   -1.783630   -0.248947
     21          6           0        1.212158   -1.606844   -0.302410
     22          6           0        1.805827   -0.333358   -0.222029
     23          6           0        3.181006   -0.157212   -0.272294
     24          6           0        4.048663   -1.262247   -0.405767
     25          7           0        5.432099   -1.084730   -0.483767
     26          6           0        6.308776   -2.229544   -0.692635
     27          6           0        6.048709    0.145520   -0.086015
     28          6           0        6.520119    1.025558   -1.083884
     29          6           0        6.342492    0.765636   -2.479100
     30          6           0        6.819991    1.635541   -3.424261
     31          6           0        7.507209    2.823268   -3.039472
     32          6           0        7.689442    3.113746   -1.713934
     33          6           0        7.204368    2.236827   -0.693616
     34          6           0        7.372632    2.521811    0.665166
     35          6           0        6.896792    1.662386    1.661493
     36          6           0        7.071687    1.953446    3.050621
     37          6           0        6.614075    1.095713    4.014632
     38          6           0        5.950970   -0.109260    3.642979
     39          6           0        5.761251   -0.426730    2.323320
     40          6           0        6.222120    0.441563    1.284194
     41          6           0        3.464635   -2.543012   -0.481326
     42          6           0        2.081746   -2.699763   -0.433303
     43          6           0       -0.901931   -2.792067   -0.989823
     44          6           0       -2.280485   -2.959258   -0.948081
     45          1           0       -4.895319   -5.483209    0.977803
     46          1           0       -3.594759   -4.257452    1.468487
     47          1           0       -7.124346   -3.194461   -0.512208
     48          1           0       -6.654668   -4.901571   -0.497109
     49          1           0       -6.085221   -3.817354   -1.788746
     50          1           0       -4.285044   -0.099868   -1.646036
     51          1           0       -5.715028    1.899719   -1.552101
     52          1           0       -7.868261    2.661662   -2.074738
     53          1           0       -9.308904    4.663532   -2.007468
     54          1           0      -10.181324    5.507495    0.166090
     55          1           0       -9.570894    4.329054    2.272356
     56          1           0       -8.095189    2.352810    2.207225
     57          1           0       -8.031331    0.096477    1.587280
     58          1           0       -6.545352   -1.868461    1.549049
     59          1           0       -3.045786   -0.474192    1.235820
     60          1           0       -0.606814   -0.186040    1.158468
     61          1           0        1.172370    0.546706   -0.149421
     62          1           0        3.594045    0.844603   -0.225715
     63          1           0        5.997433   -2.802658   -1.574495
     64          1           0        7.322909   -1.864096   -0.863664
     65          1           0        6.330383   -2.912740    0.171189
     66          1           0        5.808095   -0.131846   -2.771493
     67          1           0        6.670605    1.423969   -4.479647
     68          1           0        7.880213    3.498716   -3.804489
     69          1           0        8.206959    4.020920   -1.411075
     70          1           0        7.887931    3.435166    0.955475
     71          1           0        7.579224    2.875456    3.324181
     72          1           0        6.753162    1.328973    5.066675
     73          1           0        5.590776   -0.780815    4.417605
     74          1           0        5.244832   -1.340254    2.050040
     75          1           0        4.086519   -3.427534   -0.559299
     76          1           0        1.673553   -3.706546   -0.465649
     77          1           0       -0.314746   -3.432179   -1.642647
     78          1           0       -2.751417   -3.736437   -1.541893
 ---------------------------------------------------------------------

 The electronic state is 1-A.
 Alpha  occ. eigenvalues --  -14.35653 -14.35332 -10.22716 -10.22386 -10.22368
 Alpha  occ. eigenvalues --  -10.22361 -10.21983 -10.21809 -10.20242 -10.20235
 Alpha  occ. eigenvalues --  -10.20203 -10.20175 -10.19507 -10.19466 -10.19414
 Alpha  occ. eigenvalues --  -10.19387 -10.19358 -10.19330 -10.19325 -10.19295
 Alpha  occ. eigenvalues --  -10.19189 -10.19046 -10.19036 -10.18724 -10.18651
 Alpha  occ. eigenvalues --  -10.18646 -10.18633 -10.18619 -10.18513 -10.18456
 Alpha  occ. eigenvalues --  -10.18451 -10.18450 -10.18420 -10.18077 -10.18049
 Alpha  occ. eigenvalues --  -10.18031 -10.18016 -10.17988 -10.17964 -10.17936
 Alpha  occ. eigenvalues --  -10.17911 -10.17734 -10.17480 -10.16656  -0.95474
 Alpha  occ. eigenvalues --   -0.95332  -0.87758  -0.86044  -0.85185  -0.85005
 Alpha  occ. eigenvalues --   -0.83833  -0.82910  -0.80069  -0.78419  -0.78089
 Alpha  occ. eigenvalues --   -0.76967  -0.75256  -0.74952  -0.74459  -0.74039
 Alpha  occ. eigenvalues --   -0.73996  -0.73691  -0.73324  -0.72114  -0.70984
 Alpha  occ. eigenvalues --   -0.69941  -0.68213  -0.67247  -0.64529  -0.62573
 Alpha  occ. eigenvalues --   -0.62131  -0.61924  -0.61219  -0.60908  -0.59351
 Alpha  occ. eigenvalues --   -0.59170  -0.58666  -0.58340  -0.57314  -0.56320
 Alpha  occ. eigenvalues --   -0.54531  -0.54181  -0.53007  -0.52774  -0.52330
 Alpha  occ. eigenvalues --   -0.51380  -0.50205  -0.48435  -0.47862  -0.47548
 Alpha  occ. eigenvalues --   -0.47300  -0.46834  -0.46302  -0.46175  -0.45673
 Alpha  occ. eigenvalues --   -0.44808  -0.44196  -0.43974  -0.43848  -0.43783
 Alpha  occ. eigenvalues --   -0.43462  -0.43088  -0.42924  -0.42294  -0.41960
 Alpha  occ. eigenvalues --   -0.41809  -0.41502  -0.41340  -0.41223  -0.40889
 Alpha  occ. eigenvalues --   -0.40858  -0.40683  -0.40171  -0.39662  -0.39531
 Alpha  occ. eigenvalues --   -0.38884  -0.38149  -0.37911  -0.37358  -0.37262
 Alpha  occ. eigenvalues --   -0.36644  -0.36162  -0.36132  -0.35611  -0.35212
 Alpha  occ. eigenvalues --   -0.34856  -0.34813  -0.34278  -0.33928  -0.33848
 Alpha  occ. eigenvalues --   -0.33567  -0.33175  -0.32909  -0.32404  -0.30470
 Alpha  occ. eigenvalues --   -0.30331  -0.29674  -0.28852  -0.26644  -0.25717
 Alpha  occ. eigenvalues --   -0.25171  -0.24917  -0.24569  -0.24279  -0.24100
 Alpha  occ. eigenvalues --   -0.24000  -0.22682  -0.19861  -0.19152  -0.17086
 Alpha virt. eigenvalues --   -0.06657  -0.02597  -0.01624  -0.01160  -0.00324
 Alpha virt. eigenvalues --    0.00346   0.00435   0.00858   0.01300   0.02242
 Alpha virt. eigenvalues --    0.03577   0.03999   0.06171   0.06279   0.09258

 Mulliken charges:
               1
     1  C   -0.411403
     2  C    0.335277
     3  C   -0.508429
     4  N   -0.619994
     5  C    0.288663
     6  C   -0.159694
     7  C   -0.188493
     8  C    0.094633
     9  C    0.089713
    10  C   -0.175025
    11  C   -0.133699
    12  C   -0.127859
    13  C   -0.133756
    14  C   -0.174937
    15  C   -0.189268
    16  C   -0.184686
    17  C    0.280047
    18  C   -0.172424
    19  C   -0.193129
    20  C    0.099937
    21  C    0.093895
    22  C   -0.188532
    23  C   -0.183935
    24  C    0.348685
    25  N   -0.579212
    26  C   -0.312159
    27  C    0.040735
    28  C    0.135910
    29  C   -0.185598
    30  C   -0.137138
    31  C   -0.137972
    32  C   -0.186834
    33  C    0.134129
    34  C   -0.286754
    35  C    0.134867
    36  C   -0.186962
    37  C   -0.137145
    38  C   -0.140265
    39  C   -0.186209
    40  C    0.158738
    41  C   -0.207714
    42  C   -0.189372
    43  C   -0.192558
    44  C   -0.154540
    45  H    0.135359
    46  H    0.151484
    47  H    0.170321
    48  H    0.154328
    49  H    0.162150
    50  H    0.144221
    51  H    0.133709
    52  H    0.130686
    53  H    0.128743
    54  H    0.127725
    55  H    0.128657
    56  H    0.130380
    57  H    0.132830
    58  H    0.143291
    59  H    0.141847
    60  H    0.131279
    61  H    0.128933
    62  H    0.139424
    63  H    0.160100
    64  H    0.172217
    65  H    0.150618
    66  H    0.148027
    67  H    0.132479
    68  H    0.132108
    69  H    0.131633
    70  H    0.130394
    71  H    0.131526
    72  H    0.132264
    73  H    0.133575
    74  H    0.148975
    75  H    0.123251
    76  H    0.126199
    77  H    0.128529
    78  H    0.133209
 Sum of Mulliken charges =  -0.00000

 Dipole moment (field-independent basis, Debye):
    X=              2.1654    Y=              0.1192    Z=             -0.0792  Tot=              2.1701
 Quadrupole moment (field-independent basis, Debye-Ang):
   XX=           -229.4694   YY=           -235.6855   ZZ=           -238.9003
   XY=              2.8847   XZ=             -1.5939   YZ=              1.6565

 1\1\GINC-NODE92\FOpt\RB3LYP\6-31G(d)\C42H34N2\WYKGROUP\05-Nov-2022\0\\
 #p b3lyp/6-31g(d) opt SCF=XQC\\Gaussian input prepared by ASE\\0,1\C,3
 .8431307635,4.0281284165,2.9880319812\C,4.5211683111,3.6275405155,1.90
 21223829\C,5.7295814059,4.3748656242,1.3860455925\N,4.0939746446,2.519
 3556063,1.113439707\C,5.0389070474,1.5383665187,0.7151324752\C,4.95206
 84349,0.9338048718,-0.5501952251\C,5.8839230781,-0.0187021218,-0.94350
 71236\C,6.9485816192,-0.3986386724,-0.1054812986\C,7.9475900072,-1.407
 4640361,-0.5374143235\C,8.3870627495,-1.4663544055,-1.871522037\C,9.32

 Normal termination of Gaussian 16 at Sat Nov  5 00:39:36 2022.
