 Gaussian 16, Revision B.01,
 Gaussian 16:  ES64L-G16RevB.01 20-Dec-2017

 -----------------------------
 #p b3lyp/6-31g(d) opt SCF=XQC
 -----------------------------

 ------------------------------
 Gaussian input prepared by ASE
 ------------------------------
 Symbolic Z-matrix:
 Charge =  0 Multiplicity = 1

 SCF Done:  E(RB3LYP) =  -1446.45370548     A.U. after   15 cycles
 SCF Done:  E(RB3LYP) =  -1446.46305970     A.U. after   13 cycles
 SCF Done:  E(RB3LYP) =  -1446.46359817     A.U. after   11 cycles
 SCF Done:  E(RB3LYP) =  -1446.46376047     A.U. after   11 cycles
 SCF Done:  E(RB3LYP) =  -1446.46386443     A.U. after   10 cycles
 SCF Done:  E(RB3LYP) =  -1446.46401158     A.U. after   11 cycles
 SCF Done:  E(RB3LYP) =  -1446.46410975     A.U. after   11 cycles
 SCF Done:  E(RB3LYP) =  -1446.46424251     A.U. after   10 cycles
 SCF Done:  E(RB3LYP) =  -1446.46429221     A.U. after   10 cycles
 SCF Done:  E(RB3LYP) =  -1446.46431193     A.U. after   10 cycles
 SCF Done:  E(RB3LYP) =  -1446.46431878     A.U. after    7 cycles
 SCF Done:  E(RB3LYP) =  -1446.46431903     A.U. after    9 cycles
 SCF Done:  E(RB3LYP) =  -1446.46431937     A.U. after    9 cycles
 SCF Done:  E(RB3LYP) =  -1446.46431989     A.U. after    9 cycles
 SCF Done:  E(RB3LYP) =  -1446.46432057     A.U. after    9 cycles
 SCF Done:  E(RB3LYP) =  -1446.46432185     A.U. after    9 cycles
 SCF Done:  E(RB3LYP) =  -1446.46432370     A.U. after   10 cycles
 SCF Done:  E(RB3LYP) =  -1446.46432515     A.U. after    9 cycles
 SCF Done:  E(RB3LYP) =  -1446.46432593     A.U. after    9 cycles
 SCF Done:  E(RB3LYP) =  -1446.46432603     A.U. after    7 cycles
 Optimization completed.
    -- Stationary point found.

                         Standard orientation:
 ---------------------------------------------------------------------
 Center     Atomic      Atomic             Coordinates (Angstroms)
 Number     Number       Type             X           Y           Z
 ---------------------------------------------------------------------
      1          6           0       -4.487261    5.810208   -1.385041
      2          6           0       -3.542420    4.825712   -0.761418
      3          6           0       -2.257465    5.087986   -0.468627
      4          6           0       -1.283834    4.156704    0.121080
      5          6           0        0.048730    4.401207    0.130471
      6          6           0        0.803188    5.559314   -0.462042
      7          6           0        1.793225    5.105604   -1.551938
      8          6           0       -1.773488    2.886639    0.743707
      9          6           0       -2.794055    2.891460    1.709480
     10          6           0       -3.199992    1.699425    2.308822
     11          6           0       -2.602051    0.487875    1.967696
     12          6           0       -1.589904    0.462128    0.997504
     13          7           0       -0.969924   -0.768360    0.633985
     14          6           0        0.438122   -0.823832    0.467364
     15          6           0        1.291796   -0.162100    1.365812
     16          6           0        2.670994   -0.212998    1.199052
     17          6           0        3.260665   -0.936642    0.147354
     18          6           0        4.733259   -0.996503   -0.019016
     19          6           0        5.591833   -1.043229    1.092249
     20          6           0        6.974593   -1.095532    0.933344
     21          6           0        7.560874   -1.108959   -0.338794
     22          6           0        9.059231   -1.199496   -0.508680
     23          6           0        6.706695   -1.059453   -1.447967
     24          6           0        5.323475   -1.004389   -1.294162
     25          6           0        2.396478   -1.600934   -0.739154
     26          6           0        1.014026   -1.540808   -0.593626
     27          6           0       -1.765828   -1.910872    0.359468
     28          6           0       -1.323595   -3.195514    0.793849
     29          6           0       -2.082131   -4.314281    0.554251
     30          6           0       -3.333129   -4.231163   -0.115941
     31          6           0       -4.141521   -5.368843   -0.371013
     32          6           0       -5.348012   -5.245684   -1.024773
     33          6           0       -5.797145   -3.972249   -1.452313
     34          6           0       -5.036677   -2.848557   -1.216929
     35          6           0       -3.787573   -2.941188   -0.543607
     36          6           0       -2.976841   -1.802981   -0.302509
     37          6           0       -1.193251    1.661412    0.388764
     38          1           0       -5.361296    5.987007   -0.742609
     39          1           0       -4.877389    5.434846   -2.341343
     40          1           0       -4.003643    6.775224   -1.571625
     41          1           0       -3.949037    3.838522   -0.548383
     42          1           0       -1.882628    6.081389   -0.708667
     43          1           0        0.682616    3.657786    0.614784
     44          1           0        0.128830    6.313099   -0.879776
     45          1           0        1.370413    6.059569    0.337427
     46          1           0        2.373208    5.954716   -1.931501
     47          1           0        2.499605    4.364082   -1.160651
     48          1           0        1.263703    4.648422   -2.394945
     49          1           0       -3.254432    3.831039    1.998228
     50          1           0       -3.978676    1.714936    3.067081
     51          1           0       -2.914212   -0.436393    2.443212
     52          1           0        0.865779    0.399054    2.191447
     53          1           0        3.304469    0.329725    1.895192
     54          1           0        5.170266   -1.060946    2.093655
     55          1           0        7.610654   -1.135145    1.815264
     56          1           0        9.388622   -0.709512   -1.431331
     57          1           0        9.393203   -2.244818   -0.559963
     58          1           0        9.587476   -0.732218    0.329461
     59          1           0        7.131576   -1.052368   -2.449624
     60          1           0        4.692191   -0.936152   -2.176003
     61          1           0        2.813190   -2.185871   -1.554377
     62          1           0        0.372640   -2.057445   -1.300472
     63          1           0       -0.380311   -3.275094    1.324128
     64          1           0       -1.733910   -5.286434    0.895709
     65          1           0       -3.790643   -6.344049   -0.040660
     66          1           0       -5.958707   -6.124085   -1.214818
     67          1           0       -6.749746   -3.884654   -1.968173
     68          1           0       -5.382613   -1.870977   -1.544657
     69          1           0       -3.321255   -0.830536   -0.641564
     70          1           0       -0.426553    1.638980   -0.378642
 ---------------------------------------------------------------------

 The electronic state is 1-A.
 Alpha  occ. eigenvalues --  -14.36318 -10.22835 -10.22723 -10.22601 -10.19473
 Alpha  occ. eigenvalues --  -10.19461 -10.19320 -10.19284 -10.19249 -10.19195
 Alpha  occ. eigenvalues --  -10.19167 -10.18975 -10.18810 -10.18784 -10.18777
 Alpha  occ. eigenvalues --  -10.18756 -10.18710 -10.18684 -10.18588 -10.18569
 Alpha  occ. eigenvalues --  -10.18556 -10.18540 -10.18540 -10.18499 -10.18488
 Alpha  occ. eigenvalues --  -10.18443 -10.18435 -10.18321 -10.18317 -10.18316
 Alpha  occ. eigenvalues --  -10.18274 -10.18246 -10.18199 -10.18161 -10.18141
 Alpha  occ. eigenvalues --  -10.18131 -10.17470  -0.96219  -0.86740  -0.86191
 Alpha  occ. eigenvalues --   -0.85332  -0.84015  -0.81699  -0.80901  -0.78141
 Alpha  occ. eigenvalues --   -0.77888  -0.76745  -0.75784  -0.75052  -0.74280
 Alpha  occ. eigenvalues --   -0.73973  -0.73614  -0.72259  -0.71459  -0.70512
 Alpha  occ. eigenvalues --   -0.67719  -0.67380  -0.63487  -0.62751  -0.62008
 Alpha  occ. eigenvalues --   -0.61529  -0.60650  -0.59552  -0.59185  -0.58911
 Alpha  occ. eigenvalues --   -0.57695  -0.56776  -0.56282  -0.53558  -0.53274
 Alpha  occ. eigenvalues --   -0.51117  -0.50777  -0.50512  -0.49487  -0.48383
 Alpha  occ. eigenvalues --   -0.46943  -0.46578  -0.46209  -0.45633  -0.44974
 Alpha  occ. eigenvalues --   -0.44746  -0.44431  -0.43771  -0.43412  -0.43171
 Alpha  occ. eigenvalues --   -0.42781  -0.42424  -0.41987  -0.41652  -0.41557
 Alpha  occ. eigenvalues --   -0.41222  -0.41085  -0.40913  -0.40654  -0.40119
 Alpha  occ. eigenvalues --   -0.39980  -0.38575  -0.38445  -0.37448  -0.37381
 Alpha  occ. eigenvalues --   -0.37314  -0.37080  -0.36845  -0.36356  -0.36007
 Alpha  occ. eigenvalues --   -0.35363  -0.34928  -0.34667  -0.34572  -0.34214
 Alpha  occ. eigenvalues --   -0.33536  -0.33393  -0.33213  -0.32756  -0.32621
 Alpha  occ. eigenvalues --   -0.31695  -0.30032  -0.29560  -0.27921  -0.26451
 Alpha  occ. eigenvalues --   -0.25221  -0.24692  -0.24538  -0.24219  -0.22715
 Alpha  occ. eigenvalues --   -0.21364  -0.20629  -0.17692
 Alpha virt. eigenvalues --   -0.03642  -0.02534  -0.01897  -0.01151  -0.00128
 Alpha virt. eigenvalues --    0.00329   0.00938   0.01050   0.03556   0.04324
 Alpha virt. eigenvalues --    0.08689   0.09929   0.10050   0.10329   0.10602

 Mulliken charges:
               1
     1  C   -0.490558
     2  C   -0.098209
     3  C   -0.160442
     4  C    0.100192
     5  C   -0.174774
     6  C   -0.293198
     7  C   -0.440218
     8  C    0.060084
     9  C   -0.169053
    10  C   -0.144976
    11  C   -0.158361
    12  C    0.276788
    13  N   -0.660150
    14  C    0.289124
    15  C   -0.170770
    16  C   -0.189363
    17  C    0.096443
    18  C    0.087978
    19  C   -0.174655
    20  C   -0.185637
    21  C    0.181113
    22  C   -0.530255
    23  C   -0.185542
    24  C   -0.174448
    25  C   -0.188975
    26  C   -0.174702
    27  C    0.288884
    28  C   -0.162490
    29  C   -0.206416
    30  C    0.142493
    31  C   -0.194239
    32  C   -0.137579
    33  C   -0.136589
    34  C   -0.192342
    35  C    0.137032
    36  C   -0.258838
    37  C   -0.214586
    38  H    0.155867
    39  H    0.157130
    40  H    0.152490
    41  H    0.138099
    42  H    0.117969
    43  H    0.131876
    44  H    0.143022
    45  H    0.145012
    46  H    0.142975
    47  H    0.149278
    48  H    0.152480
    49  H    0.133871
    50  H    0.130986
    51  H    0.142074
    52  H    0.144184
    53  H    0.132595
    54  H    0.129137
    55  H    0.121052
    56  H    0.156466
    57  H    0.165438
    58  H    0.156384
    59  H    0.121072
    60  H    0.129679
    61  H    0.133604
    62  H    0.146405
    63  H    0.146334
    64  H    0.131875
    65  H    0.127760
    66  H    0.127490
    67  H    0.128132
    68  H    0.128782
    69  H    0.142114
    70  H    0.145603
 Sum of Mulliken charges =  -0.00000

 Dipole moment (field-independent basis, Debye):
    X=              0.3519    Y=              0.5809    Z=             -0.1722  Tot=              0.7006
 Quadrupole moment (field-independent basis, Debye-Ang):
   XX=           -194.7538   YY=           -204.0497   ZZ=           -211.4338
   XY=             -2.1861   XZ=              1.8142   YZ=             -1.4624

 1\1\GINC-NODE66\FOpt\RB3LYP\6-31G(d)\C36H33N1\WYKGROUP\05-Nov-2022\0\\
 #p b3lyp/6-31g(d) opt SCF=XQC\\Gaussian input prepared by ASE\\0,1\C,-
 7.2443255336,-0.541472047,0.555890186\C,-5.8089923307,-0.6634667562,0.
 1366095289\C,-5.0385681368,-1.7390161172,0.371691669\C,-3.6241468993,-
 1.9029540656,0.0035411312\C,-2.8458184974,-2.8884875967,0.5119961331\C
 ,-3.1905263318,-3.9339235241,1.5365600404\C,-2.3208513226,-3.809770733
 5,2.8023206882\C,-3.0099909819,-0.9518363896,-0.9755795483\C,-3.607777
 4245,-0.6971501466,-2.2214063341\C,-2.9912598866,0.1572544389,-3.13510

 Normal termination of Gaussian 16 at Sat Nov  5 00:46:29 2022.
