 Gaussian 16, Revision B.01,
 Gaussian 16:  ES64L-G16RevB.01 20-Dec-2017

 -------------------------------------------------------------------
 #p b3lyp/6-31g(d) 6D 10F nosymm GFInput td=(50-50,nstate=2) SCF=XQC
 -------------------------------------------------------------------

 ------------------------------
 Gaussian input prepared by ASE
 ------------------------------
 Symbolic Z-matrix:
 Charge =  0 Multiplicity = 1

                          Input orientation:
 ---------------------------------------------------------------------
 Center     Atomic      Atomic             Coordinates (Angstroms)
 Number     Number       Type             X           Y           Z
 ---------------------------------------------------------------------
      1          6           0        3.843131    4.028128    2.988032
      2          6           0        4.521168    3.627541    1.902122
      3          6           0        5.729581    4.374866    1.386046
      4          7           0        4.093975    2.519356    1.113440
      5          6           0        5.038907    1.538367    0.715132
      6          6           0        4.952068    0.933805   -0.550195
      7          6           0        5.883923   -0.018702   -0.943507
      8          6           0        6.948582   -0.398639   -0.105481
      9          6           0        7.947590   -1.407464   -0.537414
     10          6           0        8.387063   -1.466354   -1.871522
     11          6           0        9.325077   -2.413983   -2.278142
     12          6           0        9.849460   -3.325010   -1.359382
     13          6           0        9.424290   -3.279075   -0.030372
     14          6           0        8.483884   -2.333190    0.374676
     15          6           0        7.026579    0.213431    1.155568
     16          6           0        6.085732    1.154082    1.566981
     17          6           0        2.704715    2.256708    0.934696
     18          6           0        2.176450    0.973163    1.133249
     19          6           0        0.822047    0.724199    0.927526
     20          6           0       -0.062417    1.740364    0.528536
     21          6           0       -1.502807    1.472943    0.315869
     22          6           0       -1.957266    0.245394   -0.201102
     23          6           0       -3.304707   -0.014393   -0.405024
     24          6           0       -4.284115    0.953702   -0.096318
     25          7           0       -5.639226    0.704109   -0.326250
     26          6           0       -6.630813    1.740027   -0.068531
     27          6           0       -6.125614   -0.626079   -0.540622
     28          6           0       -6.485606   -1.017802   -1.848061
     29          6           0       -6.317275   -0.157309   -2.978086
     30          6           0       -6.685151   -0.563644   -4.234122
     31          6           0       -7.246118   -1.856511   -4.445872
     32          6           0       -7.414761   -2.714174   -3.392017
     33          6           0       -7.041169   -2.333852   -2.064947
     34          6           0       -7.196984   -3.199923   -0.977997
     35          6           0       -6.830353   -2.825553    0.319359
     36          6           0       -6.992535   -3.710969    1.430537
     37          6           0       -6.643387   -3.325584    2.697030
     38          6           0       -6.108429   -2.025240    2.926641
     39          6           0       -5.935328   -1.145346    1.890252
     40          6           0       -6.285520   -1.507516    0.551479
     41          6           0       -3.840091    2.184772    0.427575
     42          6           0       -2.482868    2.428898    0.621510
     43          6           0        0.481165    3.025344    0.339866
     44          6           0        1.833043    3.281167    0.532437
     45          1           0        4.134090    4.929414    3.516592
     46          1           0        2.965988    3.500633    3.346811
     47          1           0        6.616949    3.738246    1.315776
     48          1           0        5.966383    5.215460    2.043548
     49          1           0        5.535017    4.761185    0.377510
     50          1           0        4.142904    1.212049   -1.218219
     51          1           0        5.778011   -0.487663   -1.917813
     52          1           0        8.007809   -0.744943   -2.590067
     53          1           0        9.654135   -2.434034   -3.313976
     54          1           0       10.581447   -4.063198   -1.675788
     55          1           0        9.818270   -3.988719    0.692696
     56          1           0        8.139812   -2.326647    1.405290
     57          1           0        7.842615   -0.043111    1.825506
     58          1           0        6.154779    1.596122    2.556741
     59          1           0        2.830072    0.170490    1.459951
     60          1           0        0.437521   -0.273747    1.119427
     61          1           0       -1.233994   -0.516033   -0.480673
     62          1           0       -3.608318   -0.967883   -0.823449
     63          1           0       -6.370450    2.667438   -0.593118
     64          1           0       -7.597289    1.396610   -0.441703
     65          1           0       -6.737892    1.969977    1.003417
     66          1           0       -5.878342    0.821703   -2.818648
     67          1           0       -6.544493    0.101993   -5.081507
     68          1           0       -7.533551   -2.158559   -5.449247
     69          1           0       -7.836019   -3.704917   -3.545256
     70          1           0       -7.615195   -4.190487   -1.145068
     71          1           0       -7.401864   -4.701222    1.245117
     72          1           0       -6.771429   -4.008215    3.532597
     73          1           0       -5.833447   -1.732046    3.936192
     74          1           0       -5.516262   -0.162000    2.072765
     75          1           0       -4.552260    2.953585    0.704954
     76          1           0       -2.184811    3.380150    1.054594
     77          1           0       -0.162139    3.830940   -0.003479
     78          1           0        2.226063    4.279104    0.364938
 ---------------------------------------------------------------------

 SCF Done:  E(RB3LYP) =  -1730.45785275     A.U. after   16 cycles

 Excitation energies and oscillator strengths:

 Excited state symmetry could not be determined.
 Excited State   1:      Triplet-?Sym    1.7392 eV  712.89 nm  f=0.0000  <S**2>=2.000
     148 ->151         0.54162
     149 ->151         0.41068
     150 ->151        -0.16599
     148 <-151         0.11464
 This state for optimization and/or second-order correction.
 Total Energy, E(TD-HF/TD-DFT) =  -1730.39393874
 Copying the excited state density for this state as the 1-particle RhoCI density.

 Excited state symmetry could not be determined.
 Excited State   2:      Singlet-?Sym    2.3675 eV  523.70 nm  f=0.0188  <S**2>=0.000
     148 ->151         0.11592
     149 ->151        -0.19955
     150 ->151         0.66619

 Excited state symmetry could not be determined.
 Excited State   3:      Triplet-?Sym    2.3701 eV  523.12 nm  f=0.0000  <S**2>=2.000
     148 ->151         0.26742
     149 ->151        -0.10114
     150 ->151         0.64090

 Excited state symmetry could not be determined.
 Excited State   4:      Singlet-?Sym    2.9886 eV  414.86 nm  f=0.0107  <S**2>=0.000
     148 ->151        -0.17346
     149 ->151         0.64149
     150 ->151         0.22831

 Alpha  occ. eigenvalues --  -14.35653 -14.35332 -10.22716 -10.22386 -10.22368
 Alpha  occ. eigenvalues --  -10.22361 -10.21983 -10.21809 -10.20242 -10.20235
 Alpha  occ. eigenvalues --  -10.20203 -10.20175 -10.19507 -10.19466 -10.19414
 Alpha  occ. eigenvalues --  -10.19387 -10.19358 -10.19330 -10.19325 -10.19295
 Alpha  occ. eigenvalues --  -10.19189 -10.19046 -10.19036 -10.18724 -10.18650
 Alpha  occ. eigenvalues --  -10.18646 -10.18633 -10.18619 -10.18513 -10.18456
 Alpha  occ. eigenvalues --  -10.18451 -10.18450 -10.18420 -10.18077 -10.18049
 Alpha  occ. eigenvalues --  -10.18031 -10.18016 -10.17988 -10.17964 -10.17936
 Alpha  occ. eigenvalues --  -10.17911 -10.17734 -10.17480 -10.16656  -0.95474
 Alpha  occ. eigenvalues --   -0.95332  -0.87758  -0.86044  -0.85185  -0.85005
 Alpha  occ. eigenvalues --   -0.83833  -0.82910  -0.80069  -0.78419  -0.78089
 Alpha  occ. eigenvalues --   -0.76967  -0.75256  -0.74952  -0.74459  -0.74039
 Alpha  occ. eigenvalues --   -0.73996  -0.73691  -0.73324  -0.72114  -0.70984
 Alpha  occ. eigenvalues --   -0.69941  -0.68213  -0.67247  -0.64529  -0.62573
 Alpha  occ. eigenvalues --   -0.62131  -0.61924  -0.61219  -0.60908  -0.59351
 Alpha  occ. eigenvalues --   -0.59170  -0.58666  -0.58340  -0.57314  -0.56320
 Alpha  occ. eigenvalues --   -0.54531  -0.54181  -0.53007  -0.52774  -0.52330
 Alpha  occ. eigenvalues --   -0.51380  -0.50205  -0.48435  -0.47862  -0.47548
 Alpha  occ. eigenvalues --   -0.47300  -0.46834  -0.46302  -0.46174  -0.45673
 Alpha  occ. eigenvalues --   -0.44808  -0.44196  -0.43974  -0.43848  -0.43783
 Alpha  occ. eigenvalues --   -0.43462  -0.43088  -0.42924  -0.42294  -0.41960
 Alpha  occ. eigenvalues --   -0.41809  -0.41502  -0.41340  -0.41223  -0.40889
 Alpha  occ. eigenvalues --   -0.40858  -0.40683  -0.40171  -0.39662  -0.39531
 Alpha  occ. eigenvalues --   -0.38884  -0.38149  -0.37911  -0.37358  -0.37262
 Alpha  occ. eigenvalues --   -0.36644  -0.36162  -0.36132  -0.35611  -0.35212
 Alpha  occ. eigenvalues --   -0.34856  -0.34813  -0.34278  -0.33928  -0.33848
 Alpha  occ. eigenvalues --   -0.33567  -0.33175  -0.32909  -0.32404  -0.30470
 Alpha  occ. eigenvalues --   -0.30331  -0.29674  -0.28852  -0.26644  -0.25717
 Alpha  occ. eigenvalues --   -0.25171  -0.24917  -0.24569  -0.24279  -0.24100
 Alpha  occ. eigenvalues --   -0.24000  -0.22682  -0.19861  -0.19152  -0.17086
 Alpha virt. eigenvalues --   -0.06657  -0.02597  -0.01624  -0.01160  -0.00324
 Alpha virt. eigenvalues --    0.00346   0.00435   0.00858   0.01300   0.02242
 Alpha virt. eigenvalues --    0.03577   0.03999   0.06171   0.06279   0.09258

 Mulliken charges:
               1
     1  C   -0.411417
     2  C    0.335276
     3  C   -0.508415
     4  N   -0.620008
     5  C    0.288694
     6  C   -0.159712
     7  C   -0.188478
     8  C    0.094636
     9  C    0.089715
    10  C   -0.175033
    11  C   -0.133692
    12  C   -0.127860
    13  C   -0.133762
    14  C   -0.174931
    15  C   -0.189275
    16  C   -0.184697
    17  C    0.280051
    18  C   -0.172431
    19  C   -0.193124
    20  C    0.099935
    21  C    0.093897
    22  C   -0.188531
    23  C   -0.183925
    24  C    0.348655
    25  N   -0.579183
    26  C   -0.312157
    27  C    0.040707
    28  C    0.135911
    29  C   -0.185591
    30  C   -0.137144
    31  C   -0.137974
    32  C   -0.186823
    33  C    0.134112
    34  C   -0.286740
    35  C    0.134865
    36  C   -0.186963
    37  C   -0.137149
    38  C   -0.140268
    39  C   -0.186205
    40  C    0.158745
    41  C   -0.207713
    42  C   -0.189376
    43  C   -0.192552
    44  C   -0.154544
    45  H    0.135361
    46  H    0.151487
    47  H    0.170320
    48  H    0.154327
    49  H    0.162147
    50  H    0.144222
    51  H    0.133707
    52  H    0.130687
    53  H    0.128743
    54  H    0.127725
    55  H    0.128658
    56  H    0.130379
    57  H    0.132831
    58  H    0.143290
    59  H    0.141849
    60  H    0.131278
    61  H    0.128933
    62  H    0.139423
    63  H    0.160100
    64  H    0.172217
    65  H    0.150618
    66  H    0.148024
    67  H    0.132480
    68  H    0.132108
    69  H    0.131633
    70  H    0.130394
    71  H    0.131526
    72  H    0.132265
    73  H    0.133575
    74  H    0.148980
    75  H    0.123250
    76  H    0.126198
    77  H    0.128528
    78  H    0.133208
 Sum of Mulliken charges =  -0.00000

 Dipole moment (field-independent basis, Debye):
    X=             -2.1387    Y=             -0.2676    Z=             -0.2523  Tot=              2.1701
 Quadrupole moment (field-independent basis, Debye-Ang):
   XX=           -229.6561   YY=           -234.6209   ZZ=           -239.2126
   XY=              2.3268   XZ=              3.3462   YZ=              0.6482

 Normal termination of Gaussian 16 at Sat Nov  5 10:29:10 2022.
