 Gaussian 16, Revision B.01,
 Gaussian 16:  ES64L-G16RevB.01 20-Dec-2017

 -------------------------------------------------------------------
 #p b3lyp/6-31g(d) 6D 10F nosymm GFInput td=(50-50,nstate=2) SCF=XQC
 -------------------------------------------------------------------

 ------------------------------
 Gaussian input prepared by ASE
 ------------------------------
 Symbolic Z-matrix:
 Charge =  0 Multiplicity = 1

                          Input orientation:
 ---------------------------------------------------------------------
 Center     Atomic      Atomic             Coordinates (Angstroms)
 Number     Number       Type             X           Y           Z
 ---------------------------------------------------------------------
      1          6           0       -7.244326   -0.541472    0.555890
      2          6           0       -5.808992   -0.663467    0.136610
      3          6           0       -5.038568   -1.739016    0.371692
      4          6           0       -3.624147   -1.902954    0.003541
      5          6           0       -2.845818   -2.888488    0.511996
      6          6           0       -3.190526   -3.933924    1.536560
      7          6           0       -2.320851   -3.809771    2.802321
      8          6           0       -3.009991   -0.951836   -0.975580
      9          6           0       -3.607777   -0.697150   -2.221406
     10          6           0       -2.991260    0.157254   -3.135103
     11          6           0       -1.775239    0.767879   -2.834799
     12          6           0       -1.169561    0.534600   -1.591774
     13          7           0        0.072181    1.153459   -1.266641
     14          6           0        1.087739    0.397721   -0.625599
     15          6           0        1.357446   -0.922109   -1.024551
     16          6           0        2.349342   -1.663429   -0.392749
     17          6           0        3.126506   -1.121355    0.646296
     18          6           0        4.190957   -1.913416    1.309153
     19          6           0        4.982525   -2.821374    0.585774
     20          6           0        5.978978   -3.566835    1.211376
     21          6           0        6.233112   -3.435915    2.582696
     22          6           0        7.336585   -4.220908    3.252222
     23          6           0        5.443026   -2.533361    3.306227
     24          6           0        4.443649   -1.787631    2.685647
     25          6           0        2.852712    0.202173    1.030106
     26          6           0        1.849266    0.947012    0.418324
     27          6           0        0.259876    2.539315   -1.508157
     28          6           0        1.520352    3.004125   -1.987443
     29          6           0        1.722868    4.337513   -2.243347
     30          6           0        0.686961    5.293054   -2.056532
     31          6           0        0.865070    6.675824   -2.319402
     32          6           0       -0.164701    7.570122   -2.124484
     33          6           0       -1.421408    7.114769   -1.655987
     34          6           0       -1.626525    5.778349   -1.394625
     35          6           0       -0.584966    4.829428   -1.586739
     36          6           0       -0.763660    3.450121   -1.310133
     37          6           0       -1.798947   -0.315683   -0.671408
     38          1           0       -7.900518   -0.374516   -0.309819
     39          1           0       -7.390676    0.317888    1.224989
     40          1           0       -7.593162   -1.439816    1.076704
     41          1           0       -5.386597    0.193544   -0.385291
     42          1           0       -5.491458   -2.570865    0.908245
     43          1           0       -1.816658   -2.937197    0.154922
     44          1           0       -4.246615   -3.892856    1.820186
     45          1           0       -3.025904   -4.929352    1.097047
     46          1           0       -2.547154   -4.613234    3.512724
     47          1           0       -1.254068   -3.868951    2.556547
     48          1           0       -2.494345   -2.851009    3.303065
     49          1           0       -4.545195   -1.181833   -2.475300
     50          1           0       -3.452664    0.335270   -4.103072
     51          1           0       -1.293915    1.424719   -3.552240
     52          1           0        0.778333   -1.365279   -1.828470
     53          1           0        2.517724   -2.689992   -0.706222
     54          1           0        4.830385   -2.928989   -0.484796
     55          1           0        6.576754   -4.258051    0.620776
     56          1           0        7.107446   -4.416702    4.305326
     57          1           0        8.289344   -3.674716    3.224103
     58          1           0        7.501538   -5.184115    2.757354
     59          1           0        5.604833   -2.420242    4.376234
     60          1           0        3.829490   -1.119347    3.283162
     61          1           0        3.443060    0.663705    1.816786
     62          1           0        1.655794    1.964195    0.743636
     63          1           0        2.316498    2.286054   -2.154295
     64          1           0        2.688077    4.676210   -2.612924
     65          1           0        1.832780    7.019213   -2.678422
     66          1           0       -0.016697    8.626966   -2.329000
     67          1           0       -2.227766    7.827489   -1.504170
     68          1           0       -2.592014    5.429306   -1.035822
     69          1           0       -1.726045    3.107998   -0.941357
     70          1           0       -1.342501   -0.478127    0.299422
 ---------------------------------------------------------------------

 SCF Done:  E(RB3LYP) =  -1446.46433399     A.U. after   15 cycles

 Excitation energies and oscillator strengths:

 Excited state symmetry could not be determined.
 Excited State   1:      Triplet-?Sym    2.5179 eV  492.41 nm  f=0.0000  <S**2>=2.000
     126 ->129        -0.34642
     128 ->129         0.55442
     128 ->132         0.11157
 This state for optimization and/or second-order correction.
 Total Energy, E(TD-HF/TD-DFT) =  -1446.37180244
 Copying the excited state density for this state as the 1-particle RhoCI density.

 Excited state symmetry could not be determined.
 Excited State   2:      Triplet-?Sym    2.6763 eV  463.27 nm  f=0.0000  <S**2>=2.000
     127 ->130         0.21624
     127 ->131         0.55652
     127 ->133        -0.16672
     127 ->135         0.10119
     128 ->130         0.15081
     128 ->131         0.13694
     127 <-131         0.10679

 Excited state symmetry could not be determined.
 Excited State   3:      Singlet-?Sym    3.3116 eV  374.39 nm  f=0.1726  <S**2>=0.000
     128 ->129         0.68753

 Excited state symmetry could not be determined.
 Excited State   4:      Singlet-?Sym    3.6182 eV  342.67 nm  f=0.5101  <S**2>=0.000
     128 ->129        -0.10315
     128 ->130         0.68795

 Alpha  occ. eigenvalues --  -14.36318 -10.22835 -10.22723 -10.22602 -10.19473
 Alpha  occ. eigenvalues --  -10.19461 -10.19320 -10.19284 -10.19249 -10.19195
 Alpha  occ. eigenvalues --  -10.19167 -10.18975 -10.18810 -10.18784 -10.18777
 Alpha  occ. eigenvalues --  -10.18756 -10.18710 -10.18684 -10.18588 -10.18569
 Alpha  occ. eigenvalues --  -10.18556 -10.18540 -10.18540 -10.18499 -10.18489
 Alpha  occ. eigenvalues --  -10.18443 -10.18435 -10.18321 -10.18317 -10.18316
 Alpha  occ. eigenvalues --  -10.18275 -10.18246 -10.18199 -10.18161 -10.18141
 Alpha  occ. eigenvalues --  -10.18131 -10.17470  -0.96219  -0.86740  -0.86191
 Alpha  occ. eigenvalues --   -0.85332  -0.84015  -0.81699  -0.80901  -0.78141
 Alpha  occ. eigenvalues --   -0.77888  -0.76745  -0.75784  -0.75052  -0.74280
 Alpha  occ. eigenvalues --   -0.73973  -0.73614  -0.72259  -0.71459  -0.70512
 Alpha  occ. eigenvalues --   -0.67719  -0.67380  -0.63487  -0.62751  -0.62008
 Alpha  occ. eigenvalues --   -0.61529  -0.60650  -0.59552  -0.59185  -0.58911
 Alpha  occ. eigenvalues --   -0.57695  -0.56776  -0.56282  -0.53558  -0.53274
 Alpha  occ. eigenvalues --   -0.51117  -0.50777  -0.50512  -0.49487  -0.48383
 Alpha  occ. eigenvalues --   -0.46943  -0.46578  -0.46209  -0.45633  -0.44974
 Alpha  occ. eigenvalues --   -0.44746  -0.44431  -0.43771  -0.43412  -0.43171
 Alpha  occ. eigenvalues --   -0.42781  -0.42424  -0.41987  -0.41652  -0.41557
 Alpha  occ. eigenvalues --   -0.41222  -0.41085  -0.40913  -0.40654  -0.40119
 Alpha  occ. eigenvalues --   -0.39980  -0.38575  -0.38445  -0.37448  -0.37381
 Alpha  occ. eigenvalues --   -0.37314  -0.37080  -0.36845  -0.36356  -0.36007
 Alpha  occ. eigenvalues --   -0.35363  -0.34928  -0.34667  -0.34572  -0.34214
 Alpha  occ. eigenvalues --   -0.33536  -0.33393  -0.33213  -0.32756  -0.32621
 Alpha  occ. eigenvalues --   -0.31695  -0.30032  -0.29560  -0.27921  -0.26451
 Alpha  occ. eigenvalues --   -0.25221  -0.24692  -0.24538  -0.24219  -0.22715
 Alpha  occ. eigenvalues --   -0.21364  -0.20629  -0.17692
 Alpha virt. eigenvalues --   -0.03642  -0.02534  -0.01897  -0.01151  -0.00128
 Alpha virt. eigenvalues --    0.00329   0.00938   0.01050   0.03556   0.04324
 Alpha virt. eigenvalues --    0.08689   0.09929   0.10050   0.10329   0.10602

 Mulliken charges:
               1
     1  C   -0.490559
     2  C   -0.098203
     3  C   -0.160445
     4  C    0.100198
     5  C   -0.174782
     6  C   -0.293195
     7  C   -0.440212
     8  C    0.060048
     9  C   -0.169025
    10  C   -0.144987
    11  C   -0.158359
    12  C    0.276763
    13  N   -0.660143
    14  C    0.289144
    15  C   -0.170775
    16  C   -0.189359
    17  C    0.096441
    18  C    0.087977
    19  C   -0.174660
    20  C   -0.185631
    21  C    0.181118
    22  C   -0.530255
    23  C   -0.185546
    24  C   -0.174444
    25  C   -0.188982
    26  C   -0.174707
    27  C    0.288892
    28  C   -0.162494
    29  C   -0.206418
    30  C    0.142498
    31  C   -0.194244
    32  C   -0.137576
    33  C   -0.136589
    34  C   -0.192343
    35  C    0.137035
    36  C   -0.258843
    37  C   -0.214569
    38  H    0.155868
    39  H    0.157130
    40  H    0.152490
    41  H    0.138095
    42  H    0.117970
    43  H    0.131877
    44  H    0.143021
    45  H    0.145011
    46  H    0.142974
    47  H    0.149274
    48  H    0.152479
    49  H    0.133871
    50  H    0.130987
    51  H    0.142077
    52  H    0.144184
    53  H    0.132595
    54  H    0.129138
    55  H    0.121051
    56  H    0.156466
    57  H    0.165437
    58  H    0.156383
    59  H    0.121072
    60  H    0.129678
    61  H    0.133604
    62  H    0.146408
    63  H    0.146333
    64  H    0.131874
    65  H    0.127762
    66  H    0.127489
    67  H    0.128132
    68  H    0.128781
    69  H    0.142114
    70  H    0.145604
 Sum of Mulliken charges =  -0.00000

 Dipole moment (field-independent basis, Debye):
    X=             -0.1749    Y=             -0.5553    Z=              0.3899  Tot=              0.7007
 Quadrupole moment (field-independent basis, Debye-Ang):
   XX=           -196.7834   YY=           -203.7404   ZZ=           -210.2138
   XY=             -4.4811   XZ=              1.5306   YZ=             -3.6123

 Normal termination of Gaussian 16 at Sat Nov  5 10:22:43 2022.
