 Gaussian 16, Revision B.01,
 Gaussian 16:  ES64L-G16RevB.01 20-Dec-2017

 -------------------------------------------------------------------
 #p b3lyp/6-31g(d) 6D 10F nosymm GFInput td=(50-50,nstate=2) SCF=XQC
 -------------------------------------------------------------------

 ------------------------------
 Gaussian input prepared by ASE
 ------------------------------
 Symbolic Z-matrix:
 Charge =  0 Multiplicity = 1

                          Input orientation:
 ---------------------------------------------------------------------
 Center     Atomic      Atomic             Coordinates (Angstroms)
 Number     Number       Type             X           Y           Z
 ---------------------------------------------------------------------
      1          6           0      -10.657744    0.716428    0.606447
      2          6           0       -9.226866    1.051561    1.093030
      3          6           0       -9.229644    2.430475    1.779401
      4          6           0       -9.615156    3.479752    0.920076
      5          6           0       -9.809269    4.786600    1.343900
      6          6           0       -9.637330    5.084160    2.694715
      7          6           0       -9.204120    4.084471    3.551961
      8          6           0       -8.934219    2.758095    3.131314
      9          6           0       -8.303058    1.882660    4.176848
     10          6           0       -7.422247    2.493181    5.094321
     11          6           0       -6.846782    1.794729    6.152175
     12          6           0       -7.132235    0.441878    6.322156
     13          6           0       -7.959045   -0.192815    5.398303
     14          6           0       -8.535625    0.497242    4.325272
     15          6           0       -9.297032   -0.279029    3.284553
     16          6           0       -8.604422   -0.117892    1.903028
     17          6           0       -8.528547   -1.402147    1.081125
     18          6           0       -9.539719   -2.385108    1.117278
     19          6           0       -9.473497   -3.554753    0.356637
     20          6           0       -8.358558   -3.715584   -0.449660
     21          8           0       -8.111437   -4.800622   -1.265384
     22          6           0       -6.903073   -4.553915   -1.870580
     23          6           0       -6.295658   -5.413960   -2.775797
     24          6           0       -5.077173   -4.952493   -3.255217
     25          8           0       -4.296724   -5.633431   -4.159416
     26          6           0       -3.184767   -4.847967   -4.372426
     27          6           0       -2.135506   -5.158118   -5.223692
     28          6           0       -1.096537   -4.231954   -5.307120
     29          6           0       -1.098745   -3.027782   -4.566746
     30          6           0        0.030619   -2.071153   -4.688405
     31          6           0        0.653384   -1.830418   -5.924505
     32          6           0        1.711878   -0.934249   -6.037557
     33          6           0        2.194800   -0.232092   -4.920751
     34          6           0        3.325304    0.723546   -5.040082
     35          6           0        3.435814    1.560732   -6.173885
     36          6           0        4.480637    2.471041   -6.328106
     37          6           0        5.419278    2.525064   -5.309468
     38          8           0        6.519943    3.355314   -5.282698
     39          6           0        7.176415    3.080639   -4.107946
     40          6           0        8.344625    3.712279   -3.703269
     41          6           0        8.824760    3.267819   -2.478750
     42          8           0        9.964868    3.746917   -1.877529
     43          6           0       10.091894    3.057083   -0.692695
     44          6           0       11.112395    3.234537    0.229372
     45          6           0       11.078256    2.435013    1.371830
     46          6           0       10.038715    1.508217    1.583189
     47          7           0       10.036000    0.718735    2.766712
     48          6           0        9.995813    1.208556    4.076508
     49          6           0        9.927724    2.529742    4.527051
     50          6           0        9.882985    2.743255    5.903153
     51          6           0        9.900919    1.671135    6.812161
     52          6           0        9.958087    0.357183    6.356508
     53          6           0       10.003412    0.113840    4.978661
     54          6           0       10.050442   -1.090583    4.175954
     55          6           0       10.087197   -2.456200    4.481773
     56          6           0       10.146524   -3.382680    3.444751
     57          6           0       10.175210   -2.956246    2.105578
     58          6           0       10.138874   -1.603726    1.772938
     59          6           0       10.068733   -0.679051    2.818478
     60          6           0        9.013476    1.354276    0.644150
     61          6           0        9.046854    2.131520   -0.516423
     62          6           0        8.204058    2.265588   -1.692067
     63          6           0        7.028347    1.654898   -2.135943
     64          6           0        6.511214    2.073115   -3.363582
     65          6           0        5.351129    1.714799   -4.162916
     66          6           0        4.297069    0.808374   -4.030932
     67          6           0        1.570033   -0.470230   -3.685267
     68          6           0        0.515439   -1.370756   -3.571229
     69          6           0       -2.180347   -2.750087   -3.716239
     70          6           0       -3.231110   -3.664194   -3.615108
     71          6           0       -4.481214   -3.723599   -2.875732
     72          6           0       -5.126398   -2.886830   -1.961997
     73          6           0       -6.356044   -3.313358   -1.454962
     74          6           0       -7.324424   -2.766745   -0.519087
     75          6           0       -7.415897   -1.606882    0.255340
     76          1           0      -11.353321    0.602509    1.445347
     77          1           0      -10.663694   -0.210573    0.026632
     78          1           0      -11.055083    1.510499   -0.030158
     79          1           0       -8.608632    1.155021    0.189565
     80          1           0       -9.771750    3.248659   -0.130592
     81          1           0      -10.110042    5.552872    0.634538
     82          1           0       -9.829475    6.083038    3.076884
     83          1           0       -9.078152    4.323971    4.602127
     84          1           0       -7.161189    3.537496    4.959841
     85          1           0       -6.171568    2.307491    6.831970
     86          1           0       -6.698016   -0.119292    7.145175
     87          1           0       -8.158075   -1.257408    5.497873
     88          1           0      -10.341140    0.053241    3.231309
     89          1           0       -9.320139   -1.332621    3.577909
     90          1           0       -7.564540    0.166133    2.104140
     91          1           0      -10.405034   -2.235062    1.755675
     92          1           0      -10.255851   -4.305519    0.393797
     93          1           0       -6.732050   -6.357744   -3.079589
     94          1           0       -2.122686   -6.084363   -5.788365
     95          1           0       -0.245005   -4.456039   -5.942267
     96          1           0        0.293064   -2.340941   -6.813350
     97          1           0        2.182662   -0.788512   -7.005921
     98          1           0        2.667076    1.511650   -6.938939
     99          1           0        4.553841    3.115964   -7.197356
    100          1           0        8.835637    4.480283   -4.288448
    101          1           0       11.906968    3.953077    0.059395
    102          1           0       11.865923    2.515455    2.113732
    103          1           0        9.905782    3.361506    3.830397
    104          1           0        9.830544    3.761729    6.278513
    105          1           0        9.866499    1.871959    7.879171
    106          1           0        9.963883   -0.470724    7.060831
    107          1           0       10.073201   -2.787629    5.516901
    108          1           0       10.174368   -4.444960    3.670145
    109          1           0       10.229457   -3.694788    1.310247
    110          1           0       10.169483   -1.280946    0.737314
    111          1           0        8.211954    0.646736    0.831101
    112          1           0        6.536262    0.884879   -1.549112
    113          1           0        4.239975    0.152434   -3.167240
    114          1           0        1.905317    0.069411   -2.803753
    115          1           0        0.069759   -1.546067   -2.595926
    116          1           0       -2.208244   -1.816348   -3.162226
    117          1           0       -4.688635   -1.940742   -1.657243
    118          1           0       -6.622290   -0.863544    0.226154
 ---------------------------------------------------------------------

 SCF Done:  E(RB3LYP) =  -3049.09495550     A.U. after   16 cycles

 Excitation energies and oscillator strengths:

 Excited state symmetry could not be determined.
 Excited State   1:      Triplet-?Sym    2.9315 eV  422.94 nm  f=0.0000  <S**2>=2.000
     237 -> 252       -0.10259
     238 -> 260        0.10107
     244 -> 252        0.17216
     244 -> 254       -0.12290
     245 -> 252        0.13289
     245 -> 253        0.11553
     246 -> 252       -0.10471
     246 -> 255        0.17900
     247 -> 252       -0.11048
     248 -> 257        0.14841
     250 -> 252       -0.18345
     250 -> 253        0.22555
     250 -> 254       -0.27306
     250 -> 255        0.13112
     251 -> 252        0.15858
 This state for optimization and/or second-order correction.
 Total Energy, E(TD-HF/TD-DFT) =  -3048.98722437
 Copying the excited state density for this state as the 1-particle RhoCI density.

 Excited state symmetry could not be determined.
 Excited State   2:      Triplet-?Sym    2.9978 eV  413.59 nm  f=0.0000  <S**2>=2.000
     237 -> 252        0.10398
     239 -> 253        0.11519
     244 -> 252       -0.21685
     245 -> 252       -0.18331
     245 -> 253        0.20207
     246 -> 255       -0.17049
     247 -> 252        0.10553
     247 -> 253       -0.11482
     248 -> 257        0.21676
     250 -> 252        0.13969
     250 -> 253        0.29752
     251 -> 252       -0.19883

 Excited state symmetry could not be determined.
 Excited State   3:      Singlet-?Sym    3.4723 eV  357.07 nm  f=0.0083  <S**2>=0.000
     251 -> 252        0.68968
     251 -> 255        0.12916

 Excited state symmetry could not be determined.
 Excited State   4:      Singlet-?Sym    3.8704 eV  320.34 nm  f=0.0140  <S**2>=0.000
     245 -> 252       -0.13980
     246 -> 254       -0.10982
     247 -> 252        0.13481
     250 -> 252        0.63487
     251 -> 254        0.10049
     251 -> 255        0.10705

 Alpha  occ. eigenvalues --  -19.21998 -19.21749 -19.21369 -19.21226 -14.38067
 Alpha  occ. eigenvalues --  -10.26417 -10.26336 -10.25929 -10.25838 -10.25807
 Alpha  occ. eigenvalues --  -10.25429 -10.25131 -10.24889 -10.24188 -10.22261
 Alpha  occ. eigenvalues --  -10.22251 -10.21408 -10.21309 -10.21132 -10.21015
 Alpha  occ. eigenvalues --  -10.21005 -10.20979 -10.20976 -10.20872 -10.20806
 Alpha  occ. eigenvalues --  -10.20693 -10.20640 -10.20536 -10.20498 -10.20492
 Alpha  occ. eigenvalues --  -10.20428 -10.20391 -10.20330 -10.20327 -10.20293
 Alpha  occ. eigenvalues --  -10.20277 -10.20245 -10.20209 -10.20132 -10.20079
 Alpha  occ. eigenvalues --  -10.20054 -10.20035 -10.20030 -10.19910 -10.19901
 Alpha  occ. eigenvalues --  -10.19883 -10.19748 -10.19721 -10.19716 -10.19613
 Alpha  occ. eigenvalues --  -10.19397 -10.19394 -10.19381 -10.19334 -10.19332
 Alpha  occ. eigenvalues --  -10.18700 -10.18688 -10.18685 -10.18684 -10.18681
 Alpha  occ. eigenvalues --  -10.18642 -10.18638 -10.18612 -10.18603 -10.18601
 Alpha  occ. eigenvalues --  -10.18578 -10.18544 -10.18522 -10.18468 -10.18464
 Alpha  occ. eigenvalues --  -10.18447 -10.18419 -10.18001 -10.18000 -10.17418
 Alpha  occ. eigenvalues --   -1.11644  -1.11348  -1.10989  -1.10798  -0.98851
 Alpha  occ. eigenvalues --   -0.87970  -0.87756  -0.87399  -0.87316  -0.87060
 Alpha  occ. eigenvalues --   -0.86709  -0.86209  -0.85119  -0.84467  -0.84244
 Alpha  occ. eigenvalues --   -0.84107  -0.82026  -0.80568  -0.80222  -0.79631
 Alpha  occ. eigenvalues --   -0.79117  -0.78378  -0.77835  -0.77361  -0.76807
 Alpha  occ. eigenvalues --   -0.76176  -0.75953  -0.75840  -0.74946  -0.74734
 Alpha  occ. eigenvalues --   -0.74547  -0.73930  -0.73286  -0.72654  -0.72358
 Alpha  occ. eigenvalues --   -0.71889  -0.71613  -0.71309  -0.71139  -0.69788
 Alpha  occ. eigenvalues --   -0.67570  -0.66934  -0.65593  -0.65373  -0.64822
 Alpha  occ. eigenvalues --   -0.63802  -0.63017  -0.62366  -0.61915  -0.61416
 Alpha  occ. eigenvalues --   -0.61250  -0.60688  -0.60235  -0.60019  -0.59766
 Alpha  occ. eigenvalues --   -0.59335  -0.59194  -0.58633  -0.58173  -0.58019
 Alpha  occ. eigenvalues --   -0.57394  -0.57195  -0.56280  -0.55853  -0.55304
 Alpha  occ. eigenvalues --   -0.55213  -0.53884  -0.53140  -0.52730  -0.52369
 Alpha  occ. eigenvalues --   -0.51598  -0.51267  -0.51058  -0.50263  -0.49621
 Alpha  occ. eigenvalues --   -0.49384  -0.49002  -0.48773  -0.48488  -0.48327
 Alpha  occ. eigenvalues --   -0.47948  -0.47507  -0.47381  -0.46955  -0.46882
 Alpha  occ. eigenvalues --   -0.46308  -0.46180  -0.46020  -0.45867  -0.45592
 Alpha  occ. eigenvalues --   -0.45509  -0.45364  -0.45164  -0.45100  -0.44890
 Alpha  occ. eigenvalues --   -0.44845  -0.44655  -0.44447  -0.44379  -0.44285
 Alpha  occ. eigenvalues --   -0.43875  -0.43544  -0.43333  -0.43239  -0.43126
 Alpha  occ. eigenvalues --   -0.42633  -0.42427  -0.42263  -0.41853  -0.41763
 Alpha  occ. eigenvalues --   -0.41647  -0.41466  -0.41355  -0.41110  -0.40909
 Alpha  occ. eigenvalues --   -0.40611  -0.40192  -0.40112  -0.39984  -0.39706
 Alpha  occ. eigenvalues --   -0.39206  -0.38540  -0.38191  -0.38149  -0.37839
 Alpha  occ. eigenvalues --   -0.37267  -0.37191  -0.36994  -0.36662  -0.36447
 Alpha  occ. eigenvalues --   -0.36179  -0.36146  -0.36117  -0.35937  -0.35852
 Alpha  occ. eigenvalues --   -0.35639  -0.35392  -0.35333  -0.35232  -0.34947
 Alpha  occ. eigenvalues --   -0.34880  -0.34665  -0.34515  -0.34350  -0.34167
 Alpha  occ. eigenvalues --   -0.33730  -0.33555  -0.33497  -0.33296  -0.32841
 Alpha  occ. eigenvalues --   -0.32502  -0.32240  -0.32151  -0.31622  -0.29935
 Alpha  occ. eigenvalues --   -0.29460  -0.29195  -0.28390  -0.27617  -0.27075
 Alpha  occ. eigenvalues --   -0.27009  -0.26035  -0.25502  -0.25274  -0.24897
 Alpha  occ. eigenvalues --   -0.24737  -0.24062  -0.23776  -0.23202  -0.22154
 Alpha  occ. eigenvalues --   -0.22029  -0.21651  -0.21418  -0.21046  -0.20700
 Alpha  occ. eigenvalues --   -0.19620
 Alpha virt. eigenvalues --   -0.05060  -0.04452  -0.03880  -0.03192  -0.02783
 Alpha virt. eigenvalues --   -0.02589  -0.02467  -0.00997  -0.00678  -0.00235
 Alpha virt. eigenvalues --    0.00088   0.00410   0.00899   0.00972   0.01824

 Mulliken charges:
               1
     1  C   -0.458495
     2  C   -0.163230
     3  C    0.132935
     4  C   -0.194873
     5  C   -0.123316
     6  C   -0.135948
     7  C   -0.185144
     8  C    0.024854
     9  C    0.049131
    10  C   -0.186537
    11  C   -0.136001
    12  C   -0.123165
    13  C   -0.198359
    14  C    0.124755
    15  C   -0.375898
    16  C   -0.174314
    17  C    0.148591
    18  C   -0.193865
    19  C   -0.204655
    20  C    0.317197
    21  O   -0.557111
    22  C    0.327403
    23  C   -0.292743
    24  C    0.326379
    25  O   -0.556166
    26  C    0.320741
    27  C   -0.203546
    28  C   -0.186433
    29  C    0.079691
    30  C    0.093176
    31  C   -0.182400
    32  C   -0.182369
    33  C    0.092699
    34  C    0.079861
    35  C   -0.185822
    36  C   -0.203061
    37  C    0.319667
    38  O   -0.555282
    39  C    0.328524
    40  C   -0.291205
    41  C    0.326833
    42  O   -0.555307
    43  C    0.327793
    44  C   -0.211416
    45  C   -0.159729
    46  C    0.252569
    47  N   -0.732471
    48  C    0.311760
    49  C   -0.177543
    50  C   -0.141917
    51  C   -0.145005
    52  C   -0.197320
    53  C    0.059705
    54  C    0.059458
    55  C   -0.197229
    56  C   -0.145126
    57  C   -0.141944
    58  C   -0.178135
    59  C    0.312955
    60  C   -0.225754
    61  C    0.079812
    62  C    0.073811
    63  C   -0.250376
    64  C    0.073843
    65  C    0.088772
    66  C   -0.248567
    67  C   -0.180367
    68  C   -0.180313
    69  C   -0.249318
    70  C    0.087684
    71  C    0.074653
    72  C   -0.252933
    73  C    0.074196
    74  C    0.094556
    75  C   -0.262756
    76  H    0.147475
    77  H    0.159431
    78  H    0.150829
    79  H    0.139806
    80  H    0.126850
    81  H    0.128367
    82  H    0.128628
    83  H    0.137392
    84  H    0.135807
    85  H    0.127679
    86  H    0.128354
    87  H    0.124650
    88  H    0.155520
    89  H    0.148937
    90  H    0.148403
    91  H    0.136647
    92  H    0.147885
    93  H    0.164130
    94  H    0.149681
    95  H    0.137946
    96  H    0.133770
    97  H    0.133325
    98  H    0.139391
    99  H    0.150742
   100  H    0.166648
   101  H    0.156215
   102  H    0.156774
   103  H    0.137715
   104  H    0.126380
   105  H    0.123632
   106  H    0.129454
   107  H    0.129494
   108  H    0.123752
   109  H    0.126563
   110  H    0.137599
   111  H    0.155963
   112  H    0.147445
   113  H    0.140073
   114  H    0.132680
   115  H    0.133365
   116  H    0.138734
   117  H    0.143869
   118  H    0.131451
 Sum of Mulliken charges =  -0.00000

 Dipole moment (field-independent basis, Debye):
    X=             -0.6376    Y=              1.0726    Z=             -0.9569  Tot=              1.5725
 Quadrupole moment (field-independent basis, Debye-Ang):
   XX=           -423.3994   YY=           -410.5345   ZZ=           -405.9787
   XY=              4.0459   XZ=             -8.1552   YZ=              0.3862

 Normal termination of Gaussian 16 at Sat Nov  5 10:52:23 2022.
