 Gaussian 16, Revision B.01,
 Gaussian 16:  ES64L-G16RevB.01 20-Dec-2017

 -----------------------------
 #p b3lyp/6-31g(d) opt SCF=XQC
 -----------------------------

 ------------------------------
 Gaussian input prepared by ASE
 ------------------------------
 Symbolic Z-matrix:
 Charge =  0 Multiplicity = 1

 SCF Done:  E(RB3LYP) =  -3049.07910043     A.U. after   15 cycles
 SCF Done:  E(RB3LYP) =  -3049.09374878     A.U. after   12 cycles
 SCF Done:  E(RB3LYP) =  -3049.09455972     A.U. after   12 cycles
 SCF Done:  E(RB3LYP) =  -3049.09485602     A.U. after   12 cycles
 SCF Done:  E(RB3LYP) =  -3049.09493478     A.U. after   10 cycles
 SCF Done:  E(RB3LYP) =  -3049.09495387     A.U. after   10 cycles
 SCF Done:  E(RB3LYP) =  -3049.09495845     A.U. after    9 cycles
 SCF Done:  E(RB3LYP) =  -3049.09495948     A.U. after    9 cycles
 SCF Done:  E(RB3LYP) =  -3049.09495980     A.U. after    7 cycles
 SCF Done:  E(RB3LYP) =  -3049.09495985     A.U. after    6 cycles
 SCF Done:  E(RB3LYP) =  -3049.09495987     A.U. after    5 cycles
 Optimization completed.
    -- Stationary point found.

                         Standard orientation:
 ---------------------------------------------------------------------
 Center     Atomic      Atomic             Coordinates (Angstroms)
 Number     Number       Type             X           Y           Z
 ---------------------------------------------------------------------
      1          6           0       10.907652    1.349792    1.625584
      2          6           0        9.454828    1.884372    1.622288
      3          6           0        9.316335    2.996269    2.679181
      4          6           0        9.575451    2.552316    3.992118
      5          6           0        9.631809    3.397727    5.090873
      6          6           0        9.444873    4.764765    4.893216
      7          6           0        9.132942    5.222308    3.622282
      8          6           0        9.003403    4.371354    2.496157
      9          6           0        8.483495    5.042992    1.256605
     10          6           0        7.552776    6.090058    1.423138
     11          6           0        7.069189    6.834528    0.350777
     12          6           0        7.501662    6.544441   -0.941276
     13          6           0        8.381246    5.481825   -1.133973
     14          6           0        8.866669    4.720267   -0.064201
     15          6           0        9.695186    3.498181   -0.356604
     16          6           0        8.972630    2.235260    0.188580
     17          6           0        9.026569    1.025987   -0.741659
     18          6           0       10.138716    0.753522   -1.565600
     19          6           0       10.190561   -0.359130   -2.408422
     20          6           0        9.090021   -1.200473   -2.403896
     21          8           0        8.952211   -2.340960   -3.168149
     22          6           0        7.717034   -2.857737   -2.860659
     23          6           0        7.195610   -4.015552   -3.422470
     24          6           0        5.928600   -4.341666   -2.957889
     25          8           0        5.215767   -5.442392   -3.370955
     26          6           0        4.022724   -5.405640   -2.682427
     27          6           0        3.003119   -6.338088   -2.795297
     28          6           0        1.868930   -6.130005   -2.011386
     29          6           0        1.749466   -5.026383   -1.136210
     30          6           0        0.521659   -4.846274   -0.320456
     31          6           0       -0.138350   -5.943695    0.257287
     32          6           0       -1.289051   -5.774119    1.021119
     33          6           0       -1.831795   -4.498405    1.247999
     34          6           0       -3.060599   -4.316469    2.061916
     35          6           0       -3.274849   -5.102985    3.216946
     36          6           0       -4.413989   -4.967012    4.009395
     37          6           0       -5.340641   -4.014347    3.615268
     38          8           0       -6.524433   -3.736583    4.265635
     39          6           0       -7.133084   -2.740959    3.541260
     40          6           0       -8.357941   -2.176515    3.870769
     41          6           0       -8.772301   -1.186965    2.989510
     42          8           0       -9.950322   -0.488459    3.112810
     43          6           0       -9.987553    0.389817    2.053054
     44          6           0      -11.010119    1.291263    1.798352
     45          6           0      -10.875764    2.096705    0.667499
     46          6           0       -9.739401    2.008780   -0.160279
     47          7           0       -9.636876    2.855448   -1.298987
     48          6           0       -9.634291    4.254289   -1.280509
     49          6           0       -9.704438    5.126472   -0.190768
     50          6           0       -9.666573    6.494414   -0.452582
     51          6           0       -9.557231    6.986757   -1.764718
     52          6           0       -9.477074    6.112492   -2.844806
     53          6           0       -9.512308    4.732810   -2.610351
     54          6           0       -9.438120    3.569317   -3.469400
     55          6           0       -9.322916    3.394497   -4.853579
     56          6           0       -9.293905    2.104197   -5.374714
     57          6           0       -9.384754    0.987716   -4.525437
     58          6           0       -9.499276    1.132865   -3.144461
     59          6           0       -9.517240    2.430846   -2.626751
     60          6           0       -8.714878    1.099435    0.122658
     61          6           0       -8.846279    0.269440    1.238899
     62          6           0       -8.037181   -0.769801    1.851889
     63          6           0       -6.807611   -1.363850    1.556041
     64          6           0       -6.353666   -2.364264    2.417746
     65          6           0       -5.171264   -3.207818    2.476593
     66          6           0       -4.023631   -3.363163    1.696290
     67          6           0       -1.170084   -3.400633    0.673105
     68          6           0       -0.022776   -3.570854   -0.095549
     69          6           0        2.804730   -4.104794   -1.049995
     70          6           0        3.949546   -4.291846   -1.827380
     71          6           0        5.207520   -3.584458   -2.000792
     72          6           0        5.769114   -2.425534   -1.459620
     73          6           0        7.043762   -2.061345   -1.899710
     74          6           0        7.958348   -0.971431   -1.603018
     75          6           0        7.932830    0.151528   -0.771333
     76          1           0       11.621514    2.118251    1.308676
     77          1           0       11.007104    0.491118    0.956002
     78          1           0       11.208873    1.029411    2.625742
     79          1           0        8.818204    1.053608    1.959493
     80          1           0        9.743536    1.489730    4.148609
     81          1           0        9.839178    2.997038    6.079447
     82          1           0        9.532164    5.466840    5.717960
     83          1           0        8.994383    6.288044    3.477071
     84          1           0        7.178432    6.309877    2.417309
     85          1           0        6.350583    7.630186    0.528241
     86          1           0        7.140771    7.117983   -1.790761
     87          1           0        8.695712    5.220727   -2.141855
     88          1           0       10.696397    3.587016    0.082809
     89          1           0        9.835914    3.418631   -1.438507
     90          1           0        7.910577    2.493962    0.275683
     91          1           0       10.990274    1.426898   -1.549807
     92          1           0       11.050093   -0.557996   -3.039901
     93          1           0        7.728073   -4.609245   -4.155591
     94          1           0        3.084012   -7.182740   -3.471292
     95          1           0        1.039140   -6.824999   -2.096036
     96          1           0        0.264487   -6.943296    0.119334
     97          1           0       -1.784467   -6.647893    1.435473
     98          1           0       -2.514575   -5.819740    3.511768
     99          1           0       -4.567130   -5.568673    4.899019
    100          1           0       -8.936326   -2.479970    4.734911
    101          1           0      -11.879899    1.353971    2.443401
    102          1           0      -11.658533    2.801795    0.407831
    103          1           0       -9.781184    4.752768    0.825153
    104          1           0       -9.720358    7.193146    0.377970
    105          1           0       -9.531963    8.059355   -1.934782
    106          1           0       -9.384604    6.495125   -3.858007
    107          1           0       -9.260626    4.256671   -5.512598
    108          1           0       -9.203698    1.956472   -6.447121
    109          1           0       -9.368164   -0.011548   -4.952209
    110          1           0       -9.577149    0.266878   -2.495120
    111          1           0       -7.839178    1.056591   -0.517121
    112          1           0       -6.227920   -1.059494    0.689568
    113          1           0       -3.885376   -2.770866    0.796539
    114          1           0       -1.551280   -2.397450    0.843417
    115          1           0        0.450977   -2.701190   -0.542565
    116          1           0        2.737881   -3.267254   -0.361784
    117          1           0        5.235050   -1.830192   -0.724816
    118          1           0        7.063014    0.355097   -0.150693
 ---------------------------------------------------------------------

 The electronic state is 1-A.
 Alpha  occ. eigenvalues --  -19.21998 -19.21749 -19.21369 -19.21226 -14.38067
 Alpha  occ. eigenvalues --  -10.26417 -10.26336 -10.25928 -10.25838 -10.25807
 Alpha  occ. eigenvalues --  -10.25429 -10.25131 -10.24889 -10.24188 -10.22261
 Alpha  occ. eigenvalues --  -10.22251 -10.21408 -10.21309 -10.21132 -10.21015
 Alpha  occ. eigenvalues --  -10.21005 -10.20979 -10.20976 -10.20872 -10.20806
 Alpha  occ. eigenvalues --  -10.20694 -10.20640 -10.20536 -10.20498 -10.20492
 Alpha  occ. eigenvalues --  -10.20428 -10.20391 -10.20330 -10.20327 -10.20293
 Alpha  occ. eigenvalues --  -10.20277 -10.20245 -10.20209 -10.20132 -10.20079
 Alpha  occ. eigenvalues --  -10.20054 -10.20035 -10.20030 -10.19910 -10.19901
 Alpha  occ. eigenvalues --  -10.19883 -10.19748 -10.19721 -10.19716 -10.19613
 Alpha  occ. eigenvalues --  -10.19397 -10.19394 -10.19381 -10.19334 -10.19332
 Alpha  occ. eigenvalues --  -10.18700 -10.18688 -10.18685 -10.18684 -10.18681
 Alpha  occ. eigenvalues --  -10.18642 -10.18638 -10.18612 -10.18603 -10.18601
 Alpha  occ. eigenvalues --  -10.18578 -10.18544 -10.18522 -10.18468 -10.18464
 Alpha  occ. eigenvalues --  -10.18447 -10.18419 -10.18001 -10.18000 -10.17418
 Alpha  occ. eigenvalues --   -1.11644  -1.11348  -1.10989  -1.10798  -0.98851
 Alpha  occ. eigenvalues --   -0.87970  -0.87756  -0.87399  -0.87316  -0.87060
 Alpha  occ. eigenvalues --   -0.86709  -0.86209  -0.85119  -0.84467  -0.84244
 Alpha  occ. eigenvalues --   -0.84107  -0.82026  -0.80568  -0.80222  -0.79631
 Alpha  occ. eigenvalues --   -0.79117  -0.78378  -0.77835  -0.77361  -0.76807
 Alpha  occ. eigenvalues --   -0.76176  -0.75953  -0.75840  -0.74946  -0.74734
 Alpha  occ. eigenvalues --   -0.74547  -0.73930  -0.73286  -0.72654  -0.72358
 Alpha  occ. eigenvalues --   -0.71889  -0.71613  -0.71309  -0.71139  -0.69788
 Alpha  occ. eigenvalues --   -0.67570  -0.66934  -0.65593  -0.65373  -0.64822
 Alpha  occ. eigenvalues --   -0.63801  -0.63017  -0.62366  -0.61915  -0.61416
 Alpha  occ. eigenvalues --   -0.61250  -0.60688  -0.60235  -0.60019  -0.59766
 Alpha  occ. eigenvalues --   -0.59335  -0.59194  -0.58633  -0.58173  -0.58019
 Alpha  occ. eigenvalues --   -0.57394  -0.57195  -0.56280  -0.55853  -0.55304
 Alpha  occ. eigenvalues --   -0.55213  -0.53884  -0.53140  -0.52730  -0.52369
 Alpha  occ. eigenvalues --   -0.51598  -0.51267  -0.51058  -0.50263  -0.49621
 Alpha  occ. eigenvalues --   -0.49384  -0.49002  -0.48773  -0.48488  -0.48327
 Alpha  occ. eigenvalues --   -0.47948  -0.47507  -0.47381  -0.46955  -0.46882
 Alpha  occ. eigenvalues --   -0.46308  -0.46180  -0.46020  -0.45867  -0.45592
 Alpha  occ. eigenvalues --   -0.45509  -0.45364  -0.45164  -0.45100  -0.44890
 Alpha  occ. eigenvalues --   -0.44845  -0.44655  -0.44447  -0.44379  -0.44285
 Alpha  occ. eigenvalues --   -0.43875  -0.43544  -0.43333  -0.43239  -0.43126
 Alpha  occ. eigenvalues --   -0.42633  -0.42427  -0.42263  -0.41853  -0.41763
 Alpha  occ. eigenvalues --   -0.41647  -0.41466  -0.41355  -0.41110  -0.40909
 Alpha  occ. eigenvalues --   -0.40611  -0.40192  -0.40112  -0.39984  -0.39706
 Alpha  occ. eigenvalues --   -0.39206  -0.38540  -0.38191  -0.38149  -0.37839
 Alpha  occ. eigenvalues --   -0.37267  -0.37191  -0.36994  -0.36662  -0.36447
 Alpha  occ. eigenvalues --   -0.36179  -0.36146  -0.36117  -0.35937  -0.35852
 Alpha  occ. eigenvalues --   -0.35639  -0.35392  -0.35333  -0.35232  -0.34947
 Alpha  occ. eigenvalues --   -0.34880  -0.34665  -0.34515  -0.34350  -0.34167
 Alpha  occ. eigenvalues --   -0.33730  -0.33555  -0.33497  -0.33296  -0.32841
 Alpha  occ. eigenvalues --   -0.32502  -0.32240  -0.32151  -0.31622  -0.29935
 Alpha  occ. eigenvalues --   -0.29460  -0.29195  -0.28390  -0.27617  -0.27075
 Alpha  occ. eigenvalues --   -0.27009  -0.26035  -0.25502  -0.25274  -0.24897
 Alpha  occ. eigenvalues --   -0.24737  -0.24062  -0.23776  -0.23202  -0.22154
 Alpha  occ. eigenvalues --   -0.22029  -0.21651  -0.21418  -0.21046  -0.20700
 Alpha  occ. eigenvalues --   -0.19620
 Alpha virt. eigenvalues --   -0.05060  -0.04452  -0.03880  -0.03192  -0.02783
 Alpha virt. eigenvalues --   -0.02588  -0.02467  -0.00997  -0.00678  -0.00235
 Alpha virt. eigenvalues --    0.00088   0.00410   0.00899   0.00972   0.01824

 Mulliken charges:
               1
     1  C   -0.458487
     2  C   -0.163263
     3  C    0.133004
     4  C   -0.194880
     5  C   -0.123319
     6  C   -0.135939
     7  C   -0.185142
     8  C    0.024802
     9  C    0.049111
    10  C   -0.186526
    11  C   -0.136006
    12  C   -0.123166
    13  C   -0.198359
    14  C    0.124776
    15  C   -0.375921
    16  C   -0.174298
    17  C    0.148596
    18  C   -0.193872
    19  C   -0.204657
    20  C    0.317191
    21  O   -0.557109
    22  C    0.327413
    23  C   -0.292730
    24  C    0.326368
    25  O   -0.556164
    26  C    0.320742
    27  C   -0.203552
    28  C   -0.186446
    29  C    0.079717
    30  C    0.093171
    31  C   -0.182396
    32  C   -0.182371
    33  C    0.092707
    34  C    0.079857
    35  C   -0.185840
    36  C   -0.203059
    37  C    0.319667
    38  O   -0.555278
    39  C    0.328518
    40  C   -0.291186
    41  C    0.326803
    42  O   -0.555304
    43  C    0.327816
    44  C   -0.211419
    45  C   -0.159733
    46  C    0.252570
    47  N   -0.732469
    48  C    0.311755
    49  C   -0.177532
    50  C   -0.141919
    51  C   -0.145004
    52  C   -0.197319
    53  C    0.059701
    54  C    0.059452
    55  C   -0.197222
    56  C   -0.145127
    57  C   -0.141949
    58  C   -0.178134
    59  C    0.312969
    60  C   -0.225801
    61  C    0.079843
    62  C    0.073799
    63  C   -0.250344
    64  C    0.073816
    65  C    0.088758
    66  C   -0.248535
    67  C   -0.180365
    68  C   -0.180314
    69  C   -0.249336
    70  C    0.087703
    71  C    0.074644
    72  C   -0.252925
    73  C    0.074184
    74  C    0.094548
    75  C   -0.262740
    76  H    0.147473
    77  H    0.159429
    78  H    0.150828
    79  H    0.139807
    80  H    0.126850
    81  H    0.128368
    82  H    0.128627
    83  H    0.137393
    84  H    0.135808
    85  H    0.127679
    86  H    0.128355
    87  H    0.124650
    88  H    0.155523
    89  H    0.148939
    90  H    0.148400
    91  H    0.136648
    92  H    0.147886
    93  H    0.164130
    94  H    0.149681
    95  H    0.137947
    96  H    0.133770
    97  H    0.133326
    98  H    0.139394
    99  H    0.150742
   100  H    0.166649
   101  H    0.156215
   102  H    0.156774
   103  H    0.137711
   104  H    0.126381
   105  H    0.123632
   106  H    0.129454
   107  H    0.129495
   108  H    0.123753
   109  H    0.126564
   110  H    0.137596
   111  H    0.155963
   112  H    0.147447
   113  H    0.140072
   114  H    0.132680
   115  H    0.133365
   116  H    0.138735
   117  H    0.143868
   118  H    0.131451
 Sum of Mulliken charges =  -0.00000

 Dipole moment (field-independent basis, Debye):
    X=              0.5060    Y=             -0.5215    Z=              1.3946  Tot=              1.5726
 Quadrupole moment (field-independent basis, Debye-Ang):
   XX=           -421.7907   YY=           -406.2200   ZZ=           -411.7031
   XY=              5.9038   XZ=             -7.2553   YZ=             -0.3356

 Normal termination of Gaussian 16 at Sat Nov  5 00:46:03 2022.
