 Gaussian 16, Revision B.01,
 Gaussian 16:  ES64L-G16RevB.01 20-Dec-2017

 -----------------------------
 #p b3lyp/6-31g(d) opt SCF=XQC
 -----------------------------

 ------------------------------
 Gaussian input prepared by ASE
 ------------------------------
 Symbolic Z-matrix:
 Charge =  0 Multiplicity = 1

 SCF Done:  E(RB3LYP) =  -1688.77661318     A.U. after   15 cycles
 SCF Done:  E(RB3LYP) =  -1688.78507224     A.U. after   13 cycles
 SCF Done:  E(RB3LYP) =  -1688.78543934     A.U. after   12 cycles
 SCF Done:  E(RB3LYP) =  -1688.78556032     A.U. after   12 cycles
 SCF Done:  E(RB3LYP) =  -1688.78561301     A.U. after   12 cycles
 SCF Done:  E(RB3LYP) =  -1688.78564119     A.U. after   11 cycles
 SCF Done:  E(RB3LYP) =  -1688.78564671     A.U. after   11 cycles
 SCF Done:  E(RB3LYP) =  -1688.78564816     A.U. after   10 cycles
 SCF Done:  E(RB3LYP) =  -1688.78565069     A.U. after   11 cycles
 SCF Done:  E(RB3LYP) =  -1688.78565250     A.U. after   10 cycles
 SCF Done:  E(RB3LYP) =  -1688.78565359     A.U. after    7 cycles
 SCF Done:  E(RB3LYP) =  -1688.78565362     A.U. after    6 cycles
 SCF Done:  E(RB3LYP) =  -1688.78565368     A.U. after    7 cycles
 SCF Done:  E(RB3LYP) =  -1688.78565376     A.U. after    7 cycles
 SCF Done:  E(RB3LYP) =  -1688.78565390     A.U. after    9 cycles
 SCF Done:  E(RB3LYP) =  -1688.78565408     A.U. after    9 cycles
 SCF Done:  E(RB3LYP) =  -1688.78565421     A.U. after    9 cycles
 SCF Done:  E(RB3LYP) =  -1688.78565428     A.U. after    7 cycles
 SCF Done:  E(RB3LYP) =  -1688.78565430     A.U. after    7 cycles
 SCF Done:  E(RB3LYP) =  -1688.78565430     A.U. after    6 cycles
 Optimization completed.
    -- Stationary point found.

                         Standard orientation:
 ---------------------------------------------------------------------
 Center     Atomic      Atomic             Coordinates (Angstroms)
 Number     Number       Type             X           Y           Z
 ---------------------------------------------------------------------
      1          6           0       10.937426    0.584308    0.152221
      2          6           0        9.429227    0.494688    0.124859
      3          6           0        8.756673   -0.042496   -0.980241
      4          6           0        7.366426   -0.152455   -0.996192
      5          6           0        6.597994    0.274725    0.096383
      6          6           0        5.104645    0.161650    0.080106
      7          6           0        4.471241   -0.922898    0.725889
      8          6           0        5.222228   -1.942606    1.396895
      9          6           0        4.602982   -2.984414    2.034039
     10          6           0        3.183690   -3.076202    2.044904
     11          6           0        2.425396   -2.130922    1.407438
     12          6           0        3.028086   -1.028692    0.717451
     13          6           0        2.254233   -0.054717    0.048672
     14          6           0        0.760425   -0.158417    0.040090
     15          6           0       -0.015135    0.634046    0.935843
     16          6           0       -1.388146    0.555560    0.946294
     17          6           0       -2.077008   -0.318402    0.061570
     18          6           0       -3.489281   -0.421264    0.048327
     19          6           0       -4.148120   -1.283173   -0.812310
     20          6           0       -5.632418   -1.376034   -0.785116
     21          6           0       -6.315555   -2.490869   -1.302602
     22          6           0       -7.704395   -2.516846   -1.239891
     23          6           0       -8.383868   -1.443469   -0.672704
     24          6           0       -7.635797   -0.365683   -0.173644
     25          6           0       -8.289218    0.816872    0.453809
     26          6           0       -7.560272    1.676552    1.287118
     27          6           0       -8.201001    2.768261    1.867408
     28          7           0       -9.493396    3.068984    1.678594
     29          6           0      -10.183040    2.252273    0.873356
     30          6           0       -9.639598    1.131990    0.246199
     31          7           0       -6.295228   -0.348729   -0.226992
     32          6           0       -3.371917   -2.068223   -1.714378
     33          6           0       -2.000316   -1.986953   -1.728647
     34          6           0       -1.307934   -1.119206   -0.842252
     35          6           0        0.107236   -1.014647   -0.827458
     36          6           0        2.887224    1.027057   -0.602347
     37          6           0        2.138749    2.028384   -1.303010
     38          6           0        2.758406    3.080710   -1.922603
     39          6           0        4.174829    3.202907   -1.883716
     40          6           0        4.931400    2.263181   -1.235870
     41          6           0        4.329181    1.140120   -0.580381
     42          6           0        7.269070    0.816112    1.202414
     43          6           0        8.659468    0.924625    1.213343
     44          1           0       11.383188   -0.326702    0.573913
     45          1           0       11.278336    1.425157    0.765703
     46          1           0       11.350304    0.710393   -0.854383
     47          1           0        9.328446   -0.379495   -1.842364
     48          1           0        6.867498   -0.571383   -1.866193
     49          1           0        6.304370   -1.875087    1.392298
     50          1           0        5.195925   -3.744593    2.535654
     51          1           0        2.701048   -3.901551    2.561577
     52          1           0        1.343863   -2.206605    1.418315
     53          1           0        0.498870    1.305725    1.617678
     54          1           0       -1.966549    1.164889    1.636648
     55          1           0       -4.073310    0.187480    0.730681
     56          1           0       -5.772947   -3.332545   -1.717569
     57          1           0       -8.253528   -3.374614   -1.618761
     58          1           0       -9.465147   -1.456789   -0.595542
     59          1           0       -6.509912    1.484448    1.471160
     60          1           0       -7.646672    3.439830    2.521278
     61          1           0      -11.229757    2.508094    0.715382
     62          1           0      -10.265667    0.536473   -0.410609
     63          1           0       -3.867540   -2.721789   -2.425362
     64          1           0       -1.426158   -2.585695   -2.431641
     65          1           0        0.685146   -1.623964   -1.518372
     66          1           0        1.058610    1.939197   -1.338489
     67          1           0        2.167328    3.826713   -2.447131
     68          1           0        4.656383    4.045637   -2.372544
     69          1           0        6.011105    2.359041   -1.210255
     70          1           0        6.693539    1.159680    2.058006
     71          1           0        9.154305    1.353682    2.082124
 ---------------------------------------------------------------------

 The electronic state is 1-A.
 Alpha  occ. eigenvalues --  -14.33496 -14.32617 -10.24197 -10.24093 -10.22016
 Alpha  occ. eigenvalues --  -10.21828 -10.21653 -10.21482 -10.20677 -10.20616
 Alpha  occ. eigenvalues --  -10.20304 -10.20218 -10.20160 -10.20042 -10.19926
 Alpha  occ. eigenvalues --  -10.19830 -10.19769 -10.19765 -10.19757 -10.19729
 Alpha  occ. eigenvalues --  -10.19702 -10.19679 -10.19662 -10.19503 -10.19494
 Alpha  occ. eigenvalues --  -10.19442 -10.19327 -10.19301 -10.19292 -10.19208
 Alpha  occ. eigenvalues --  -10.18860 -10.18855 -10.18706 -10.18703 -10.18678
 Alpha  occ. eigenvalues --  -10.18667 -10.18627 -10.18615 -10.18538 -10.18414
 Alpha  occ. eigenvalues --  -10.18411 -10.18381 -10.18374  -0.95428  -0.93540
 Alpha  occ. eigenvalues --   -0.88495  -0.87504  -0.85568  -0.84293  -0.83739
 Alpha  occ. eigenvalues --   -0.81968  -0.81153  -0.80142  -0.79569  -0.77807
 Alpha  occ. eigenvalues --   -0.76735  -0.75739  -0.75599  -0.74538  -0.74197
 Alpha  occ. eigenvalues --   -0.73552  -0.73318  -0.72231  -0.70367  -0.67933
 Alpha  occ. eigenvalues --   -0.66103  -0.65338  -0.63848  -0.62720  -0.62288
 Alpha  occ. eigenvalues --   -0.61289  -0.60938  -0.60502  -0.60104  -0.59431
 Alpha  occ. eigenvalues --   -0.58497  -0.58428  -0.56201  -0.54120  -0.53554
 Alpha  occ. eigenvalues --   -0.52024  -0.51430  -0.51113  -0.50529  -0.50336
 Alpha  occ. eigenvalues --   -0.49638  -0.48738  -0.47115  -0.46844  -0.46287
 Alpha  occ. eigenvalues --   -0.46010  -0.45979  -0.45669  -0.45169  -0.44820
 Alpha  occ. eigenvalues --   -0.44307  -0.44205  -0.43051  -0.42561  -0.42539
 Alpha  occ. eigenvalues --   -0.42427  -0.42050  -0.41867  -0.41795  -0.41646
 Alpha  occ. eigenvalues --   -0.41630  -0.40703  -0.40224  -0.40031  -0.39420
 Alpha  occ. eigenvalues --   -0.39322  -0.38938  -0.38555  -0.38505  -0.38054
 Alpha  occ. eigenvalues --   -0.37356  -0.36777  -0.35891  -0.35545  -0.35327
 Alpha  occ. eigenvalues --   -0.35157  -0.34446  -0.34176  -0.33838  -0.33490
 Alpha  occ. eigenvalues --   -0.33321  -0.32735  -0.31103  -0.30807  -0.29685
 Alpha  occ. eigenvalues --   -0.29592  -0.28705  -0.28132  -0.26408  -0.25900
 Alpha  occ. eigenvalues --   -0.25571  -0.25400  -0.25198  -0.24632  -0.23750
 Alpha  occ. eigenvalues --   -0.23656  -0.23423  -0.21408  -0.18779
 Alpha virt. eigenvalues --   -0.06098  -0.05672  -0.05554  -0.03101  -0.01220
 Alpha virt. eigenvalues --   -0.00805  -0.00168   0.00024   0.00068   0.01438
 Alpha virt. eigenvalues --    0.02270   0.03470   0.04587   0.06844   0.08515

 Mulliken charges:
               1
     1  C   -0.530026
     2  C    0.181045
     3  C   -0.184269
     4  C   -0.147766
     5  C    0.004042
     6  C   -0.076489
     7  C    0.103231
     8  C   -0.198046
     9  C   -0.135016
    10  C   -0.134735
    11  C   -0.198613
    12  C    0.106707
    13  C   -0.079660
    14  C    0.009929
    15  C   -0.156871
    16  C   -0.190342
    17  C    0.142238
    18  C   -0.248411
    19  C    0.098779
    20  C    0.259212
    21  C   -0.170308
    22  C   -0.104344
    23  C   -0.169709
    24  C    0.264941
    25  C    0.118199
    26  C   -0.167525
    27  C    0.033982
    28  N   -0.406832
    29  C    0.033045
    30  C   -0.188225
    31  N   -0.564203
    32  C   -0.181363
    33  C   -0.203231
    34  C    0.153979
    35  C   -0.233688
    36  C    0.105692
    37  C   -0.199358
    38  C   -0.134549
    39  C   -0.135001
    40  C   -0.198156
    41  C    0.103646
    42  C   -0.147463
    43  C   -0.184260
    44  H    0.166387
    45  H    0.157713
    46  H    0.157532
    47  H    0.123843
    48  H    0.136263
    49  H    0.146563
    50  H    0.128203
    51  H    0.128495
    52  H    0.144334
    53  H    0.140749
    54  H    0.135717
    55  H    0.157392
    56  H    0.145579
    57  H    0.145709
    58  H    0.145142
    59  H    0.159992
    60  H    0.141166
    61  H    0.140112
    62  H    0.134575
    63  H    0.130257
    64  H    0.134025
    65  H    0.138318
    66  H    0.145930
    67  H    0.129527
    68  H    0.128636
    69  H    0.147039
    70  H    0.136580
    71  H    0.124015
 Sum of Mulliken charges =  -0.00000

 Dipole moment (field-independent basis, Debye):
    X=              1.4669    Y=             -3.1719    Z=             -1.5607  Tot=              3.8273
 Quadrupole moment (field-independent basis, Debye-Ang):
   XX=           -215.9943   YY=           -239.5100   ZZ=           -240.5189
   XY=             30.6171   XZ=             16.8097   YZ=              1.6010

 1\1\GINC-NODE50\FOpt\RB3LYP\6-31G(d)\C41H28N2\WYKGROUP\05-Nov-2022\0\\
 #p b3lyp/6-31g(d) opt SCF=XQC\\Gaussian input prepared by ASE\\0,1\C,-
 10.5869378161,-0.7064532239,-0.1466854977\C,-9.0795472262,-0.601069763
 7,-0.136053736\C,-8.3923111966,0.0424723863,-1.1732139691\C,-7.0032775
 457,0.16598241,-1.1516491594\C,-6.2508183496,-0.3538649094,-0.08851445
 5\C,-4.7587351388,-0.2262916967,-0.0649653204\C,-4.1492629568,0.799268
 3552,0.6908456489\C,-4.9236290276,1.7454320481,1.4386191145\C,-4.32768
 83051,2.7291139782,2.1815910391\C,-2.9099220327,2.8323030074,2.2287360

 Normal termination of Gaussian 16 at Sat Nov  5 01:01:46 2022.
