 Gaussian 16, Revision B.01,
 Gaussian 16:  ES64L-G16RevB.01 20-Dec-2017

 -------------------------------------------------------------------
 #p b3lyp/6-31g(d) 6D 10F nosymm GFInput td=(50-50,nstate=2) SCF=XQC
 -------------------------------------------------------------------

 ------------------------------
 Gaussian input prepared by ASE
 ------------------------------
 Symbolic Z-matrix:
 Charge =  0 Multiplicity = 1

                          Input orientation:
 ---------------------------------------------------------------------
 Center     Atomic      Atomic             Coordinates (Angstroms)
 Number     Number       Type             X           Y           Z
 ---------------------------------------------------------------------
      1          6           0      -10.586938   -0.706453   -0.146685
      2          6           0       -9.079547   -0.601070   -0.136054
      3          6           0       -8.392311    0.042472   -1.173214
      4          6           0       -7.003278    0.165982   -1.151649
      5          6           0       -6.250818   -0.353865   -0.088514
      6          6           0       -4.758735   -0.226292   -0.064965
      7          6           0       -4.149263    0.799268    0.690846
      8          6           0       -4.923629    1.745432    1.438619
      9          6           0       -4.327688    2.729114    2.181591
     10          6           0       -2.909922    2.832303    2.228736
     11          6           0       -2.129680    1.957194    1.521394
     12          6           0       -2.707429    0.918411    0.720541
     13          6           0       -1.910738    0.017779   -0.020328
     14          6           0       -0.418239    0.135308    0.010022
     15          6           0        0.348971   -0.729886    0.843505
     16          6           0        1.720619   -0.640319    0.888099
     17          6           0        2.416404    0.318213    0.101855
     18          6           0        3.827484    0.434604    0.125890
     19          6           0        4.492932    1.378626   -0.638080
     20          6           0        5.975373    1.481955   -0.573306
     21          6           0        6.655971    2.646152   -0.971751
     22          6           0        8.043035    2.678728   -0.879689
     23          6           0        8.723353    1.563492   -0.401213
     24          6           0        7.977781    0.437308   -0.018950
     25          6           0        8.632108   -0.792461    0.508892
     26          6           0        7.897054   -1.732360    1.244489
     27          6           0        8.538592   -2.867414    1.733550
     28          7           0        9.837462   -3.137624    1.543050
     29          6           0       10.533163   -2.243469    0.830643
     30          6           0        9.989456   -1.074735    0.299481
     31          7           0        6.638704    0.413282   -0.099909
     32          6           0        3.725278    2.237020   -1.478550
     33          6           0        2.355141    2.145049   -1.527174
     34          6           0        1.655739    1.192519   -0.738761
     35          6           0        0.241752    1.074267   -0.761465
     36          6           0       -2.519730   -1.004529   -0.781087
     37          6           0       -1.747519   -1.929660   -1.556729
     38          6           0       -2.344085   -2.925447   -2.283212
     39          6           0       -3.759585   -3.063508   -2.283591
     40          6           0       -4.538237   -2.194877   -1.566396
     41          6           0       -3.960539   -1.132155   -0.797965
     42          6           0       -6.936550   -1.001664    0.949211
     43          6           0       -8.325655   -1.123270    0.922778
     44          1           0      -11.050318    0.157396    0.348803
     45          1           0      -10.930142   -1.603686    0.379425
     46          1           0      -10.979552   -0.742232   -1.168543
     47          1           0       -8.951487    0.452905   -2.011435
     48          1           0       -6.492741    0.668383   -1.969131
     49          1           0       -6.004703    1.668867    1.406572
     50          1           0       -4.938078    3.434039    2.739780
     51          1           0       -2.445963    3.610425    2.829041
     52          1           0       -1.049421    2.041299    1.560437
     53          1           0       -0.170393   -1.466596    1.449947
     54          1           0        2.292576   -1.305882    1.530214
     55          1           0        4.405208   -0.229583    0.760205
     56          1           0        6.112145    3.517795   -1.317482
     57          1           0        8.589848    3.572896   -1.166593
     58          1           0        9.802795    1.579349   -0.301967
     59          1           0        6.841425   -1.567667    1.424917
     60          1           0        7.979434   -3.601782    2.311372
     61          1           0       11.585352   -2.474054    0.670189
     62          1           0       10.621214   -0.415167   -0.286908
     63          1           0        4.227004    2.958237   -2.116048
     64          1           0        1.787779    2.801283   -2.182771
     65          1           0       -0.329701    1.739875   -1.404129
     66          1           0       -0.667933   -1.827818   -1.562608
     67          1           0       -1.735285   -3.614148   -2.862934
     68          1           0       -4.222788   -3.861511   -2.857764
     69          1           0       -5.617134   -2.302443   -1.570946
     70          1           0       -6.373423   -1.417998    1.780396
     71          1           0       -8.831970   -1.635606    1.738188
 ---------------------------------------------------------------------

 SCF Done:  E(RB3LYP) =  -1688.78565989     A.U. after   15 cycles

 Excitation energies and oscillator strengths:

 Excited state symmetry could not be determined.
 Excited State   1:      Triplet-?Sym    1.7291 eV  717.05 nm  f=0.0000  <S**2>=2.000
     144 ->145         0.62819
     144 ->146        -0.15457
     144 ->147         0.26404
     144 <-145         0.12245
 This state for optimization and/or second-order correction.
 Total Energy, E(TD-HF/TD-DFT) =  -1688.72211726
 Copying the excited state density for this state as the 1-particle RhoCI density.

 Excited state symmetry could not be determined.
 Excited State   2:      Triplet-?Sym    2.5162 eV  492.74 nm  f=0.0000  <S**2>=2.000
     142 ->148        -0.13910
     143 ->145        -0.32736
     143 ->146        -0.20563
     143 ->147         0.47270
     143 ->148         0.20498
     144 ->147        -0.10374

 Excited state symmetry could not be determined.
 Excited State   3:      Singlet-?Sym    3.0629 eV  404.79 nm  f=0.1699  <S**2>=0.000
     144 ->145         0.63912
     144 ->146         0.12714
     144 ->147        -0.25683

 Excited state symmetry could not be determined.
 Excited State   4:      Singlet-?Sym    3.1843 eV  389.36 nm  f=0.1133  <S**2>=0.000
     144 ->145         0.28463
     144 ->146        -0.33525
     144 ->147         0.54059

 Alpha  occ. eigenvalues --  -14.33496 -14.32617 -10.24197 -10.24093 -10.22016
 Alpha  occ. eigenvalues --  -10.21828 -10.21653 -10.21482 -10.20677 -10.20616
 Alpha  occ. eigenvalues --  -10.20304 -10.20218 -10.20160 -10.20042 -10.19926
 Alpha  occ. eigenvalues --  -10.19830 -10.19769 -10.19765 -10.19757 -10.19729
 Alpha  occ. eigenvalues --  -10.19702 -10.19679 -10.19662 -10.19503 -10.19494
 Alpha  occ. eigenvalues --  -10.19442 -10.19327 -10.19301 -10.19292 -10.19208
 Alpha  occ. eigenvalues --  -10.18860 -10.18855 -10.18706 -10.18703 -10.18678
 Alpha  occ. eigenvalues --  -10.18667 -10.18627 -10.18615 -10.18538 -10.18414
 Alpha  occ. eigenvalues --  -10.18411 -10.18381 -10.18374  -0.95428  -0.93540
 Alpha  occ. eigenvalues --   -0.88495  -0.87504  -0.85568  -0.84293  -0.83739
 Alpha  occ. eigenvalues --   -0.81968  -0.81153  -0.80142  -0.79569  -0.77807
 Alpha  occ. eigenvalues --   -0.76735  -0.75739  -0.75599  -0.74538  -0.74197
 Alpha  occ. eigenvalues --   -0.73552  -0.73318  -0.72231  -0.70367  -0.67933
 Alpha  occ. eigenvalues --   -0.66103  -0.65338  -0.63848  -0.62720  -0.62288
 Alpha  occ. eigenvalues --   -0.61289  -0.60938  -0.60502  -0.60104  -0.59431
 Alpha  occ. eigenvalues --   -0.58497  -0.58428  -0.56201  -0.54120  -0.53554
 Alpha  occ. eigenvalues --   -0.52024  -0.51430  -0.51113  -0.50529  -0.50336
 Alpha  occ. eigenvalues --   -0.49638  -0.48738  -0.47115  -0.46844  -0.46287
 Alpha  occ. eigenvalues --   -0.46010  -0.45979  -0.45669  -0.45169  -0.44820
 Alpha  occ. eigenvalues --   -0.44307  -0.44205  -0.43051  -0.42561  -0.42539
 Alpha  occ. eigenvalues --   -0.42427  -0.42050  -0.41867  -0.41795  -0.41646
 Alpha  occ. eigenvalues --   -0.41630  -0.40703  -0.40224  -0.40031  -0.39420
 Alpha  occ. eigenvalues --   -0.39322  -0.38938  -0.38555  -0.38505  -0.38054
 Alpha  occ. eigenvalues --   -0.37356  -0.36777  -0.35891  -0.35545  -0.35327
 Alpha  occ. eigenvalues --   -0.35157  -0.34446  -0.34176  -0.33838  -0.33490
 Alpha  occ. eigenvalues --   -0.33321  -0.32735  -0.31103  -0.30807  -0.29685
 Alpha  occ. eigenvalues --   -0.29592  -0.28705  -0.28132  -0.26408  -0.25900
 Alpha  occ. eigenvalues --   -0.25571  -0.25400  -0.25198  -0.24632  -0.23750
 Alpha  occ. eigenvalues --   -0.23656  -0.23423  -0.21408  -0.18779
 Alpha virt. eigenvalues --   -0.06098  -0.05672  -0.05554  -0.03101  -0.01220
 Alpha virt. eigenvalues --   -0.00805  -0.00168   0.00024   0.00068   0.01438
 Alpha virt. eigenvalues --    0.02270   0.03470   0.04587   0.06844   0.08515

 Mulliken charges:
               1
     1  C   -0.530027
     2  C    0.181045
     3  C   -0.184273
     4  C   -0.147764
     5  C    0.004046
     6  C   -0.076483
     7  C    0.103222
     8  C   -0.198044
     9  C   -0.135018
    10  C   -0.134731
    11  C   -0.198617
    12  C    0.106709
    13  C   -0.079668
    14  C    0.009928
    15  C   -0.156878
    16  C   -0.190340
    17  C    0.142238
    18  C   -0.248415
    19  C    0.098780
    20  C    0.259210
    21  C   -0.170317
    22  C   -0.104335
    23  C   -0.169720
    24  C    0.264958
    25  C    0.118173
    26  C   -0.167508
    27  C    0.033972
    28  N   -0.406822
    29  C    0.033028
    30  C   -0.188201
    31  N   -0.564208
    32  C   -0.181360
    33  C   -0.203233
    34  C    0.153983
    35  C   -0.233684
    36  C    0.105691
    37  C   -0.199359
    38  C   -0.134551
    39  C   -0.135001
    40  C   -0.198162
    41  C    0.103659
    42  C   -0.147474
    43  C   -0.184258
    44  H    0.166388
    45  H    0.157714
    46  H    0.157533
    47  H    0.123843
    48  H    0.136262
    49  H    0.146564
    50  H    0.128204
    51  H    0.128495
    52  H    0.144335
    53  H    0.140752
    54  H    0.135718
    55  H    0.157394
    56  H    0.145580
    57  H    0.145709
    58  H    0.145143
    59  H    0.159992
    60  H    0.141166
    61  H    0.140112
    62  H    0.134574
    63  H    0.130256
    64  H    0.134026
    65  H    0.138316
    66  H    0.145932
    67  H    0.129527
    68  H    0.128636
    69  H    0.147042
    70  H    0.136582
    71  H    0.124015
 Sum of Mulliken charges =  -0.00000

 Dipole moment (field-independent basis, Debye):
    X=             -1.4717    Y=              3.2897    Z=             -1.2884  Tot=              3.8273
 Quadrupole moment (field-independent basis, Debye-Ang):
   XX=           -217.0536   YY=           -238.7201   ZZ=           -241.2645
   XY=             33.4264   XZ=            -13.7943   YZ=             -1.0552

 Normal termination of Gaussian 16 at Fri Nov  4 21:32:08 2022.
