 Gaussian 16, Revision B.01,
 Gaussian 16:  ES64L-G16RevB.01 20-Dec-2017

 -------------------------------------------------------------------
 #p b3lyp/6-31g(d) 6D 10F nosymm GFInput td=(50-50,nstate=2) SCF=XQC
 -------------------------------------------------------------------

 ------------------------------
 Gaussian input prepared by ASE
 ------------------------------
 Symbolic Z-matrix:
 Charge =  0 Multiplicity = 1

                          Input orientation:
 ---------------------------------------------------------------------
 Center     Atomic      Atomic             Coordinates (Angstroms)
 Number     Number       Type             X           Y           Z
 ---------------------------------------------------------------------
      1          6           0       -2.209877   -2.710241    1.357601
      2          6           0       -2.972466   -1.463958    1.817084
      3          6           0       -3.274511   -0.405545    0.715872
      4          6           0       -4.044611    0.774582    1.377917
      5          6           0       -4.438402    1.924584    0.446119
      6          6           0       -4.049896   -1.007841   -0.456056
      7          6           0       -5.302803   -1.610752   -0.455674
      8          6           0       -5.828426   -2.098542   -1.659067
      9          6           0       -5.102365   -1.982876   -2.848737
     10          6           0       -3.842440   -1.379519   -2.856691
     11          6           0       -3.319195   -0.892177   -1.656971
     12          6           0       -2.046705   -0.224657   -1.362546
     13          6           0       -0.973126    0.123516   -2.184895
     14          6           0        0.131837    0.768677   -1.633459
     15          6           0        0.187568    1.055444   -0.257079
     16          7           0        1.324863    1.706004    0.294968
     17          6           0        1.152909    2.741304    1.254050
     18          6           0        1.983237    2.812764    2.384597
     19          6           0        1.814867    3.834146    3.317621
     20          6           0        0.808900    4.788738    3.153257
     21          6           0       -0.024148    4.715171    2.034735
     22          6           0        0.148323    3.708505    1.086727
     23          6           0        2.633138    1.324858   -0.109905
     24          6           0        3.619678    2.297126   -0.340165
     25          6           0        4.896596    1.907025   -0.736416
     26          6           0        5.207029    0.561384   -0.926208
     27          6           0        4.231493   -0.426276   -0.709120
     28          6           0        4.548992   -1.866166   -0.898624
     29          6           0        5.381247   -2.287364   -1.949635
     30          6           0        5.681853   -3.636646   -2.130275
     31          6           0        5.156196   -4.596533   -1.263590
     32          6           0        4.327720   -4.193650   -0.214708
     33          6           0        4.028518   -2.844045   -0.034186
     34          6           0        2.952985   -0.028118   -0.293209
     35          6           0       -0.893879    0.694548    0.570110
     36          6           0       -2.001167    0.069340    0.015099
     37          1           0       -2.763182   -3.257233    0.587197
     38          1           0       -2.049712   -3.390245    2.202076
     39          1           0       -1.228815   -2.450583    0.946220
     40          1           0       -2.408712   -0.966310    2.618065
     41          1           0       -3.929369   -1.767111    2.263710
     42          1           0       -4.947494    0.364279    1.850713
     43          1           0       -3.424380    1.165322    2.196138
     44          1           0       -4.972913    2.700656    1.005707
     45          1           0       -5.094337    1.580793   -0.360361
     46          1           0       -3.558138    2.388398   -0.011309
     47          1           0       -5.875167   -1.705984    0.464464
     48          1           0       -6.807423   -2.570323   -1.667805
     49          1           0       -5.521637   -2.366116   -3.775370
     50          1           0       -3.282074   -1.293584   -3.784394
     51          1           0       -0.994194   -0.088805   -3.250865
     52          1           0        0.964673    1.056680   -2.266743
     53          1           0        2.757629    2.065363    2.525088
     54          1           0        2.466949    3.873358    4.186384
     55          1           0        0.676103    5.579140    3.886467
     56          1           0       -0.806692    5.455184    1.888132
     57          1           0       -0.491878    3.664896    0.211334
     58          1           0        3.380019    3.347140   -0.208714
     59          1           0        5.657264    2.664857   -0.905156
     60          1           0        6.212661    0.271825   -1.215576
     61          1           0        5.774601   -1.551588   -2.645570
     62          1           0        6.321336   -3.939073   -2.955558
     63          1           0        5.389840   -5.648421   -1.404239
     64          1           0        3.918957   -4.931040    0.471274
     65          1           0        3.403780   -2.540036    0.801032
     66          1           0        2.183396   -0.776033   -0.134118
     67          1           0       -0.845025    0.911778    1.633235
 ---------------------------------------------------------------------

 SCF Done:  E(RB3LYP) =  -1407.18201037     A.U. after   16 cycles

 Excitation energies and oscillator strengths:

 Excited state symmetry could not be determined.
 Excited State   1:      Triplet-?Sym    2.6932 eV  460.36 nm  f=0.0000  <S**2>=2.000
     122 ->125         0.12378
     123 ->125         0.14099
     123 ->126         0.11864
     124 ->125         0.59474
     124 ->126         0.20711
 This state for optimization and/or second-order correction.
 Total Energy, E(TD-HF/TD-DFT) =  -1407.08303713
 Copying the excited state density for this state as the 1-particle RhoCI density.

 Excited state symmetry could not be determined.
 Excited State   2:      Triplet-?Sym    3.0460 eV  407.04 nm  f=0.0000  <S**2>=2.000
     122 ->126         0.12978
     123 ->125         0.17101
     123 ->126        -0.20830
     123 ->127         0.10332
     124 ->125        -0.11860
     124 ->126         0.38193
     124 ->127        -0.32932
     124 ->128         0.22309

 Excited state symmetry could not be determined.
 Excited State   3:      Singlet-?Sym    3.4920 eV  355.05 nm  f=0.3615  <S**2>=0.000
     124 ->125         0.67224
     124 ->126        -0.18014

 Excited state symmetry could not be determined.
 Excited State   4:      Singlet-?Sym    3.5988 eV  344.51 nm  f=0.1746  <S**2>=0.000
     124 ->125         0.18894
     124 ->126         0.66375
     124 ->127         0.10095

 Alpha  occ. eigenvalues --  -14.36298 -10.22878 -10.22826 -10.22798 -10.20026
 Alpha  occ. eigenvalues --  -10.19840 -10.19700 -10.18977 -10.18974 -10.18971
 Alpha  occ. eigenvalues --  -10.18902 -10.18860 -10.18836 -10.18764 -10.18751
 Alpha  occ. eigenvalues --  -10.18721 -10.18705 -10.18696 -10.18652 -10.18651
 Alpha  occ. eigenvalues --  -10.18597 -10.18591 -10.18571 -10.18570 -10.18563
 Alpha  occ. eigenvalues --  -10.18541 -10.18535 -10.18535 -10.18535 -10.18504
 Alpha  occ. eigenvalues --  -10.18425 -10.18390 -10.18343 -10.18326 -10.16713
 Alpha  occ. eigenvalues --  -10.16685  -0.96227  -0.88372  -0.86319  -0.84870
 Alpha  occ. eigenvalues --   -0.84257  -0.83055  -0.81120  -0.77702  -0.76862
 Alpha  occ. eigenvalues --   -0.75493  -0.74634  -0.74407  -0.74175  -0.74027
 Alpha  occ. eigenvalues --   -0.73743  -0.72652  -0.71838  -0.69431  -0.67486
 Alpha  occ. eigenvalues --   -0.63899  -0.62681  -0.62476  -0.61208  -0.60460
 Alpha  occ. eigenvalues --   -0.59665  -0.59464  -0.58781  -0.58184  -0.57290
 Alpha  occ. eigenvalues --   -0.56368  -0.54759  -0.53256  -0.51987  -0.50496
 Alpha  occ. eigenvalues --   -0.50073  -0.49187  -0.48167  -0.47090  -0.46345
 Alpha  occ. eigenvalues --   -0.45878  -0.45630  -0.45093  -0.45010  -0.44247
 Alpha  occ. eigenvalues --   -0.43775  -0.43541  -0.43456  -0.43138  -0.42798
 Alpha  occ. eigenvalues --   -0.42280  -0.41961  -0.41847  -0.41599  -0.41524
 Alpha  occ. eigenvalues --   -0.40171  -0.39577  -0.39348  -0.37576  -0.37303
 Alpha  occ. eigenvalues --   -0.37106  -0.36933  -0.36716  -0.36524  -0.36093
 Alpha  occ. eigenvalues --   -0.35694  -0.35328  -0.35095  -0.34860  -0.34545
 Alpha  occ. eigenvalues --   -0.34317  -0.33728  -0.33623  -0.33346  -0.33231
 Alpha  occ. eigenvalues --   -0.32158  -0.31360  -0.30771  -0.30308  -0.27714
 Alpha  occ. eigenvalues --   -0.27029  -0.25508  -0.25057  -0.24795  -0.24334
 Alpha  occ. eigenvalues --   -0.23941  -0.22733  -0.21900  -0.17809
 Alpha virt. eigenvalues --   -0.03192  -0.02528  -0.01204  -0.00712   0.00126
 Alpha virt. eigenvalues --    0.00225   0.01241   0.01732   0.03243   0.05307
 Alpha virt. eigenvalues --    0.08215   0.09381   0.09838   0.10519   0.10730

 Mulliken charges:
               1
     1  C   -0.452245
     2  C   -0.250575
     3  C   -0.061877
     4  C   -0.250740
     5  C   -0.452628
     6  C    0.093886
     7  C   -0.206236
     8  C   -0.133472
     9  C   -0.136638
    10  C   -0.194064
    11  C    0.084355
    12  C    0.088567
    13  C   -0.204137
    14  C   -0.177024
    15  C    0.290061
    16  N   -0.660099
    17  C    0.279057
    18  C   -0.163734
    19  C   -0.140220
    20  C   -0.128871
    21  C   -0.140285
    22  C   -0.164808
    23  C    0.286089
    24  C   -0.165305
    25  C   -0.142491
    26  C   -0.176175
    27  C    0.086635
    28  C    0.087392
    29  C   -0.174207
    30  C   -0.133859
    31  C   -0.126565
    32  C   -0.134203
    33  C   -0.171169
    34  C   -0.225181
    35  C   -0.255716
    36  C    0.091043
    37  H    0.156691
    38  H    0.139486
    39  H    0.152982
    40  H    0.133542
    41  H    0.132133
    42  H    0.131959
    43  H    0.135522
    44  H    0.139810
    45  H    0.156433
    46  H    0.152319
    47  H    0.124613
    48  H    0.125567
    49  H    0.126505
    50  H    0.127348
    51  H    0.131677
    52  H    0.142878
    53  H    0.143594
    54  H    0.131094
    55  H    0.127206
    56  H    0.131207
    57  H    0.144620
    58  H    0.144148
    59  H    0.131536
    60  H    0.130068
    61  H    0.131844
    62  H    0.129746
    63  H    0.129173
    64  H    0.130561
    65  H    0.133138
    66  H    0.146851
    67  H    0.141189
 Sum of Mulliken charges =  -0.00000

 Dipole moment (field-independent basis, Debye):
    X=             -0.0195    Y=              0.0675    Z=              0.3889  Tot=              0.3952
 Quadrupole moment (field-independent basis, Debye-Ang):
   XX=           -199.4980   YY=           -200.6197   ZZ=           -199.5977
   XY=              1.1055   XZ=             -4.9109   YZ=              3.6072

 Normal termination of Gaussian 16 at Sat Nov  5 10:24:50 2022.
