 Gaussian 16, Revision B.01,
 Gaussian 16:  ES64L-G16RevB.01 20-Dec-2017

 -----------------------------
 #p b3lyp/6-31g(d) opt SCF=XQC
 -----------------------------

 ------------------------------
 Gaussian input prepared by ASE
 ------------------------------
 Symbolic Z-matrix:
 Charge =  0 Multiplicity = 1

 SCF Done:  E(RB3LYP) =  -1407.17186284     A.U. after   15 cycles
 SCF Done:  E(RB3LYP) =  -1407.18156800     A.U. after   13 cycles
 SCF Done:  E(RB3LYP) =  -1407.18197801     A.U. after   11 cycles
 SCF Done:  E(RB3LYP) =  -1407.18200527     A.U. after   10 cycles
 SCF Done:  E(RB3LYP) =  -1407.18200865     A.U. after    9 cycles
 SCF Done:  E(RB3LYP) =  -1407.18200908     A.U. after    8 cycles
 SCF Done:  E(RB3LYP) =  -1407.18200914     A.U. after    7 cycles
 SCF Done:  E(RB3LYP) =  -1407.18200916     A.U. after    6 cycles
 Optimization completed.
    -- Stationary point found.

                         Standard orientation:
 ---------------------------------------------------------------------
 Center     Atomic      Atomic             Coordinates (Angstroms)
 Number     Number       Type             X           Y           Z
 ---------------------------------------------------------------------
      1          6           0       -2.331474   -1.924748    2.538346
      2          6           0       -3.157248   -0.643877    2.385522
      3          6           0       -3.476250   -0.209182    0.924900
      4          6           0       -4.311771    1.103303    0.982717
      5          6           0       -4.730495    1.691319   -0.368108
      6          6           0       -4.196082   -1.310892    0.146777
      7          6           0       -5.422012   -1.909874    0.414344
      8          6           0       -5.896440   -2.911347   -0.442594
      9          6           0       -5.146532   -3.307076   -1.554752
     10          6           0       -3.913422   -2.710754   -1.829259
     11          6           0       -3.441260   -1.711446   -0.975407
     12          6           0       -2.205838   -0.921431   -1.008698
     13          6           0       -1.127797   -0.927726   -1.896304
     14          6           0       -0.065152   -0.050397   -1.690546
     15          6           0       -0.055862    0.826467   -0.590188
     16          7           0        1.038833    1.710469   -0.386209
     17          6           0        0.799465    3.056469    0.003965
     18          6           0        1.597637    3.668734    0.984140
     19          6           0        1.363085    4.990788    1.357317
     20          6           0        0.322080    5.719285    0.777809
     21          6           0       -0.479019    5.110410   -0.190687
     22          6           0       -0.240621    3.794953   -0.583854
     23          6           0        2.371717    1.252599   -0.572096
     24          6           0        3.321713    2.064770   -1.211995
     25          6           0        4.623442    1.601251   -1.386253
     26          6           0        4.995091    0.330773   -0.949329
     27          6           0        4.057063   -0.500507   -0.314233
     28          6           0        4.439745   -1.854586    0.165375
     29          6           0        5.314955   -2.661749   -0.581067
     30          6           0        5.676715   -3.931845   -0.134363
     31          6           0        5.170684   -4.424511    1.069818
     32          6           0        4.300075   -3.634458    1.822612
     33          6           0        3.939707   -2.364059    1.375661
     34          6           0        2.752916   -0.021047   -0.126047
     35          6           0       -1.141344    0.823201    0.307439
     36          6           0       -2.207065   -0.038048    0.089503
     37          1           0       -2.841824   -2.785874    2.094643
     38          1           0       -2.163783   -2.144154    3.598977
     39          1           0       -1.352328   -1.829911    2.057289
     40          1           0       -2.635138    0.187479    2.878766
     41          1           0       -4.111304   -0.760500    2.917702
     42          1           0       -5.207996    0.905496    1.586651
     43          1           0       -3.729163    1.849799    1.539640
     44          1           0       -5.311087    2.608861   -0.219244
     45          1           0       -5.351041    0.990233   -0.935783
     46          1           0       -3.859507    1.942660   -0.982465
     47          1           0       -6.012564   -1.609479    1.277093
     48          1           0       -6.854104   -3.384046   -0.241287
     49          1           0       -5.526041   -4.085749   -2.211220
     50          1           0       -3.334273   -3.023429   -2.694620
     51          1           0       -1.113337   -1.597035   -2.752827
     52          1           0        0.770273   -0.037215   -2.383007
     53          1           0        2.399185    3.103009    1.448366
     54          1           0        1.991104    5.447959    2.117637
     55          1           0        0.137793    6.747266    1.076575
     56          1           0       -1.288245    5.666399   -0.657073
     57          1           0       -0.856421    3.331462   -1.348078
     58          1           0        3.034699    3.048782   -1.567787
     59          1           0        5.355369    2.238713   -1.875460
     60          1           0        6.018951   -0.008316   -1.074241
     61          1           0        5.694064   -2.298773   -1.532353
     62          1           0        6.348749   -4.541083   -0.733272
     63          1           0        5.451999   -5.414621    1.418220
     64          1           0        3.905892   -4.004100    2.765686
     65          1           0        3.282087   -1.748225    1.982779
     66          1           0        2.011900   -0.654433    0.350052
     67          1           0       -1.128188    1.496971    1.159303
 ---------------------------------------------------------------------

 The electronic state is 1-A.
 Alpha  occ. eigenvalues --  -14.36298 -10.22878 -10.22826 -10.22798 -10.20026
 Alpha  occ. eigenvalues --  -10.19840 -10.19700 -10.18977 -10.18974 -10.18971
 Alpha  occ. eigenvalues --  -10.18902 -10.18860 -10.18836 -10.18764 -10.18751
 Alpha  occ. eigenvalues --  -10.18721 -10.18705 -10.18696 -10.18653 -10.18651
 Alpha  occ. eigenvalues --  -10.18597 -10.18591 -10.18571 -10.18569 -10.18563
 Alpha  occ. eigenvalues --  -10.18541 -10.18535 -10.18535 -10.18535 -10.18503
 Alpha  occ. eigenvalues --  -10.18425 -10.18390 -10.18343 -10.18326 -10.16713
 Alpha  occ. eigenvalues --  -10.16686  -0.96227  -0.88372  -0.86319  -0.84870
 Alpha  occ. eigenvalues --   -0.84257  -0.83055  -0.81120  -0.77702  -0.76862
 Alpha  occ. eigenvalues --   -0.75493  -0.74634  -0.74407  -0.74175  -0.74027
 Alpha  occ. eigenvalues --   -0.73743  -0.72652  -0.71838  -0.69431  -0.67486
 Alpha  occ. eigenvalues --   -0.63899  -0.62681  -0.62476  -0.61208  -0.60460
 Alpha  occ. eigenvalues --   -0.59665  -0.59464  -0.58781  -0.58184  -0.57290
 Alpha  occ. eigenvalues --   -0.56368  -0.54759  -0.53256  -0.51987  -0.50496
 Alpha  occ. eigenvalues --   -0.50073  -0.49187  -0.48167  -0.47090  -0.46345
 Alpha  occ. eigenvalues --   -0.45878  -0.45630  -0.45093  -0.45010  -0.44247
 Alpha  occ. eigenvalues --   -0.43775  -0.43541  -0.43456  -0.43138  -0.42797
 Alpha  occ. eigenvalues --   -0.42280  -0.41961  -0.41847  -0.41599  -0.41524
 Alpha  occ. eigenvalues --   -0.40171  -0.39577  -0.39348  -0.37576  -0.37303
 Alpha  occ. eigenvalues --   -0.37106  -0.36933  -0.36716  -0.36524  -0.36093
 Alpha  occ. eigenvalues --   -0.35694  -0.35328  -0.35095  -0.34860  -0.34545
 Alpha  occ. eigenvalues --   -0.34317  -0.33728  -0.33623  -0.33346  -0.33231
 Alpha  occ. eigenvalues --   -0.32158  -0.31359  -0.30771  -0.30308  -0.27714
 Alpha  occ. eigenvalues --   -0.27029  -0.25508  -0.25057  -0.24795  -0.24334
 Alpha  occ. eigenvalues --   -0.23941  -0.22733  -0.21900  -0.17809
 Alpha virt. eigenvalues --   -0.03192  -0.02528  -0.01204  -0.00712   0.00126
 Alpha virt. eigenvalues --    0.00225   0.01241   0.01732   0.03243   0.05307
 Alpha virt. eigenvalues --    0.08215   0.09381   0.09838   0.10519   0.10730

 Mulliken charges:
               1
     1  C   -0.452250
     2  C   -0.250580
     3  C   -0.061895
     4  C   -0.250734
     5  C   -0.452628
     6  C    0.093889
     7  C   -0.206238
     8  C   -0.133470
     9  C   -0.136646
    10  C   -0.194060
    11  C    0.084388
    12  C    0.088514
    13  C   -0.204097
    14  C   -0.177013
    15  C    0.290044
    16  N   -0.660110
    17  C    0.279083
    18  C   -0.163763
    19  C   -0.140215
    20  C   -0.128865
    21  C   -0.140290
    22  C   -0.164809
    23  C    0.286121
    24  C   -0.165319
    25  C   -0.142476
    26  C   -0.176180
    27  C    0.086646
    28  C    0.087407
    29  C   -0.174215
    30  C   -0.133866
    31  C   -0.126556
    32  C   -0.134200
    33  C   -0.171192
    34  C   -0.225203
    35  C   -0.255684
    36  C    0.091015
    37  H    0.156694
    38  H    0.139487
    39  H    0.152984
    40  H    0.133544
    41  H    0.132137
    42  H    0.131959
    43  H    0.135523
    44  H    0.139810
    45  H    0.156433
    46  H    0.152320
    47  H    0.124614
    48  H    0.125566
    49  H    0.126505
    50  H    0.127347
    51  H    0.131675
    52  H    0.142874
    53  H    0.143598
    54  H    0.131095
    55  H    0.127205
    56  H    0.131208
    57  H    0.144617
    58  H    0.144147
    59  H    0.131534
    60  H    0.130067
    61  H    0.131844
    62  H    0.129747
    63  H    0.129172
    64  H    0.130561
    65  H    0.133141
    66  H    0.146854
    67  H    0.141187
 Sum of Mulliken charges =  -0.00000

 Dipole moment (field-independent basis, Debye):
    X=             -0.0321    Y=              0.2340    Z=              0.3169  Tot=              0.3953
 Quadrupole moment (field-independent basis, Debye-Ang):
   XX=           -199.3283   YY=           -197.6429   ZZ=           -202.6626
   XY=             -1.3677   XZ=             -5.0604   YZ=              2.3358

 1\1\GINC-NODE18\FOpt\RB3LYP\6-31G(d)\C35H31N1\WYKGROUP\05-Nov-2022\0\\
 #p b3lyp/6-31g(d) opt SCF=XQC\\Gaussian input prepared by ASE\\0,1\C,-
 2.2098766521,-2.7102408464,1.357601163\C,-2.9724661054,-1.463957561,1.
 8170841546\C,-3.2745112593,-0.4055445577,0.7158719749\C,-4.0446105379,
 0.7745819432,1.3779168562\C,-4.4384017869,1.9245838478,0.4461188139\C,
 -4.0498961165,-1.007841448,-0.4560558121\C,-5.3028025854,-1.610751809,
 -0.4556743055\C,-5.8284263745,-2.0985416785,-1.6590669364\C,-5.1023654
 226,-1.9828759399,-2.8487374594\C,-3.8424402371,-1.3795188208,-2.85669

 Normal termination of Gaussian 16 at Sat Nov  5 00:16:27 2022.
