 Gaussian 16, Revision B.01,
 Gaussian 16:  ES64L-G16RevB.01 20-Dec-2017

 -------------------------------------------------------------------
 #p b3lyp/6-31g(d) 6D 10F nosymm GFInput td=(50-50,nstate=2) SCF=XQC
 -------------------------------------------------------------------

 ------------------------------
 Gaussian input prepared by ASE
 ------------------------------
 Symbolic Z-matrix:
 Charge =  0 Multiplicity = 1

                          Input orientation:
 ---------------------------------------------------------------------
 Center     Atomic      Atomic             Coordinates (Angstroms)
 Number     Number       Type             X           Y           Z
 ---------------------------------------------------------------------
      1          6           0       -5.523461   -2.867277    2.455274
      2          6           0       -5.591036   -1.631443    1.811942
      3          6           0       -4.933703   -1.430934    0.597111
      4          6           0       -4.191427   -2.459164    0.000624
      5          6           0       -3.542551   -2.276285   -1.385750
      6          6           0       -2.195552   -3.024078   -1.513800
      7          6           0       -1.253237   -2.950737   -0.475170
      8          6           0        0.015151   -3.512180   -0.612044
      9          6           0        0.368539   -4.172290   -1.790616
     10          6           0       -0.561139   -4.262589   -2.825532
     11          6           0       -1.828641   -3.690834   -2.689872
     12          6           0       -4.562491   -2.674068   -2.469544
     13          6           0       -5.227218   -3.883378   -2.636007
     14          6           0       -6.125659   -4.027489   -3.699887
     15          6           0       -6.358671   -2.966429   -4.581079
     16          6           0       -5.701065   -1.746289   -4.412568
     17          6           0       -4.802239   -1.602785   -3.352567
     18          6           0       -3.996818   -0.455771   -2.928604
     19          6           0       -3.847597    0.821031   -3.473836
     20          6           0       -2.988278    1.733124   -2.866625
     21          6           0       -2.288768    1.396433   -1.690043
     22          7           0       -1.426718    2.334988   -1.072752
     23          6           0       -0.218213    1.907068   -0.447012
     24          6           0        0.172542    2.453921    0.785813
     25          6           0        1.356389    2.064614    1.400051
     26          6           0        2.194132    1.105063    0.803816
     27          7           0        3.371265    0.654361    1.423412
     28          6           0        4.340343    1.436895    2.060357
     29          6           0        4.383685    2.808501    1.835782
     30          6           0        5.367441    3.625709    2.418822
     31          6           0        6.347603    3.075346    3.207192
     32          6           0        6.356441    1.679599    3.462856
     33          6           0        7.391836    1.131405    4.265000
     34          6           0        7.430051   -0.208643    4.556496
     35          6           0        6.406010   -1.047743    4.074947
     36          6           0        5.364947   -0.570542    3.291294
     37          6           0        4.310265   -1.592232    2.965121
     38          6           0        3.188648   -1.690983    3.768645
     39          6           0        2.229678   -2.710955    3.576374
     40          6           0        2.399600   -3.645221    2.580648
     41          6           0        3.529954   -3.587106    1.722994
     42          6           0        3.727252   -4.537809    0.684447
     43          6           0        4.822651   -4.465369   -0.145690
     44          6           0        5.776849   -3.434476    0.028877
     45          6           0        5.623358   -2.502814    1.031696
     46          6           0        4.503343   -2.546863    1.910578
     47          6           0        5.325966    0.822077    2.926683
     48          6           0        1.789980    0.541885   -0.417015
     49          6           0        0.607415    0.938879   -1.035486
     50          6           0       -1.720359    3.724077   -1.139053
     51          6           0       -3.045119    4.176354   -0.866697
     52          6           0       -3.348947    5.514602   -0.904602
     53          6           0       -2.357502    6.490110   -1.199666
     54          6           0       -2.640181    7.879858   -1.239587
     55          6           0       -1.650969    8.793627   -1.530704
     56          6           0       -0.331427    8.352065   -1.795074
     57          6           0       -0.024577    7.010024   -1.760703
     58          6           0       -1.022007    6.041488   -1.462343
     59          6           0       -0.737820    4.652315   -1.435653
     60          6           0       -2.450666    0.109621   -1.139528
     61          6           0       -3.283032   -0.804139   -1.766667
     62          6           0       -4.134257   -3.698910    0.656272
     63          6           0       -4.792249   -3.901559    1.869711
     64          1           0       -6.032819   -3.022507    3.402640
     65          1           0       -6.156610   -0.815703    2.255091
     66          1           0       -4.998758   -0.463988    0.109080
     67          1           0       -1.514076   -2.451553    0.453072
     68          1           0        0.728931   -3.424385    0.202156
     69          1           0        1.358990   -4.606732   -1.898073
     70          1           0       -0.303220   -4.775220   -3.748875
     71          1           0       -2.533672   -3.761626   -3.511050
     72          1           0       -5.058960   -4.707763   -1.948602
     73          1           0       -6.648606   -4.969899   -3.838463
     74          1           0       -7.061209   -3.090710   -5.401013
     75          1           0       -5.891342   -0.921606   -5.094838
     76          1           0       -4.376915    1.105192   -4.379856
     77          1           0       -2.847087    2.715155   -3.305060
     78          1           0       -0.465121    3.187729    1.268755
     79          1           0        1.625723    2.487290    2.362440
     80          1           0        3.649921   -0.283266    1.175259
     81          1           0        3.656965    3.251921    1.165194
     82          1           0        5.359204    4.692565    2.211541
     83          1           0        7.129305    3.691007    3.643629
     84          1           0        8.157324    1.803895    4.644422
     85          1           0        8.226668   -0.623123    5.168191
     86          1           0        6.411720   -2.101242    4.340280
     87          1           0        3.048674   -0.969398    4.568340
     88          1           0        1.362412   -2.757839    4.229154
     89          1           0        1.673277   -4.441860    2.438146
     90          1           0        2.991575   -5.329004    0.558694
     91          1           0        4.959547   -5.199438   -0.935115
     92          1           0        6.638638   -3.381669   -0.630842
     93          1           0        6.364898   -1.722099    1.168097
     94          1           0        2.421997   -0.199864   -0.899230
     95          1           0        0.326227    0.497588   -1.986184
     96          1           0       -3.808976    3.445525   -0.621749
     97          1           0       -4.362350    5.845714   -0.689428
     98          1           0       -3.655565    8.212855   -1.036260
     99          1           0       -1.879341    9.855558   -1.558780
    100          1           0        0.442092    9.080098   -2.024874
    101          1           0        0.988922    6.671452   -1.962926
    102          1           0        0.273408    4.316717   -1.646081
    103          1           0       -1.911598   -0.154613   -0.236841
    104          1           0       -3.558933   -4.510189    0.220575
    105          1           0       -4.729001   -4.870622    2.358330
 ---------------------------------------------------------------------

 SCF Done:  E(RB3LYP) =  -2459.34043587     A.U. after   16 cycles

 Excitation energies and oscillator strengths:

 Excited state symmetry could not be determined.
 Excited State   1:      Triplet-?Sym    2.3219 eV  533.98 nm  f=0.0000  <S**2>=2.000
     210 -> 214       -0.38236
     210 -> 215        0.11002
     211 -> 212        0.16004
     211 -> 214        0.48401
 This state for optimization and/or second-order correction.
 Total Energy, E(TD-HF/TD-DFT) =  -2459.25510861
 Copying the excited state density for this state as the 1-particle RhoCI density.

 Excited state symmetry could not be determined.
 Excited State   2:      Triplet-?Sym    2.4406 eV  508.01 nm  f=0.0000  <S**2>=2.000
     209 -> 213       -0.23096
     209 -> 215       -0.15659
     210 -> 213        0.23892
     211 -> 213        0.54029

 Excited state symmetry could not be determined.
 Excited State   3:      Singlet-?Sym    2.8301 eV  438.09 nm  f=0.0252  <S**2>=0.000
     210 -> 212       -0.12664
     211 -> 212        0.69427

 Excited state symmetry could not be determined.
 Excited State   4:      Singlet-?Sym    3.0150 eV  411.22 nm  f=0.1693  <S**2>=0.000
     211 -> 213        0.69106

 Alpha  occ. eigenvalues --  -14.36392 -14.35221 -10.23317 -10.22880 -10.22819
 Alpha  occ. eigenvalues --  -10.22652 -10.22208 -10.21529 -10.20553 -10.20511
 Alpha  occ. eigenvalues --  -10.20455 -10.20382 -10.20338 -10.19716 -10.19653
 Alpha  occ. eigenvalues --  -10.19645 -10.19598 -10.19592 -10.19580 -10.19577
 Alpha  occ. eigenvalues --  -10.19575 -10.19496 -10.19442 -10.19338 -10.19326
 Alpha  occ. eigenvalues --  -10.19120 -10.19078 -10.18942 -10.18928 -10.18910
 Alpha  occ. eigenvalues --  -10.18890 -10.18837 -10.18816 -10.18806 -10.18783
 Alpha  occ. eigenvalues --  -10.18780 -10.18739 -10.18718 -10.18664 -10.18658
 Alpha  occ. eigenvalues --  -10.18651 -10.18646 -10.18593 -10.18585 -10.18579
 Alpha  occ. eigenvalues --  -10.18560 -10.18553 -10.18536 -10.18505 -10.18501
 Alpha  occ. eigenvalues --  -10.18496 -10.18452 -10.18449 -10.18441 -10.18387
 Alpha  occ. eigenvalues --  -10.18347 -10.18333 -10.18306 -10.18197 -10.18190
 Alpha  occ. eigenvalues --  -10.18111 -10.17795 -10.17771  -0.96186  -0.94529
 Alpha  occ. eigenvalues --   -0.88951  -0.88151  -0.86777  -0.86485  -0.85106
 Alpha  occ. eigenvalues --   -0.84366  -0.84363  -0.83534  -0.82774  -0.81482
 Alpha  occ. eigenvalues --   -0.81197  -0.79981  -0.78835  -0.77326  -0.76673
 Alpha  occ. eigenvalues --   -0.76058  -0.74856  -0.74420  -0.74393  -0.74176
 Alpha  occ. eigenvalues --   -0.74089  -0.73836  -0.73668  -0.73514  -0.73271
 Alpha  occ. eigenvalues --   -0.72942  -0.72124  -0.71768  -0.70282  -0.68944
 Alpha  occ. eigenvalues --   -0.67450  -0.63891  -0.63426  -0.63156  -0.62284
 Alpha  occ. eigenvalues --   -0.61980  -0.61648  -0.61556  -0.61247  -0.60479
 Alpha  occ. eigenvalues --   -0.60138  -0.59966  -0.59432  -0.59135  -0.59084
 Alpha  occ. eigenvalues --   -0.58251  -0.57947  -0.57043  -0.56469  -0.55606
 Alpha  occ. eigenvalues --   -0.53300  -0.53015  -0.52261  -0.51995  -0.51589
 Alpha  occ. eigenvalues --   -0.51352  -0.51249  -0.50924  -0.50517  -0.50344
 Alpha  occ. eigenvalues --   -0.49851  -0.49581  -0.49415  -0.48532  -0.47257
 Alpha  occ. eigenvalues --   -0.46825  -0.46267  -0.45634  -0.45302  -0.44804
 Alpha  occ. eigenvalues --   -0.44755  -0.44655  -0.44458  -0.44424  -0.44290
 Alpha  occ. eigenvalues --   -0.43948  -0.43749  -0.43493  -0.43342  -0.43039
 Alpha  occ. eigenvalues --   -0.42781  -0.42269  -0.42058  -0.41951  -0.41916
 Alpha  occ. eigenvalues --   -0.41704  -0.41518  -0.41411  -0.41346  -0.41177
 Alpha  occ. eigenvalues --   -0.40835  -0.40441  -0.40330  -0.39870  -0.39748
 Alpha  occ. eigenvalues --   -0.39227  -0.39186  -0.38598  -0.38507  -0.37979
 Alpha  occ. eigenvalues --   -0.37468  -0.37313  -0.37112  -0.36818  -0.36755
 Alpha  occ. eigenvalues --   -0.36532  -0.35933  -0.35709  -0.35110  -0.35064
 Alpha  occ. eigenvalues --   -0.34843  -0.34423  -0.34385  -0.34134  -0.34115
 Alpha  occ. eigenvalues --   -0.33850  -0.33623  -0.33502  -0.33417  -0.33109
 Alpha  occ. eigenvalues --   -0.32724  -0.32524  -0.32354  -0.32002  -0.31895
 Alpha  occ. eigenvalues --   -0.30994  -0.29863  -0.28557  -0.28157  -0.27461
 Alpha  occ. eigenvalues --   -0.25926  -0.25787  -0.25088  -0.24901  -0.24686
 Alpha  occ. eigenvalues --   -0.24477  -0.24186  -0.24093  -0.23732  -0.23401
 Alpha  occ. eigenvalues --   -0.22998  -0.22523  -0.21510  -0.21216  -0.18980
 Alpha  occ. eigenvalues --   -0.16596
 Alpha virt. eigenvalues --   -0.04503  -0.03845  -0.03583  -0.02647  -0.01885
 Alpha virt. eigenvalues --   -0.01686  -0.00869  -0.00554  -0.00393  -0.00026
 Alpha virt. eigenvalues --    0.00233   0.00769   0.01400   0.01635   0.02076

 Mulliken charges:
               1
     1  C   -0.126907
     2  C   -0.132604
     3  C   -0.181771
     4  C    0.159482
     5  C   -0.227909
     6  C    0.152072
     7  C   -0.175084
     8  C   -0.146252
     9  C   -0.134185
    10  C   -0.133877
    11  C   -0.185881
    12  C    0.079912
    13  C   -0.183032
    14  C   -0.135336
    15  C   -0.134820
    16  C   -0.195696
    17  C    0.090274
    18  C    0.092859
    19  C   -0.205792
    20  C   -0.187735
    21  C    0.308939
    22  N   -0.666507
    23  C    0.275961
    24  C   -0.170381
    25  C   -0.174441
    26  C    0.353304
    27  N   -0.797167
    28  C    0.276340
    29  C   -0.187258
    30  C   -0.141845
    31  C   -0.198369
    32  C    0.113749
    33  C   -0.190017
    34  C   -0.134474
    35  C   -0.160305
    36  C   -0.018132
    37  C   -0.053875
    38  C   -0.142664
    39  C   -0.138985
    40  C   -0.191949
    41  C    0.132231
    42  C   -0.197036
    43  C   -0.133654
    44  C   -0.132893
    45  C   -0.202116
    46  C    0.085711
    47  C    0.075130
    48  C   -0.201682
    49  C   -0.169429
    50  C    0.277144
    51  C   -0.157662
    52  C   -0.206498
    53  C    0.142710
    54  C   -0.194347
    55  C   -0.137162
    56  C   -0.136594
    57  C   -0.192069
    58  C    0.136355
    59  C   -0.253366
    60  C   -0.240429
    61  C    0.078084
    62  C   -0.180055
    63  C   -0.136831
    64  H    0.126776
    65  H    0.128273
    66  H    0.140044
    67  H    0.140420
    68  H    0.139534
    69  H    0.124913
    70  H    0.127349
    71  H    0.144277
    72  H    0.132603
    73  H    0.126990
    74  H    0.127178
    75  H    0.127798
    76  H    0.131383
    77  H    0.146090
    78  H    0.144240
    79  H    0.146080
    80  H    0.342315
    81  H    0.143357
    82  H    0.128565
    83  H    0.123012
    84  H    0.129794
    85  H    0.131278
    86  H    0.136421
    87  H    0.141381
    88  H    0.137245
    89  H    0.136896
    90  H    0.136949
    91  H    0.133344
    92  H    0.134541
    93  H    0.150366
    94  H    0.136467
    95  H    0.152081
    96  H    0.143962
    97  H    0.131920
    98  H    0.128096
    99  H    0.128074
   100  H    0.128769
   101  H    0.129459
   102  H    0.141857
   103  H    0.149390
   104  H    0.137876
   105  H    0.127448
 Sum of Mulliken charges =  -0.00000

 Dipole moment (field-independent basis, Debye):
    X=              0.7735    Y=             -0.7375    Z=              0.2503  Tot=              1.0977
 Quadrupole moment (field-independent basis, Debye-Ang):
   XX=           -340.3220   YY=           -334.0107   ZZ=           -347.9255
   XY=             -4.7003   XZ=              0.4995   YZ=              0.5840

 Normal termination of Gaussian 16 at Sat Nov  5 11:34:58 2022.
