 Gaussian 16, Revision B.01,
 Gaussian 16:  ES64L-G16RevB.01 20-Dec-2017

 -----------------------------
 #p b3lyp/6-31g(d) opt SCF=XQC
 -----------------------------

 ------------------------------
 Gaussian input prepared by ASE
 ------------------------------
 Symbolic Z-matrix:
 Charge =  0 Multiplicity = 1

 SCF Done:  E(RB3LYP) =  -2459.31782728     A.U. after   16 cycles
 SCF Done:  E(RB3LYP) =  -2459.32676007     A.U. after   15 cycles
 SCF Done:  E(RB3LYP) =  -2459.33532307     A.U. after   15 cycles
 SCF Done:  E(RB3LYP) =  -2459.33814539     A.U. after   15 cycles
 SCF Done:  E(RB3LYP) =  -2459.33854767     A.U. after   15 cycles
 SCF Done:  E(RB3LYP) =  -2459.33952000     A.U. after   12 cycles
 SCF Done:  E(RB3LYP) =  -2459.33983755     A.U. after   12 cycles
 SCF Done:  E(RB3LYP) =  -2459.33996152     A.U. after   12 cycles
 SCF Done:  E(RB3LYP) =  -2459.34005683     A.U. after   10 cycles
 SCF Done:  E(RB3LYP) =  -2459.34011266     A.U. after   11 cycles
 SCF Done:  E(RB3LYP) =  -2459.34043959     A.U. after   12 cycles
 SCF Done:  E(RB3LYP) =  -2459.34044481     A.U. after   11 cycles
 SCF Done:  E(RB3LYP) =  -2459.34044514     A.U. after    9 cycles
 SCF Done:  E(RB3LYP) =  -2459.34044517     A.U. after    7 cycles
 SCF Done:  E(RB3LYP) =  -2459.34044522     A.U. after    7 cycles
 SCF Done:  E(RB3LYP) =  -2459.34044524     A.U. after    7 cycles
 SCF Done:  E(RB3LYP) =  -2459.34044524     A.U. after    6 cycles
 SCF Done:  E(RB3LYP) =  -2459.34044524     A.U. after    6 cycles
 SCF Done:  E(RB3LYP) =  -2459.34044525     A.U. after    6 cycles
 SCF Done:  E(RB3LYP) =  -2459.34044525     A.U. after    6 cycles
 Optimization completed.
    -- Stationary point found.

                         Standard orientation:
 ---------------------------------------------------------------------
 Center     Atomic      Atomic             Coordinates (Angstroms)
 Number     Number       Type             X           Y           Z
 ---------------------------------------------------------------------
      1          6           0       -4.074061   -2.953813    4.443133
      2          6           0       -4.340286   -1.667667    3.973367
      3          6           0       -4.264818   -1.384708    2.608689
      4          6           0       -3.917936   -2.379215    1.684214
      5          6           0       -3.925590   -2.099413    0.168242
      6          6           0       -2.815039   -2.869146   -0.582880
      7          6           0       -1.512754   -2.906695   -0.058730
      8          6           0       -0.465568   -3.487988   -0.771652
      9          6           0       -0.698957   -4.057425   -2.025020
     10          6           0       -1.989283   -4.037409   -2.552434
     11          6           0       -3.035584   -3.445766   -1.840338
     12          6           0       -5.336630   -2.379310   -0.382889
     13          6           0       -6.078611   -3.552851   -0.317569
     14          6           0       -7.356644   -3.584868   -0.888015
     15          6           0       -7.885270   -2.448827   -1.509794
     16          6           0       -7.148154   -1.264479   -1.569479
     17          6           0       -5.871494   -1.232756   -1.002719
     18          6           0       -4.894982   -0.146261   -0.902508
     19          6           0       -4.921302    1.166897   -1.376524
     20          6           0       -3.830821    2.002790   -1.150289
     21          6           0       -2.711385    1.551718   -0.421989
     22          7           0       -1.612494    2.413068   -0.186241
     23          6           0       -0.280106    1.903304   -0.180459
     24          6           0        0.638967    2.335898    0.788954
     25          6           0        1.946503    1.866199    0.797635
     26          6           0        2.383409    0.937585   -0.164051
     27          7           0        3.683569    0.406457   -0.151491
     28          6           0        4.877883    1.107940    0.045253
     29          6           0        4.901251    2.491808   -0.088836
     30          6           0        6.087429    3.231906    0.055315
     31          6           0        7.277851    2.592705    0.299158
     32          6           0        7.313441    1.180848    0.436792
     33          6           0        8.559619    0.541219    0.668969
     34          6           0        8.640496   -0.818884    0.829403
     35          6           0        7.460859   -1.588126    0.792539
     36          6           0        6.213372   -1.020604    0.574961
     37          6           0        5.062739   -1.983793    0.679389
     38          6           0        4.397460   -2.119182    1.884586
     39          6           0        3.391092   -3.094245    2.067375
     40          6           0        3.055793   -3.947109    1.041025
     41          6           0        3.703002   -3.847955   -0.219109
     42          6           0        3.372741   -4.714373   -1.296881
     43          6           0        4.001330   -4.602306   -2.516140
     44          6           0        4.996376   -3.614776   -2.712035
     45          6           0        5.349367   -2.765523   -1.686673
     46          6           0        4.721507   -2.852690   -0.411134
     47          6           0        6.103207    0.397937    0.352583
     48          6           0        1.456524    0.488088   -1.117872
     49          6           0        0.148762    0.965761   -1.130427
     50          6           0       -1.822280    3.810108   -0.029850
     51          6           0       -2.867843    4.272923    0.822396
     52          6           0       -3.077495    5.617232    1.005516
     53          6           0       -2.256146    6.587444    0.368557
     54          6           0       -2.444588    7.982672    0.543859
     55          6           0       -1.627220    8.891109   -0.092469
     56          6           0       -0.582241    8.438445   -0.934594
     57          6           0       -0.371633    7.090569   -1.122446
     58          6           0       -1.196515    6.127188   -0.479472
     59          6           0       -1.012427    4.733589   -0.667266
     60          6           0       -2.694766    0.228484    0.061681
     61          6           0       -3.769770   -0.608129   -0.194325
     62          6           0       -3.655952   -3.670004    2.169335
     63          6           0       -3.732745   -3.954962    3.532916
     64          1           0       -4.129923   -3.173430    5.506004
     65          1           0       -4.607586   -0.876806    4.669624
     66          1           0       -4.477415   -0.379344    2.260210
     67          1           0       -1.314454   -2.479306    0.919469
     68          1           0        0.534727   -3.486583   -0.347956
     69          1           0        0.118750   -4.507336   -2.581990
     70          1           0       -2.188885   -4.478523   -3.525805
     71          1           0       -4.030029   -3.429885   -2.273051
     72          1           0       -5.678184   -4.435386    0.173590
     73          1           0       -7.943140   -4.498543   -0.842898
     74          1           0       -8.880128   -2.486402   -1.945848
     75          1           0       -7.566127   -0.381495   -2.046383
     76          1           0       -5.773438    1.538797   -1.939864
     77          1           0       -3.835597    3.013667   -1.543542
     78          1           0        0.319250    3.043737    1.547284
     79          1           0        2.631622    2.200633    1.569747
     80          1           0        3.770336   -0.514427   -0.554998
     81          1           0        3.983387    3.008078   -0.344611
     82          1           0        6.053745    4.312097   -0.059881
     83          1           0        8.206729    3.149442    0.387492
     84          1           0        9.452566    1.159710    0.716826
     85          1           0        9.597352   -1.303287    1.003595
     86          1           0        7.518269   -2.659745    0.961755
     87          1           0        4.661881   -1.462773    2.708599
     88          1           0        2.892102   -3.172172    3.029355
     89          1           0        2.293487   -4.709900    1.180754
     90          1           0        2.609622   -5.472880   -1.137693
     91          1           0        3.737856   -5.271921   -3.330379
     92          1           0        5.487785   -3.530229   -3.677471
     93          1           0        6.121752   -2.018489   -1.839533
     94          1           0        1.771009   -0.227574   -1.873581
     95          1           0       -0.543047    0.612128   -1.888038
     96          1           0       -3.491763    3.544639    1.330250
     97          1           0       -3.875243    5.955896    1.662650
     98          1           0       -3.249148    8.324245    1.191351
     99          1           0       -1.781278    9.957351    0.049072
    100          1           0        0.056772    9.162437   -1.433261
    101          1           0        0.431378    6.743400   -1.768473
    102          1           0       -0.214841    4.390120   -1.319474
    103          1           0       -1.834123   -0.123545    0.619020
    104          1           0       -3.376386   -4.457294    1.475777
    105          1           0       -3.521642   -4.962437    3.882580
 ---------------------------------------------------------------------

 The electronic state is 1-A.
 Alpha  occ. eigenvalues --  -14.36392 -14.35221 -10.23317 -10.22880 -10.22819
 Alpha  occ. eigenvalues --  -10.22652 -10.22208 -10.21529 -10.20553 -10.20511
 Alpha  occ. eigenvalues --  -10.20455 -10.20382 -10.20338 -10.19716 -10.19653
 Alpha  occ. eigenvalues --  -10.19645 -10.19598 -10.19592 -10.19580 -10.19577
 Alpha  occ. eigenvalues --  -10.19575 -10.19497 -10.19442 -10.19338 -10.19326
 Alpha  occ. eigenvalues --  -10.19120 -10.19078 -10.18942 -10.18927 -10.18910
 Alpha  occ. eigenvalues --  -10.18890 -10.18837 -10.18816 -10.18806 -10.18783
 Alpha  occ. eigenvalues --  -10.18780 -10.18739 -10.18719 -10.18664 -10.18658
 Alpha  occ. eigenvalues --  -10.18651 -10.18646 -10.18593 -10.18585 -10.18579
 Alpha  occ. eigenvalues --  -10.18560 -10.18553 -10.18536 -10.18505 -10.18501
 Alpha  occ. eigenvalues --  -10.18496 -10.18452 -10.18449 -10.18441 -10.18387
 Alpha  occ. eigenvalues --  -10.18347 -10.18333 -10.18306 -10.18197 -10.18190
 Alpha  occ. eigenvalues --  -10.18111 -10.17795 -10.17771  -0.96186  -0.94529
 Alpha  occ. eigenvalues --   -0.88951  -0.88151  -0.86777  -0.86485  -0.85106
 Alpha  occ. eigenvalues --   -0.84366  -0.84363  -0.83534  -0.82774  -0.81482
 Alpha  occ. eigenvalues --   -0.81197  -0.79981  -0.78835  -0.77326  -0.76673
 Alpha  occ. eigenvalues --   -0.76058  -0.74856  -0.74420  -0.74393  -0.74176
 Alpha  occ. eigenvalues --   -0.74089  -0.73836  -0.73668  -0.73514  -0.73271
 Alpha  occ. eigenvalues --   -0.72942  -0.72124  -0.71768  -0.70282  -0.68944
 Alpha  occ. eigenvalues --   -0.67450  -0.63891  -0.63426  -0.63156  -0.62284
 Alpha  occ. eigenvalues --   -0.61980  -0.61648  -0.61556  -0.61247  -0.60479
 Alpha  occ. eigenvalues --   -0.60138  -0.59966  -0.59432  -0.59135  -0.59084
 Alpha  occ. eigenvalues --   -0.58251  -0.57947  -0.57043  -0.56469  -0.55606
 Alpha  occ. eigenvalues --   -0.53300  -0.53015  -0.52261  -0.51995  -0.51589
 Alpha  occ. eigenvalues --   -0.51352  -0.51249  -0.50924  -0.50517  -0.50344
 Alpha  occ. eigenvalues --   -0.49851  -0.49581  -0.49415  -0.48532  -0.47257
 Alpha  occ. eigenvalues --   -0.46825  -0.46267  -0.45634  -0.45302  -0.44804
 Alpha  occ. eigenvalues --   -0.44755  -0.44655  -0.44458  -0.44424  -0.44290
 Alpha  occ. eigenvalues --   -0.43948  -0.43749  -0.43493  -0.43342  -0.43039
 Alpha  occ. eigenvalues --   -0.42781  -0.42269  -0.42058  -0.41951  -0.41916
 Alpha  occ. eigenvalues --   -0.41704  -0.41518  -0.41411  -0.41346  -0.41177
 Alpha  occ. eigenvalues --   -0.40835  -0.40441  -0.40330  -0.39870  -0.39748
 Alpha  occ. eigenvalues --   -0.39227  -0.39186  -0.38598  -0.38507  -0.37979
 Alpha  occ. eigenvalues --   -0.37468  -0.37313  -0.37112  -0.36818  -0.36755
 Alpha  occ. eigenvalues --   -0.36532  -0.35933  -0.35709  -0.35110  -0.35064
 Alpha  occ. eigenvalues --   -0.34843  -0.34423  -0.34385  -0.34134  -0.34115
 Alpha  occ. eigenvalues --   -0.33850  -0.33623  -0.33502  -0.33417  -0.33109
 Alpha  occ. eigenvalues --   -0.32724  -0.32524  -0.32354  -0.32002  -0.31895
 Alpha  occ. eigenvalues --   -0.30994  -0.29863  -0.28557  -0.28157  -0.27461
 Alpha  occ. eigenvalues --   -0.25926  -0.25787  -0.25088  -0.24901  -0.24686
 Alpha  occ. eigenvalues --   -0.24477  -0.24186  -0.24093  -0.23732  -0.23401
 Alpha  occ. eigenvalues --   -0.22998  -0.22523  -0.21510  -0.21216  -0.18980
 Alpha  occ. eigenvalues --   -0.16596
 Alpha virt. eigenvalues --   -0.04503  -0.03845  -0.03583  -0.02647  -0.01885
 Alpha virt. eigenvalues --   -0.01686  -0.00869  -0.00554  -0.00393  -0.00026
 Alpha virt. eigenvalues --    0.00233   0.00769   0.01400   0.01635   0.02076

 Mulliken charges:
               1
     1  C   -0.126906
     2  C   -0.132603
     3  C   -0.181763
     4  C    0.159462
     5  C   -0.227897
     6  C    0.152060
     7  C   -0.175071
     8  C   -0.146232
     9  C   -0.134186
    10  C   -0.133876
    11  C   -0.185892
    12  C    0.079914
    13  C   -0.183046
    14  C   -0.135323
    15  C   -0.134822
    16  C   -0.195713
    17  C    0.090287
    18  C    0.092869
    19  C   -0.205795
    20  C   -0.187742
    21  C    0.308950
    22  N   -0.666489
    23  C    0.275944
    24  C   -0.170374
    25  C   -0.174453
    26  C    0.353342
    27  N   -0.797179
    28  C    0.276334
    29  C   -0.187263
    30  C   -0.141837
    31  C   -0.198380
    32  C    0.113747
    33  C   -0.190017
    34  C   -0.134471
    35  C   -0.160315
    36  C   -0.018135
    37  C   -0.053878
    38  C   -0.142670
    39  C   -0.139002
    40  C   -0.191935
    41  C    0.132225
    42  C   -0.197032
    43  C   -0.133662
    44  C   -0.132888
    45  C   -0.202111
    46  C    0.085719
    47  C    0.075152
    48  C   -0.201719
    49  C   -0.169424
    50  C    0.277145
    51  C   -0.157667
    52  C   -0.206497
    53  C    0.142709
    54  C   -0.194346
    55  C   -0.137158
    56  C   -0.136597
    57  C   -0.192071
    58  C    0.136362
    59  C   -0.253369
    60  C   -0.240433
    61  C    0.078083
    62  C   -0.180044
    63  C   -0.136836
    64  H    0.126776
    65  H    0.128273
    66  H    0.140045
    67  H    0.140413
    68  H    0.139526
    69  H    0.124910
    70  H    0.127349
    71  H    0.144278
    72  H    0.132603
    73  H    0.126989
    74  H    0.127178
    75  H    0.127800
    76  H    0.131383
    77  H    0.146092
    78  H    0.144241
    79  H    0.146087
    80  H    0.342314
    81  H    0.143360
    82  H    0.128565
    83  H    0.123012
    84  H    0.129795
    85  H    0.131279
    86  H    0.136422
    87  H    0.141382
    88  H    0.137248
    89  H    0.136897
    90  H    0.136949
    91  H    0.133346
    92  H    0.134542
    93  H    0.150365
    94  H    0.136476
    95  H    0.152087
    96  H    0.143961
    97  H    0.131919
    98  H    0.128096
    99  H    0.128074
   100  H    0.128769
   101  H    0.129459
   102  H    0.141851
   103  H    0.149382
   104  H    0.137873
   105  H    0.127448
 Sum of Mulliken charges =  -0.00000

 Dipole moment (field-independent basis, Debye):
    X=              0.7600    Y=             -0.7757    Z=             -0.1603  Tot=              1.0978
 Quadrupole moment (field-independent basis, Debye-Ang):
   XX=           -341.8217   YY=           -333.8977   ZZ=           -346.4846
   XY=             -3.3734   XZ=             -2.7208   YZ=              3.5436

 1\1\GINC-NODE25\FOpt\RB3LYP\6-31G(d)\C61H42N2\WYKGROUP\05-Nov-2022\0\\
 #p b3lyp/6-31g(d) opt SCF=XQC\\Gaussian input prepared by ASE\\0,1\C,-
 5.5234605523,-2.8672771594,2.455273727\C,-5.5910362579,-1.6314427574,1
 .8119424577\C,-4.9337034489,-1.430934238,0.5971106394\C,-4.191427109,-
 2.4591636081,0.0006242224\C,-3.5425507924,-2.2762851793,-1.385749641\C
 ,-2.1955515361,-3.0240781492,-1.5138000542\C,-1.2532365468,-2.95073691
 14,-0.4751704823\C,0.0151505076,-3.5121796622,-0.612043926\C,0.3685393
 515,-4.1722895734,-1.7906157975\C,-0.5611394359,-4.2625888515,-2.82553

 Normal termination of Gaussian 16 at Sat Nov  5 03:11:31 2022.
