 Gaussian 16, Revision B.01,
 Gaussian 16:  ES64L-G16RevB.01 20-Dec-2017

 -------------------------------------------------------------------
 #p b3lyp/6-31g(d) 6D 10F nosymm GFInput td=(50-50,nstate=2) SCF=XQC
 -------------------------------------------------------------------

 ------------------------------
 Gaussian input prepared by ASE
 ------------------------------
 Symbolic Z-matrix:
 Charge =  0 Multiplicity = 1

                          Input orientation:
 ---------------------------------------------------------------------
 Center     Atomic      Atomic             Coordinates (Angstroms)
 Number     Number       Type             X           Y           Z
 ---------------------------------------------------------------------
      1          6           0       -1.981445   -3.292509   -0.169711
      2          6           0       -1.929874   -2.570258   -1.483045
      3          6           0       -2.562367   -1.434635   -1.821470
      4          6           0       -3.431670   -0.593120   -0.986998
      5          6           0       -4.698519   -0.146570   -1.302319
      6          6           0       -5.474329   -0.450436   -2.548509
      7          6           0       -5.170518    0.624601   -0.186775
      8          6           0       -6.366444    1.317711    0.068077
      9          6           0       -6.501914    2.013513    1.262405
     10          6           0       -5.457084    2.033747    2.207411
     11          6           0       -4.266267    1.349274    1.985139
     12          6           0       -4.141962    0.631598    0.790135
     13          7           0       -3.081431   -0.128843    0.299275
     14          6           0       -1.788604   -0.160565    0.896313
     15          6           0       -1.643200   -0.618799    2.210620
     16          6           0       -0.378371   -0.620525    2.799257
     17          6           0        0.736369   -0.192540    2.084105
     18          6           0        0.613896    0.256255    0.754385
     19          6           0        1.802472    0.696142   -0.011819
     20          6           0        3.014203    0.119200    0.157600
     21          6           0        4.216720    0.566355   -0.563478
     22          6           0        5.547879    0.102497   -0.093603
     23          6           0        5.810793   -0.053518    1.278295
     24          6           0        7.063765   -0.468884    1.727892
     25          6           0        8.082592   -0.743915    0.814492
     26          6           0        7.834986   -0.601862   -0.552570
     27          6           0        6.581801   -0.188344   -1.000453
     28          6           0        4.069203    1.369931   -1.640541
     29          6           0        2.698691    1.768596   -2.124412
     30          6           0        1.703836    1.880087   -0.961324
     31          6           0       -0.669927    0.281987    0.184198
     32          1           0       -1.021513   -3.228729    0.359841
     33          1           0       -2.182787   -4.359077   -0.334297
     34          1           0       -2.757070   -2.894254    0.488959
     35          1           0       -1.322914   -3.043025   -2.255308
     36          1           0       -2.461912   -1.097259   -2.852931
     37          1           0       -4.887794   -1.047719   -3.252781
     38          1           0       -5.784504    0.468902   -3.062824
     39          1           0       -6.389934   -1.014842   -2.326047
     40          1           0       -7.169504    1.315238   -0.664610
     41          1           0       -7.420886    2.554654    1.471164
     42          1           0       -5.580959    2.595460    3.129399
     43          1           0       -3.462891    1.377594    2.713771
     44          1           0       -2.512277   -0.972930    2.755598
     45          1           0       -0.264126   -0.959292    3.825426
     46          1           0        1.710137   -0.175939    2.563362
     47          1           0        3.122297   -0.727278    0.830646
     48          1           0        5.031551    0.175403    2.000316
     49          1           0        7.245038   -0.573387    2.794575
     50          1           0        9.058049   -1.071780    1.163586
     51          1           0        8.616547   -0.826438   -1.273921
     52          1           0        6.389495   -0.111448   -2.066887
     53          1           0        4.938995    1.714422   -2.194293
     54          1           0        2.741593    2.718304   -2.669900
     55          1           0        2.338933    1.016163   -2.848000
     56          1           0        0.688613    2.001622   -1.349965
     57          1           0        1.914797    2.794327   -0.382314
     58          1           0       -0.810256    0.625141   -0.834037
 ---------------------------------------------------------------------

 SCF Done:  E(RB3LYP) =  -1214.18711766     A.U. after   15 cycles

 Excitation energies and oscillator strengths:

 Excited state symmetry could not be determined.
 Excited State   1:      Triplet-?Sym    2.1148 eV  586.28 nm  f=0.0000  <S**2>=2.000
     106 ->108         0.66781
     106 <-108         0.12330
 This state for optimization and/or second-order correction.
 Total Energy, E(TD-HF/TD-DFT) =  -1214.10940155
 Copying the excited state density for this state as the 1-particle RhoCI density.

 Excited state symmetry could not be determined.
 Excited State   2:      Triplet-?Sym    2.8345 eV  437.41 nm  f=0.0000  <S**2>=2.000
     105 ->109         0.10541
     107 ->109         0.63570
     107 ->110         0.12245

 Excited state symmetry could not be determined.
 Excited State   3:      Singlet-?Sym    3.3465 eV  370.49 nm  f=0.0037  <S**2>=0.000
     107 ->108         0.70046

 Excited state symmetry could not be determined.
 Excited State   4:      Singlet-?Sym    3.8122 eV  325.23 nm  f=0.3223  <S**2>=0.000
     106 ->108         0.69563

 Alpha  occ. eigenvalues --  -14.37692 -10.23461 -10.21547 -10.21042 -10.20565
 Alpha  occ. eigenvalues --  -10.19969 -10.19708 -10.19672 -10.19554 -10.19489
 Alpha  occ. eigenvalues --  -10.19412 -10.19337 -10.19259 -10.19149 -10.19080
 Alpha  occ. eigenvalues --  -10.18912 -10.18887 -10.18877 -10.18810 -10.18759
 Alpha  occ. eigenvalues --  -10.18712 -10.18678 -10.18571 -10.17993 -10.17889
 Alpha  occ. eigenvalues --  -10.17781 -10.17706 -10.17661 -10.17556 -10.17387
 Alpha  occ. eigenvalues --  -10.17289  -0.98050  -0.87028  -0.85882  -0.84030
 Alpha  occ. eigenvalues --   -0.82972  -0.80783  -0.78742  -0.77976  -0.76343
 Alpha  occ. eigenvalues --   -0.75156  -0.74265  -0.72763  -0.72431  -0.72290
 Alpha  occ. eigenvalues --   -0.71528  -0.69290  -0.67077  -0.63387  -0.63005
 Alpha  occ. eigenvalues --   -0.61468  -0.60696  -0.60321  -0.59083  -0.58127
 Alpha  occ. eigenvalues --   -0.55961  -0.55456  -0.53869  -0.52277  -0.51022
 Alpha  occ. eigenvalues --   -0.50315  -0.49038  -0.48264  -0.47511  -0.47432
 Alpha  occ. eigenvalues --   -0.45956  -0.45572  -0.44896  -0.44636  -0.44375
 Alpha  occ. eigenvalues --   -0.42973  -0.42805  -0.42419  -0.42254  -0.41994
 Alpha  occ. eigenvalues --   -0.41683  -0.41512  -0.40975  -0.40700  -0.39825
 Alpha  occ. eigenvalues --   -0.39261  -0.38408  -0.37657  -0.37482  -0.37266
 Alpha  occ. eigenvalues --   -0.36926  -0.36438  -0.36212  -0.36089  -0.35234
 Alpha  occ. eigenvalues --   -0.34906  -0.34164  -0.33927  -0.33024  -0.32514
 Alpha  occ. eigenvalues --   -0.32374  -0.31776  -0.31015  -0.27680  -0.26997
 Alpha  occ. eigenvalues --   -0.25476  -0.24911  -0.24845  -0.24007  -0.20727
 Alpha  occ. eigenvalues --   -0.19937  -0.18749
 Alpha virt. eigenvalues --   -0.04760  -0.01849  -0.01295  -0.00953   0.00075
 Alpha virt. eigenvalues --    0.02292   0.02670   0.03661   0.07576   0.08026
 Alpha virt. eigenvalues --    0.09505   0.09801   0.10525   0.10668   0.11643

 Mulliken charges:
               1
     1  C   -0.493678
     2  C   -0.069502
     3  C   -0.197391
     4  C    0.254084
     5  C    0.029075
     6  C   -0.528983
     7  C    0.081191
     8  C   -0.212588
     9  C   -0.138091
    10  C   -0.151998
    11  C   -0.166132
    12  C    0.292968
    13  N   -0.682854
    14  C    0.275068
    15  C   -0.161780
    16  C   -0.147537
    17  C   -0.168626
    18  C    0.097831
    19  C    0.079517
    20  C   -0.219493
    21  C    0.109897
    22  C    0.091748
    23  C   -0.176846
    24  C   -0.133298
    25  C   -0.127529
    26  C   -0.133218
    27  C   -0.174825
    28  C   -0.192223
    29  C   -0.299568
    30  C   -0.335234
    31  C   -0.195618
    32  H    0.169333
    33  H    0.153197
    34  H    0.166393
    35  H    0.127709
    36  H    0.136873
    37  H    0.152318
    38  H    0.155365
    39  H    0.159612
    40  H    0.121209
    41  H    0.118672
    42  H    0.121185
    43  H    0.134504
    44  H    0.148867
    45  H    0.135830
    46  H    0.132951
    47  H    0.135406
    48  H    0.129561
    49  H    0.129054
    50  H    0.128689
    51  H    0.129220
    52  H    0.128879
    53  H    0.132866
    54  H    0.143896
    55  H    0.151231
    56  H    0.149464
    57  H    0.158271
    58  H    0.145076
 Sum of Mulliken charges =  -0.00000

 Dipole moment (field-independent basis, Debye):
    X=              1.6796    Y=             -0.6757    Z=             -0.3724  Tot=              1.8484
 Quadrupole moment (field-independent basis, Debye-Ang):
   XX=           -180.1073   YY=           -180.8171   ZZ=           -166.4790
   XY=             -0.6204   XZ=              1.8776   YZ=             -2.4354

 Normal termination of Gaussian 16 at Sat Nov  5 10:07:06 2022.
