 Gaussian 16, Revision B.01,
 Gaussian 16:  ES64L-G16RevB.01 20-Dec-2017

 -----------------------------
 #p b3lyp/6-31g(d) opt SCF=XQC
 -----------------------------

 ------------------------------
 Gaussian input prepared by ASE
 ------------------------------
 Symbolic Z-matrix:
 Charge =  0 Multiplicity = 1

 SCF Done:  E(RB3LYP) =  -1214.17847000     A.U. after   15 cycles
 SCF Done:  E(RB3LYP) =  -1214.18474156     A.U. after   13 cycles
 SCF Done:  E(RB3LYP) =  -1214.18606251     A.U. after   12 cycles
 SCF Done:  E(RB3LYP) =  -1214.18687000     A.U. after   11 cycles
 SCF Done:  E(RB3LYP) =  -1214.18698535     A.U. after   11 cycles
 SCF Done:  E(RB3LYP) =  -1214.18702830     A.U. after   10 cycles
 SCF Done:  E(RB3LYP) =  -1214.18705559     A.U. after   10 cycles
 SCF Done:  E(RB3LYP) =  -1214.18707500     A.U. after   10 cycles
 SCF Done:  E(RB3LYP) =  -1214.18708818     A.U. after    9 cycles
 SCF Done:  E(RB3LYP) =  -1214.18709858     A.U. after    9 cycles
 SCF Done:  E(RB3LYP) =  -1214.18710958     A.U. after    9 cycles
 SCF Done:  E(RB3LYP) =  -1214.18711553     A.U. after    9 cycles
 SCF Done:  E(RB3LYP) =  -1214.18711720     A.U. after    9 cycles
 SCF Done:  E(RB3LYP) =  -1214.18711798     A.U. after    8 cycles
 SCF Done:  E(RB3LYP) =  -1214.18711816     A.U. after    7 cycles
 SCF Done:  E(RB3LYP) =  -1214.18711827     A.U. after    7 cycles
 SCF Done:  E(RB3LYP) =  -1214.18711828     A.U. after    6 cycles
 Optimization completed.
    -- Stationary point found.

                         Standard orientation:
 ---------------------------------------------------------------------
 Center     Atomic      Atomic             Coordinates (Angstroms)
 Number     Number       Type             X           Y           Z
 ---------------------------------------------------------------------
      1          6           0        1.863217    1.174290    3.220841
      2          6           0        1.825018    2.248728    2.175242
      3          6           0        2.490694    2.284271    1.009124
      4          6           0        3.392252    1.270345    0.444037
      5          6           0        4.670288    1.475717   -0.033652
      6          6           0        5.427015    2.769680   -0.048773
      7          6           0        5.174565    0.203273   -0.467835
      8          6           0        6.393665   -0.207469   -1.034118
      9          6           0        6.559775   -1.541115   -1.384416
     10          6           0        5.522998   -2.473752   -1.183427
     11          6           0        4.309515   -2.096632   -0.616690
     12          6           0        4.153866   -0.756374   -0.245168
     13          7           0        3.066243   -0.098165    0.327350
     14          6           0        1.777428   -0.685350    0.479117
     15          6           0        1.627128   -1.833624    1.264867
     16          6           0        0.367185   -2.420214    1.386299
     17          6           0       -0.738600   -1.861054    0.752392
     18          6           0       -0.611629   -0.695775   -0.029000
     19          6           0       -1.791206   -0.091676   -0.690019
     20          6           0       -3.019342   -0.121012   -0.123737
     21          6           0       -4.212294    0.437438   -0.780202
     22          6           0       -5.554033    0.086631   -0.246720
     23          6           0       -5.811791   -1.198956    0.259638
     24          6           0       -7.073994   -1.541840    0.743247
     25          6           0       -8.107627   -0.604014    0.737145
     26          6           0       -7.865576    0.680368    0.245088
     27          6           0       -6.603206    1.022092   -0.236279
     28          6           0       -4.047220    1.265600   -1.835881
     29          6           0       -2.668315    1.647761   -2.309110
     30          6           0       -1.662011    0.512086   -2.079910
     31          6           0        0.668192   -0.133035   -0.168137
     32          1           0        0.909658    0.632029    3.272207
     33          1           0        2.029472    1.618324    4.210986
     34          1           0        2.655830    0.445731    3.033718
     35          1           0        1.197796    3.109129    2.408911
     36          1           0        2.393490    3.188013    0.407769
     37          1           0        4.816757    3.597787    0.323509
     38          1           0        5.762415    3.027095   -1.062259
     39          1           0        6.325873    2.718621    0.580373
     40          1           0        7.190903    0.512024   -1.202888
     41          1           0        7.496919   -1.871460   -1.824367
     42          1           0        5.671295   -3.509495   -1.476979
     43          1           0        3.512749   -2.819059   -0.473915
     44          1           0        2.488484   -2.252021    1.775468
     45          1           0        0.249719   -3.321790    1.981446
     46          1           0       -1.707849   -2.342548    0.835508
     47          1           0       -3.149307   -0.547650    0.867369
     48          1           0       -5.020467   -1.943734    0.252614
     49          1           0       -7.250738   -2.545503    1.121420
     50          1           0       -9.090420   -0.868873    1.117731
     51          1           0       -8.659075    1.423315    0.248034
     52          1           0       -6.416307    2.032990   -0.587463
     53          1           0       -4.909660    1.694998   -2.339535
     54          1           0       -2.685071    1.921763   -3.370234
     55          1           0       -2.337836    2.550113   -1.765322
     56          1           0       -0.646296    0.870289   -2.270968
     57          1           0       -1.839696   -0.291387   -2.813701
     58          1           0        0.811924    0.760132   -0.764664
 ---------------------------------------------------------------------

 The electronic state is 1-A.
 Alpha  occ. eigenvalues --  -14.37692 -10.23461 -10.21547 -10.21042 -10.20565
 Alpha  occ. eigenvalues --  -10.19969 -10.19708 -10.19672 -10.19554 -10.19489
 Alpha  occ. eigenvalues --  -10.19412 -10.19337 -10.19259 -10.19149 -10.19080
 Alpha  occ. eigenvalues --  -10.18912 -10.18887 -10.18877 -10.18810 -10.18759
 Alpha  occ. eigenvalues --  -10.18712 -10.18678 -10.18571 -10.17993 -10.17889
 Alpha  occ. eigenvalues --  -10.17781 -10.17706 -10.17661 -10.17556 -10.17387
 Alpha  occ. eigenvalues --  -10.17289  -0.98050  -0.87028  -0.85882  -0.84030
 Alpha  occ. eigenvalues --   -0.82972  -0.80783  -0.78742  -0.77976  -0.76343
 Alpha  occ. eigenvalues --   -0.75156  -0.74265  -0.72763  -0.72431  -0.72290
 Alpha  occ. eigenvalues --   -0.71528  -0.69290  -0.67077  -0.63387  -0.63005
 Alpha  occ. eigenvalues --   -0.61468  -0.60696  -0.60321  -0.59083  -0.58127
 Alpha  occ. eigenvalues --   -0.55961  -0.55456  -0.53869  -0.52277  -0.51022
 Alpha  occ. eigenvalues --   -0.50315  -0.49038  -0.48264  -0.47511  -0.47432
 Alpha  occ. eigenvalues --   -0.45956  -0.45572  -0.44896  -0.44636  -0.44375
 Alpha  occ. eigenvalues --   -0.42973  -0.42805  -0.42419  -0.42254  -0.41994
 Alpha  occ. eigenvalues --   -0.41683  -0.41512  -0.40975  -0.40700  -0.39825
 Alpha  occ. eigenvalues --   -0.39261  -0.38408  -0.37657  -0.37482  -0.37266
 Alpha  occ. eigenvalues --   -0.36926  -0.36438  -0.36212  -0.36089  -0.35234
 Alpha  occ. eigenvalues --   -0.34906  -0.34164  -0.33927  -0.33024  -0.32514
 Alpha  occ. eigenvalues --   -0.32374  -0.31776  -0.31015  -0.27680  -0.26997
 Alpha  occ. eigenvalues --   -0.25476  -0.24911  -0.24845  -0.24007  -0.20727
 Alpha  occ. eigenvalues --   -0.19937  -0.18749
 Alpha virt. eigenvalues --   -0.04760  -0.01849  -0.01295  -0.00953   0.00075
 Alpha virt. eigenvalues --    0.02292   0.02670   0.03661   0.07576   0.08026
 Alpha virt. eigenvalues --    0.09505   0.09801   0.10526   0.10668   0.11643

 Mulliken charges:
               1
     1  C   -0.493671
     2  C   -0.069511
     3  C   -0.197394
     4  C    0.254099
     5  C    0.029081
     6  C   -0.528984
     7  C    0.081200
     8  C   -0.212588
     9  C   -0.138096
    10  C   -0.151990
    11  C   -0.166129
    12  C    0.292960
    13  N   -0.682847
    14  C    0.275007
    15  C   -0.161778
    16  C   -0.147541
    17  C   -0.168613
    18  C    0.097804
    19  C    0.079511
    20  C   -0.219507
    21  C    0.109923
    22  C    0.091750
    23  C   -0.176853
    24  C   -0.133299
    25  C   -0.127527
    26  C   -0.133219
    27  C   -0.174825
    28  C   -0.192239
    29  C   -0.299552
    30  C   -0.335236
    31  C   -0.195567
    32  H    0.169332
    33  H    0.153196
    34  H    0.166394
    35  H    0.127710
    36  H    0.136873
    37  H    0.152318
    38  H    0.155366
    39  H    0.159611
    40  H    0.121209
    41  H    0.118672
    42  H    0.121184
    43  H    0.134504
    44  H    0.148867
    45  H    0.135830
    46  H    0.132951
    47  H    0.135409
    48  H    0.129562
    49  H    0.129055
    50  H    0.128689
    51  H    0.129220
    52  H    0.128878
    53  H    0.132866
    54  H    0.143894
    55  H    0.151233
    56  H    0.149465
    57  H    0.158270
    58  H    0.145071
 Sum of Mulliken charges =  -0.00000

 Dipole moment (field-independent basis, Debye):
    X=             -1.7029    Y=              0.5120    Z=              0.5045  Tot=              1.8484
 Quadrupole moment (field-independent basis, Debye-Ang):
   XX=           -180.0567   YY=           -168.5669   ZZ=           -178.5927
   XY=              1.4435   XZ=             -1.1169   YZ=             -5.6521

 1\1\GINC-NODE59\FOpt\RB3LYP\6-31G(d)\C30H27N1\WYKGROUP\05-Nov-2022\0\\
 #p b3lyp/6-31g(d) opt SCF=XQC\\Gaussian input prepared by ASE\\0,1\C,-
 1.9814446324,-3.2925090403,-0.1697110157\C,-1.9298737127,-2.5702577319
 ,-1.4830448217\C,-2.5623674183,-1.4346345686,-1.8214699379\C,-3.431670
 1039,-0.5931204064,-0.9869984087\C,-4.6985190669,-0.1465697469,-1.3023
 185689\C,-5.4743285011,-0.4504355593,-2.5485092376\C,-5.1705183574,0.6
 246005483,-0.186775456\C,-6.366443555,1.3177105096,0.0680769187\C,-6.5
 019136228,2.0135129341,1.2624054049\C,-5.4570836912,2.033747076,2.2074

 Normal termination of Gaussian 16 at Sat Nov  5 00:06:30 2022.
