 Gaussian 16, Revision B.01,
 Gaussian 16:  ES64L-G16RevB.01 20-Dec-2017

 -----------------------------
 #p b3lyp/6-31g(d) opt SCF=XQC
 -----------------------------

 ------------------------------
 Gaussian input prepared by ASE
 ------------------------------
 Symbolic Z-matrix:
 Charge =  0 Multiplicity = 1

 SCF Done:  E(RB3LYP) =  -1893.07030899     A.U. after   16 cycles
 SCF Done:  E(RB3LYP) =  -1893.09946916     A.U. after   14 cycles
 SCF Done:  E(RB3LYP) =  -1893.10832150     A.U. after   13 cycles
 SCF Done:  E(RB3LYP) =  -1893.10999554     A.U. after   14 cycles
 SCF Done:  E(RB3LYP) =  -1893.11269009     A.U. after   13 cycles
 SCF Done:  E(RB3LYP) =  -1893.11331224     A.U. after   13 cycles
 SCF Done:  E(RB3LYP) =  -1893.11368976     A.U. after   13 cycles
 SCF Done:  E(RB3LYP) =  -1893.11387972     A.U. after   12 cycles
 SCF Done:  E(RB3LYP) =  -1893.11403044     A.U. after   12 cycles
 SCF Done:  E(RB3LYP) =  -1893.11417685     A.U. after   13 cycles
 SCF Done:  E(RB3LYP) =  -1893.11464867     A.U. after   11 cycles
 SCF Done:  E(RB3LYP) =  -1893.11466423     A.U. after   11 cycles
 SCF Done:  E(RB3LYP) =  -1893.11468092     A.U. after   11 cycles
 SCF Done:  E(RB3LYP) =  -1893.11468324     A.U. after   11 cycles
 SCF Done:  E(RB3LYP) =  -1893.11468388     A.U. after    8 cycles
 SCF Done:  E(RB3LYP) =  -1893.11468373     A.U. after    8 cycles
 SCF Done:  E(RB3LYP) =  -1893.11468365     A.U. after    7 cycles
 SCF Done:  E(RB3LYP) =  -1893.11468354     A.U. after    7 cycles
 SCF Done:  E(RB3LYP) =  -1893.11468388     A.U. after    8 cycles
 SCF Done:  E(RB3LYP) =  -1893.11468353     A.U. after    8 cycles
 Optimization completed.
    -- Stationary point found.

                         Standard orientation:
 ---------------------------------------------------------------------
 Center     Atomic      Atomic             Coordinates (Angstroms)
 Number     Number       Type             X           Y           Z
 ---------------------------------------------------------------------
      1          6           0        6.199449    1.638344    1.105844
      2          6           0        5.169447    1.708785    2.047167
      3          6           0        3.845899    1.497485    1.657860
      4          6           0        3.526276    1.211595    0.320248
      5         15           0        1.793757    0.951869   -0.327671
      6          6           0        1.213179    2.744362   -0.360250
      7          6           0        0.201262    3.053856   -1.487830
      8          6           0       -1.264196    2.810538   -1.184945
      9          6           0       -2.186305    3.873361   -1.350233
     10          6           0       -3.509755    3.647137   -1.061424
     11          6           0       -3.925848    2.368740   -0.632575
     12          6           0       -5.278987    2.131586   -0.255050
     13          6           0       -5.643571    0.917936    0.237710
     14          6           0       -4.704838   -0.157363    0.324358
     15          6           0       -5.155514   -1.390416    0.890552
     16          6           0       -4.316922   -2.454247    1.020510
     17          6           0       -2.989163   -2.378463    0.512758
     18          6           0       -2.111406   -3.483387    0.594711
     19          6           0       -0.860697   -3.403501    0.036301
     20          6           0       -0.512456   -2.222115   -0.668315
     21          7           0       -1.311015   -1.168731   -0.750365
     22          6           0       -2.516376   -1.187293   -0.126363
     23          6           0       -3.366024   -0.003479   -0.129882
     24          6           0       -2.941180    1.330014   -0.545083
     25          7           0       -1.633134    1.597416   -0.797585
     26          6           0        0.782394   -2.196666   -1.417313
     27          6           0        0.751503   -2.287853   -2.812812
     28          6           0        1.917625   -2.404996   -3.567121
     29          6           0        3.148408   -2.428113   -2.909090
     30          6           0        3.204960   -2.289591   -1.526147
     31          6           0        2.033568   -2.149002   -0.761401
     32          7           0        2.150762   -2.008441    0.631066
     33          6           0        1.346343   -1.177126    1.475777
     34          6           0        0.897775   -1.752503    2.670999
     35          6           0        0.120722   -1.029675    3.572605
     36          6           0       -0.242452    0.279944    3.263312
     37          6           0        0.214022    0.864816    2.081651
     38          6           0        1.042341    0.176271    1.183648
     39          6           0        4.573609    1.134644   -0.612253
     40          6           0        5.898655    1.350895   -0.226050
     41          1           0        7.229951    1.802238    1.410755
     42          1           0        5.397458    1.930234    3.087147
     43          1           0        3.054989    1.549635    2.401083
     44          1           0        2.131622    3.298166   -0.586740
     45          1           0        0.862668    3.124622    0.605631
     46          1           0        0.316632    4.107220   -1.771743
     47          1           0        0.472591    2.462777   -2.372795
     48          1           0       -1.842040    4.849334   -1.679710
     49          1           0       -4.246799    4.443095   -1.143485
     50          1           0       -5.997356    2.943863   -0.337946
     51          1           0       -6.662861    0.736840    0.569104
     52          1           0       -6.183587   -1.448781    1.238729
     53          1           0       -4.650958   -3.379097    1.485179
     54          1           0       -2.448047   -4.389792    1.093380
     55          1           0       -0.158393   -4.229290    0.086591
     56          1           0       -0.217926   -2.291180   -3.303803
     57          1           0        1.864980   -2.490585   -4.648569
     58          1           0        4.071549   -2.533840   -3.473564
     59          1           0        4.168828   -2.255013   -1.022423
     60          1           0        3.093924   -2.147538    0.972944
     61          1           0        1.152460   -2.790391    2.866719
     62          1           0       -0.219715   -1.495941    4.493307
     63          1           0       -0.874450    0.850482    3.938814
     64          1           0       -0.078834    1.885794    1.864903
     65          1           0        4.345390    0.892890   -1.647647
     66          1           0        6.694813    1.287404   -0.963837
 ---------------------------------------------------------------------

 The electronic state is 1-A.
 Alpha  occ. eigenvalues --  -77.06626 -14.34162 -14.31313 -14.30920 -10.22567
 Alpha  occ. eigenvalues --  -10.22177 -10.22156 -10.21998 -10.21952 -10.21868
 Alpha  occ. eigenvalues --  -10.20148 -10.20093 -10.19990 -10.19824 -10.19674
 Alpha  occ. eigenvalues --  -10.19571 -10.19317 -10.19214 -10.19145 -10.19040
 Alpha  occ. eigenvalues --  -10.19017 -10.18641 -10.18618 -10.18610 -10.18486
 Alpha  occ. eigenvalues --  -10.18482 -10.18470 -10.18329 -10.18324 -10.18312
 Alpha  occ. eigenvalues --  -10.18287 -10.18287 -10.18147 -10.18067 -10.17982
 Alpha  occ. eigenvalues --  -10.17796 -10.17734 -10.17455 -10.17301 -10.16845
 Alpha  occ. eigenvalues --   -6.53285  -4.69557  -4.69530  -4.69028  -0.93863
 Alpha  occ. eigenvalues --   -0.93221  -0.92469  -0.86037  -0.84572  -0.84243
 Alpha  occ. eigenvalues --   -0.82644  -0.82144  -0.80391  -0.78589  -0.77820
 Alpha  occ. eigenvalues --   -0.76196  -0.74996  -0.74305  -0.73680  -0.73543
 Alpha  occ. eigenvalues --   -0.73170  -0.72761  -0.71240  -0.69935  -0.66327
 Alpha  occ. eigenvalues --   -0.64113  -0.63562  -0.62455  -0.61815  -0.60129
 Alpha  occ. eigenvalues --   -0.59932  -0.59510  -0.58897  -0.58540  -0.58296
 Alpha  occ. eigenvalues --   -0.56774  -0.55478  -0.54042  -0.52120  -0.51346
 Alpha  occ. eigenvalues --   -0.51188  -0.50558  -0.50265  -0.49650  -0.48242
 Alpha  occ. eigenvalues --   -0.47470  -0.46692  -0.45935  -0.45378  -0.44784
 Alpha  occ. eigenvalues --   -0.44201  -0.44032  -0.43898  -0.43692  -0.43155
 Alpha  occ. eigenvalues --   -0.42984  -0.42440  -0.41655  -0.41608  -0.41276
 Alpha  occ. eigenvalues --   -0.41091  -0.40815  -0.39980  -0.39617  -0.39323
 Alpha  occ. eigenvalues --   -0.39251  -0.39040  -0.37531  -0.37096  -0.36781
 Alpha  occ. eigenvalues --   -0.36211  -0.36142  -0.35559  -0.35245  -0.35084
 Alpha  occ. eigenvalues --   -0.34630  -0.34488  -0.33911  -0.33551  -0.33489
 Alpha  occ. eigenvalues --   -0.32787  -0.31240  -0.30671  -0.30524  -0.30293
 Alpha  occ. eigenvalues --   -0.29004  -0.26979  -0.26142  -0.25708  -0.24807
 Alpha  occ. eigenvalues --   -0.24389  -0.24317  -0.23900  -0.23311  -0.21923
 Alpha  occ. eigenvalues --   -0.21223  -0.21040  -0.19880  -0.18641
 Alpha virt. eigenvalues --   -0.05614  -0.03650  -0.01565  -0.00786  -0.00433
 Alpha virt. eigenvalues --    0.00124   0.00335   0.00998   0.01723   0.03045
 Alpha virt. eigenvalues --    0.04208   0.06276   0.07196   0.08838   0.09371

 Mulliken charges:
               1
     1  C   -0.134356
     2  C   -0.122007
     3  C   -0.164928
     4  C   -0.104629
     5  P    0.455092
     6  C   -0.474588
     7  C   -0.334823
     8  C    0.316274
     9  C   -0.191415
    10  C   -0.154122
    11  C    0.160360
    12  C   -0.195870
    13  C   -0.198390
    14  C    0.101532
    15  C   -0.198247
    16  C   -0.194266
    17  C    0.160523
    18  C   -0.156464
    19  C   -0.145776
    20  C    0.181907
    21  N   -0.504797
    22  C    0.178060
    23  C    0.100626
    24  C    0.172342
    25  N   -0.527441
    26  C    0.076278
    27  C   -0.158128
    28  C   -0.139562
    29  C   -0.127219
    30  C   -0.200094
    31  C    0.316826
    32  N   -0.766435
    33  C    0.216930
    34  C   -0.139894
    35  C   -0.142928
    36  C   -0.113694
    37  C   -0.179303
    38  C   -0.078580
    39  C   -0.178248
    40  C   -0.122662
    41  H    0.127855
    42  H    0.127411
    43  H    0.140584
    44  H    0.168227
    45  H    0.158418
    46  H    0.133921
    47  H    0.181628
    48  H    0.132209
    49  H    0.136208
    50  H    0.131032
    51  H    0.131252
    52  H    0.130221
    53  H    0.130946
    54  H    0.134356
    55  H    0.141396
    56  H    0.134466
    57  H    0.120159
    58  H    0.121693
    59  H    0.119636
    60  H    0.329898
    61  H    0.125709
    62  H    0.126490
    63  H    0.125708
    64  H    0.130195
    65  H    0.145061
    66  H    0.127433
 Sum of Mulliken charges =  -0.00000

 Dipole moment (field-independent basis, Debye):
    X=             -0.7943    Y=              0.7896    Z=              1.8987  Tot=              2.2044
 Quadrupole moment (field-independent basis, Debye-Ang):
   XX=           -206.2518   YY=           -214.9139   ZZ=           -227.0893
   XY=             -3.3747   XZ=             -3.7517   YZ=             -7.1579

 Normal termination of Gaussian 16 at Sat Nov  5 01:29:30 2022.
