 Gaussian 16, Revision B.01,
 Gaussian 16:  ES64L-G16RevB.01 20-Dec-2017

 -------------------------------------------------------------------
 #p b3lyp/6-31g(d) 6D 10F nosymm GFInput td=(50-50,nstate=2) SCF=XQC
 -------------------------------------------------------------------

 ------------------------------
 Gaussian input prepared by ASE
 ------------------------------
 Symbolic Z-matrix:
 Charge =  0 Multiplicity = 1

                          Input orientation:
 ---------------------------------------------------------------------
 Center     Atomic      Atomic             Coordinates (Angstroms)
 Number     Number       Type             X           Y           Z
 ---------------------------------------------------------------------
      1          6           0        6.094892    1.825455    0.513165
      2          6           0        5.413706    1.602683   -0.686132
      3          6           0        4.133531    1.046803   -0.674490
      4          6           0        3.509432    0.702955    0.536033
      5         15           0        1.821134   -0.083605    0.676922
      6          6           0        2.266575   -1.843818    0.172546
      7          6           0        1.405860   -2.928623    0.860708
      8          6           0        0.096933   -3.297852    0.190714
      9          6           0       -0.145938   -4.652839   -0.144280
     10          6           0       -1.329055   -4.975954   -0.762291
     11          6           0       -2.280000   -3.967843   -1.028296
     12          6           0       -3.480012   -4.266634   -1.735719
     13          6           0       -4.344050   -3.267856   -2.059082
     14          6           0       -4.105916   -1.920500   -1.643245
     15          6           0       -5.040922   -0.921102   -2.056850
     16          6           0       -4.874050    0.385104   -1.713567
     17          6           0       -3.799807    0.763631   -0.859625
     18          6           0       -3.629004    2.106152   -0.451591
     19          6           0       -2.625035    2.429638    0.425837
     20          6           0       -1.824301    1.381273    0.948510
     21          7           0       -1.955673    0.117569    0.574561
     22          6           0       -2.879429   -0.214682   -0.362937
     23          6           0       -2.973302   -1.584216   -0.851704
     24          6           0       -1.984107   -2.629527   -0.606948
     25          7           0       -0.786763   -2.335750   -0.035712
     26          6           0       -0.841239    1.708065    2.027898
     27          6           0       -1.130436    1.315999    3.339132
     28          6           0       -0.330660    1.700376    4.413914
     29          6           0        0.790709    2.495363    4.171235
     30          6           0        1.124226    2.855865    2.869805
     31          6           0        0.333904    2.453055    1.778982
     32          7           0        0.720796    2.842654    0.486317
     33          6           0        0.611604    2.061348   -0.709237
     34          6           0        0.119416    2.721439   -1.841870
     35          6           0       -0.014765    2.060965   -3.060458
     36          6           0        0.317708    0.710013   -3.144422
     37          6           0        0.823584    0.050075   -2.024004
     38          6           0        1.019223    0.706736   -0.800428
     39          6           0        4.203107    0.941898    1.733576
     40          6           0        5.486647    1.493354    1.724277
     41          1           0        7.091578    2.259358    0.502546
     42          1           0        5.881325    1.861349   -1.633240
     43          1           0        3.612606    0.883980   -1.614046
     44          1           0        3.291070   -1.956687    0.545649
     45          1           0        2.320795   -2.004925   -0.909806
     46          1           0        2.009445   -3.840585    0.947335
     47          1           0        1.187541   -2.602782    1.886535
     48          1           0        0.602029   -5.410993    0.068662
     49          1           0       -1.543452   -5.998376   -1.065942
     50          1           0       -3.670350   -5.294314   -2.036322
     51          1           0       -5.242011   -3.475619   -2.635337
     52          1           0       -5.879486   -1.229066   -2.676155
     53          1           0       -5.565824    1.149521   -2.059919
     54          1           0       -4.308064    2.865153   -0.834164
     55          1           0       -2.460267    3.450578    0.754805
     56          1           0       -2.020725    0.716535    3.509146
     57          1           0       -0.586641    1.395794    5.424523
     58          1           0        1.422092    2.821024    4.994218
     59          1           0        2.028161    3.431046    2.679945
     60          1           0        1.491561    3.499621    0.476354
     61          1           0       -0.179483    3.760901   -1.739108
     62          1           0       -0.401677    2.590859   -3.926776
     63          1           0        0.190569    0.168426   -4.078101
     64          1           0        1.078393   -0.999645   -2.115103
     65          1           0        3.725407    0.701444    2.680441
     66          1           0        6.006881    1.669731    2.662613
 ---------------------------------------------------------------------

 SCF Done:  E(RB3LYP) =  -1893.11468381     A.U. after   16 cycles

 Excitation energies and oscillator strengths:

 Excited state symmetry could not be determined.
 Excited State   1:      Triplet-?Sym    2.5887 eV  478.94 nm  f=0.0000  <S**2>=2.000
     127 ->142         0.10005
     135 ->140         0.42956
     136 ->141         0.29322
     137 ->140        -0.38052
     138 ->140         0.11562
 This state for optimization and/or second-order correction.
 Total Energy, E(TD-HF/TD-DFT) =  -1893.01954962
 Copying the excited state density for this state as the 1-particle RhoCI density.

 Excited state symmetry could not be determined.
 Excited State   2:      Triplet-?Sym    2.9193 eV  424.71 nm  f=0.0000  <S**2>=2.000
     136 ->140        -0.31806
     138 ->140         0.10224
     139 ->140         0.58685

 Excited state symmetry could not be determined.
 Excited State   3:      Singlet-?Sym    3.0223 eV  410.23 nm  f=0.0120  <S**2>=0.000
     139 ->140         0.70165

 Excited state symmetry could not be determined.
 Excited State   4:      Singlet-?Sym    3.2784 eV  378.18 nm  f=0.0005  <S**2>=0.000
     135 ->140         0.21413
     136 ->140         0.14764
     137 ->140         0.61355
     138 ->140        -0.21381

 Alpha  occ. eigenvalues --  -77.06626 -14.34162 -14.31313 -14.30920 -10.22567
 Alpha  occ. eigenvalues --  -10.22177 -10.22156 -10.21998 -10.21952 -10.21868
 Alpha  occ. eigenvalues --  -10.20148 -10.20093 -10.19990 -10.19824 -10.19674
 Alpha  occ. eigenvalues --  -10.19570 -10.19317 -10.19214 -10.19145 -10.19040
 Alpha  occ. eigenvalues --  -10.19017 -10.18641 -10.18618 -10.18610 -10.18487
 Alpha  occ. eigenvalues --  -10.18482 -10.18470 -10.18329 -10.18324 -10.18312
 Alpha  occ. eigenvalues --  -10.18287 -10.18287 -10.18147 -10.18067 -10.17982
 Alpha  occ. eigenvalues --  -10.17796 -10.17735 -10.17455 -10.17301 -10.16845
 Alpha  occ. eigenvalues --   -6.53285  -4.69557  -4.69530  -4.69028  -0.93863
 Alpha  occ. eigenvalues --   -0.93221  -0.92469  -0.86037  -0.84572  -0.84243
 Alpha  occ. eigenvalues --   -0.82644  -0.82144  -0.80391  -0.78589  -0.77820
 Alpha  occ. eigenvalues --   -0.76196  -0.74996  -0.74305  -0.73680  -0.73543
 Alpha  occ. eigenvalues --   -0.73170  -0.72761  -0.71240  -0.69935  -0.66327
 Alpha  occ. eigenvalues --   -0.64113  -0.63562  -0.62454  -0.61815  -0.60129
 Alpha  occ. eigenvalues --   -0.59932  -0.59510  -0.58897  -0.58540  -0.58296
 Alpha  occ. eigenvalues --   -0.56774  -0.55478  -0.54042  -0.52120  -0.51346
 Alpha  occ. eigenvalues --   -0.51188  -0.50558  -0.50265  -0.49650  -0.48242
 Alpha  occ. eigenvalues --   -0.47470  -0.46692  -0.45935  -0.45378  -0.44784
 Alpha  occ. eigenvalues --   -0.44202  -0.44032  -0.43898  -0.43692  -0.43155
 Alpha  occ. eigenvalues --   -0.42984  -0.42440  -0.41655  -0.41608  -0.41276
 Alpha  occ. eigenvalues --   -0.41091  -0.40815  -0.39980  -0.39617  -0.39323
 Alpha  occ. eigenvalues --   -0.39251  -0.39040  -0.37531  -0.37096  -0.36781
 Alpha  occ. eigenvalues --   -0.36211  -0.36142  -0.35559  -0.35245  -0.35084
 Alpha  occ. eigenvalues --   -0.34630  -0.34488  -0.33911  -0.33551  -0.33489
 Alpha  occ. eigenvalues --   -0.32787  -0.31240  -0.30671  -0.30524  -0.30293
 Alpha  occ. eigenvalues --   -0.29004  -0.26979  -0.26142  -0.25708  -0.24807
 Alpha  occ. eigenvalues --   -0.24389  -0.24317  -0.23900  -0.23311  -0.21923
 Alpha  occ. eigenvalues --   -0.21223  -0.21040  -0.19880  -0.18641
 Alpha virt. eigenvalues --   -0.05614  -0.03650  -0.01565  -0.00786  -0.00433
 Alpha virt. eigenvalues --    0.00124   0.00335   0.00998   0.01723   0.03045
 Alpha virt. eigenvalues --    0.04209   0.06276   0.07195   0.08838   0.09371

 Mulliken charges:
               1
     1  C   -0.134362
     2  C   -0.122003
     3  C   -0.164936
     4  C   -0.104634
     5  P    0.455082
     6  C   -0.474607
     7  C   -0.334813
     8  C    0.316276
     9  C   -0.191432
    10  C   -0.154100
    11  C    0.160338
    12  C   -0.195870
    13  C   -0.198390
    14  C    0.101528
    15  C   -0.198252
    16  C   -0.194258
    17  C    0.160527
    18  C   -0.156469
    19  C   -0.145767
    20  C    0.181869
    21  N   -0.504797
    22  C    0.178116
    23  C    0.100600
    24  C    0.172368
    25  N   -0.527443
    26  C    0.076315
    27  C   -0.158129
    28  C   -0.139566
    29  C   -0.127221
    30  C   -0.200095
    31  C    0.316820
    32  N   -0.766430
    33  C    0.216897
    34  C   -0.139893
    35  C   -0.142934
    36  C   -0.113686
    37  C   -0.179314
    38  C   -0.078546
    39  C   -0.178240
    40  C   -0.122661
    41  H    0.127856
    42  H    0.127411
    43  H    0.140584
    44  H    0.168227
    45  H    0.158419
    46  H    0.133921
    47  H    0.181627
    48  H    0.132210
    49  H    0.136207
    50  H    0.131033
    51  H    0.131253
    52  H    0.130221
    53  H    0.130946
    54  H    0.134355
    55  H    0.141395
    56  H    0.134468
    57  H    0.120160
    58  H    0.121695
    59  H    0.119636
    60  H    0.329898
    61  H    0.125710
    62  H    0.126489
    63  H    0.125708
    64  H    0.130195
    65  H    0.145058
    66  H    0.127433
 Sum of Mulliken charges =  -0.00000

 Dipole moment (field-independent basis, Debye):
    X=              0.0405    Y=             -0.3996    Z=             -2.1674  Tot=              2.2043
 Quadrupole moment (field-independent basis, Debye-Ang):
   XX=           -214.2140   YY=           -209.0952   ZZ=           -225.0753
   XY=              2.7064   XZ=             10.7227   YZ=              2.1926

 Normal termination of Gaussian 16 at Sat Nov  5 10:44:15 2022.
