 Gaussian 16, Revision B.01,
 Gaussian 16:  ES64L-G16RevB.01 20-Dec-2017

 -----------------------------
 #p b3lyp/6-31g(d) opt SCF=XQC
 -----------------------------

 ------------------------------
 Gaussian input prepared by ASE
 ------------------------------
 Symbolic Z-matrix:
 Charge =  0 Multiplicity = 1

 SCF Done:  E(RB3LYP) =  -2373.71422482     A.U. after   14 cycles
 SCF Done:  E(RB3LYP) =  -2373.72558842     A.U. after   12 cycles
 SCF Done:  E(RB3LYP) =  -2373.72631000     A.U. after   11 cycles
 SCF Done:  E(RB3LYP) =  -2373.72656337     A.U. after   11 cycles
 SCF Done:  E(RB3LYP) =  -2373.72671152     A.U. after   11 cycles
 SCF Done:  E(RB3LYP) =  -2373.72677784     A.U. after   11 cycles
 SCF Done:  E(RB3LYP) =  -2373.72680776     A.U. after   11 cycles
 SCF Done:  E(RB3LYP) =  -2373.72682949     A.U. after   10 cycles
 SCF Done:  E(RB3LYP) =  -2373.72684714     A.U. after   10 cycles
 SCF Done:  E(RB3LYP) =  -2373.72685380     A.U. after    9 cycles
 SCF Done:  E(RB3LYP) =  -2373.72689072     A.U. after   11 cycles
 SCF Done:  E(RB3LYP) =  -2373.72691057     A.U. after   10 cycles
 SCF Done:  E(RB3LYP) =  -2373.72698129     A.U. after   12 cycles
 SCF Done:  E(RB3LYP) =  -2373.72699959     A.U. after   10 cycles
 SCF Done:  E(RB3LYP) =  -2373.72701901     A.U. after   11 cycles
 SCF Done:  E(RB3LYP) =  -2373.72702340     A.U. after    9 cycles
 SCF Done:  E(RB3LYP) =  -2373.72702382     A.U. after    9 cycles
 SCF Done:  E(RB3LYP) =  -2373.72702412     A.U. after    9 cycles
 SCF Done:  E(RB3LYP) =  -2373.72702429     A.U. after    7 cycles
 SCF Done:  E(RB3LYP) =  -2373.72702431     A.U. after    7 cycles
 Optimization completed.
    -- Stationary point found.

                         Standard orientation:
 ---------------------------------------------------------------------
 Center     Atomic      Atomic             Coordinates (Angstroms)
 Number     Number       Type             X           Y           Z
 ---------------------------------------------------------------------
      1          6           0      -11.144452    3.915685   -2.330959
      2          6           0       -9.900613    3.606176   -2.884089
      3          6           0       -9.138654    2.565895   -2.355141
      4          6           0       -9.608478    1.815448   -1.265260
      5          6           0       -8.810381    0.706387   -0.680769
      6          6           0       -7.421338    0.624981   -0.833291
      7          6           0       -6.759081   -0.462798   -0.251113
      8          6           0       -5.290529   -0.648034   -0.358826
      9          6           0       -4.617926   -1.474103    0.556005
     10          6           0       -3.241831   -1.651243    0.480853
     11          6           0       -2.477833   -1.020014   -0.517145
     12          6           0       -1.010243   -1.210741   -0.597547
     13          6           0       -0.417295   -2.446526   -0.287435
     14          6           0        0.959978   -2.625102   -0.362761
     15          6           0        1.812395   -1.576514   -0.750286
     16          6           0        3.280922   -1.769444   -0.823209
     17          6           0        3.826301   -3.000913   -1.258082
     18          6           0        5.191196   -3.199845   -1.271398
     19          6           0        6.080511   -2.178830   -0.872162
     20          7           0        7.418124   -2.496242   -0.817106
     21          6           0        8.277944   -1.606990   -0.387451
     22          6           0        9.681736   -2.102986   -0.255353
     23          6           0       10.236329   -2.868907   -1.292532
     24          6           0       11.523660   -3.389723   -1.182179
     25          6           0       12.273580   -3.171046   -0.023895
     26          6           0       11.724020   -2.431243    1.023818
     27          6           0       10.439383   -1.898337    0.908701
     28          6           0        7.912355   -0.231434   -0.081310
     29          6           0        8.884522    0.749491    0.213040
     30          6           0        8.542374    2.076316    0.445368
     31          6           0        7.198213    2.410856    0.345024
     32          6           0        6.210707    1.483290    0.033276
     33          6           0        6.520996    0.126713   -0.165626
     34          6           0        5.559129   -0.909649   -0.495752
     35          6           0        4.156932   -0.748100   -0.451733
     36          7           0        4.975583    2.172552    0.013332
     37          6           0        5.297425    3.614155    0.049251
     38          6           0        4.411778    4.423036    0.966393
     39          6           0        3.991554    3.907193    2.197766
     40          6           0        3.202674    4.680578    3.046966
     41          6           0        2.826311    5.973885    2.672619
     42          6           0        3.240246    6.491209    1.444846
     43          6           0        4.030388    5.715124    0.594907
     44          8           0        6.673354    3.662600    0.507719
     45          6           0        1.217393   -0.342310   -1.062869
     46          6           0       -0.159589   -0.162402   -0.987457
     47          6           0       -3.156723   -0.204226   -1.438857
     48          6           0       -4.532954   -0.020711   -1.360837
     49          7           0       -7.440309   -1.380682    0.455272
     50          6           0       -8.766963   -1.218627    0.573092
     51          6           0       -9.512793   -2.235820    1.361703
     52          6           0       -8.836880   -3.312068    1.957569
     53          6           0       -9.536528   -4.262192    2.698016
     54          6           0      -10.920383   -4.152965    2.853442
     55          6           0      -11.600847   -3.086700    2.260842
     56          6           0      -10.903883   -2.135031    1.519836
     57          7           0       -9.477487   -0.218282    0.029308
     58          6           0      -10.866606    2.127968   -0.725546
     59          6           0      -11.624543    3.171603   -1.250648
     60          1           0      -11.737661    4.728005   -2.742271
     61          1           0       -9.525296    4.170318   -3.733612
     62          1           0       -8.185172    2.321300   -2.813797
     63          1           0       -6.871338    1.404846   -1.343708
     64          1           0       -5.192730   -1.962005    1.335123
     65          1           0       -2.744414   -2.266809    1.224904
     66          1           0       -1.045816   -3.284800   -0.000409
     67          1           0        1.384815   -3.589155   -0.098108
     68          1           0        3.161593   -3.793391   -1.589363
     69          1           0        5.623456   -4.148315   -1.574659
     70          1           0        9.640419   -3.052720   -2.180698
     71          1           0       11.941561   -3.971286   -1.999794
     72          1           0       13.276307   -3.580892    0.063829
     73          1           0       12.291699   -2.272904    1.937010
     74          1           0       10.011816   -1.342733    1.738172
     75          1           0        9.929703    0.468683    0.227685
     76          1           0        9.289068    2.833147    0.659575
     77          1           0        3.739021    0.161402   -0.037560
     78          1           0        4.356181    1.925355   -0.751459
     79          1           0        5.276976    4.052767   -0.962786
     80          1           0        4.275023    2.896521    2.474340
     81          1           0        2.876931    4.274200    4.000679
     82          1           0        2.208110    6.573618    3.335334
     83          1           0        2.947125    7.494229    1.147052
     84          1           0        4.354348    6.116935   -0.362946
     85          1           0        1.842623    0.484716   -1.387686
     86          1           0       -0.581427    0.811897   -1.217927
     87          1           0       -2.603608    0.264537   -2.247615
     88          1           0       -5.022425    0.590345   -2.113301
     89          1           0       -7.763614   -3.391342    1.827799
     90          1           0       -9.001005   -5.090799    3.154024
     91          1           0      -11.465321   -4.895173    3.431062
     92          1           0      -12.677980   -2.997112    2.375198
     93          1           0      -11.424143   -1.306912    1.052301
     94          1           0      -11.232173    1.543010    0.111003
     95          1           0      -12.592512    3.405807   -0.815684
 ---------------------------------------------------------------------

 The electronic state is 1-A.
 Alpha  occ. eigenvalues --  -19.18969 -14.36403 -14.32908 -14.32897 -14.31906
 Alpha  occ. eigenvalues --  -10.29385 -10.25954 -10.25167 -10.24564 -10.24536
 Alpha  occ. eigenvalues --  -10.23341 -10.23318 -10.21772 -10.21348 -10.20762
 Alpha  occ. eigenvalues --  -10.20462 -10.20445 -10.20432 -10.20384 -10.20363
 Alpha  occ. eigenvalues --  -10.20362 -10.20320 -10.20256 -10.20087 -10.20007
 Alpha  occ. eigenvalues --  -10.19992 -10.19921 -10.19885 -10.19842 -10.19796
 Alpha  occ. eigenvalues --  -10.19744 -10.19727 -10.19663 -10.19636 -10.19629
 Alpha  occ. eigenvalues --  -10.19619 -10.19563 -10.19544 -10.19520 -10.19519
 Alpha  occ. eigenvalues --  -10.19460 -10.19446 -10.19425 -10.19328 -10.19294
 Alpha  occ. eigenvalues --  -10.19230 -10.19154 -10.19136 -10.18950 -10.18910
 Alpha  occ. eigenvalues --  -10.18853 -10.18850 -10.18726 -10.18640 -10.18541
 Alpha  occ. eigenvalues --  -10.18540 -10.18536 -10.18330 -10.18322  -1.09272
 Alpha  occ. eigenvalues --   -0.98328  -0.94173  -0.93243  -0.89489  -0.87520
 Alpha  occ. eigenvalues --   -0.86838  -0.86387  -0.85754  -0.85377  -0.85181
 Alpha  occ. eigenvalues --   -0.84911  -0.84038  -0.80949  -0.79235  -0.78740
 Alpha  occ. eigenvalues --   -0.77857  -0.76766  -0.75589  -0.75542  -0.75229
 Alpha  occ. eigenvalues --   -0.75061  -0.74857  -0.74579  -0.74203  -0.73837
 Alpha  occ. eigenvalues --   -0.73673  -0.73465  -0.72928  -0.71204  -0.67526
 Alpha  occ. eigenvalues --   -0.66429  -0.66135  -0.64824  -0.64210  -0.62872
 Alpha  occ. eigenvalues --   -0.62490  -0.61876  -0.61499  -0.61014  -0.60607
 Alpha  occ. eigenvalues --   -0.60316  -0.60082  -0.59545  -0.59441  -0.58831
 Alpha  occ. eigenvalues --   -0.58070  -0.57607  -0.57188  -0.54747  -0.54173
 Alpha  occ. eigenvalues --   -0.53872  -0.53087  -0.52751  -0.52048  -0.51757
 Alpha  occ. eigenvalues --   -0.51498  -0.51032  -0.50595  -0.49648  -0.48948
 Alpha  occ. eigenvalues --   -0.48445  -0.47526  -0.47444  -0.46710  -0.46392
 Alpha  occ. eigenvalues --   -0.46362  -0.45591  -0.45480  -0.44950  -0.44891
 Alpha  occ. eigenvalues --   -0.44696  -0.44600  -0.44402  -0.44223  -0.43703
 Alpha  occ. eigenvalues --   -0.43230  -0.43179  -0.43036  -0.42914  -0.42787
 Alpha  occ. eigenvalues --   -0.42718  -0.42571  -0.42296  -0.42153  -0.41923
 Alpha  occ. eigenvalues --   -0.41781  -0.41454  -0.41150  -0.40961  -0.40834
 Alpha  occ. eigenvalues --   -0.40540  -0.39419  -0.38891  -0.38540  -0.38303
 Alpha  occ. eigenvalues --   -0.37577  -0.37272  -0.37033  -0.36779  -0.36467
 Alpha  occ. eigenvalues --   -0.36201  -0.35762  -0.35685  -0.35474  -0.35353
 Alpha  occ. eigenvalues --   -0.35195  -0.35058  -0.34849  -0.34484  -0.34388
 Alpha  occ. eigenvalues --   -0.34208  -0.34192  -0.33767  -0.33609  -0.33553
 Alpha  occ. eigenvalues --   -0.33030  -0.32084  -0.30627  -0.30308  -0.29627
 Alpha  occ. eigenvalues --   -0.28403  -0.27397  -0.25902  -0.25823  -0.25670
 Alpha  occ. eigenvalues --   -0.25631  -0.25626  -0.25597  -0.25120  -0.24800
 Alpha  occ. eigenvalues --   -0.24516  -0.24494  -0.24374  -0.23556  -0.22944
 Alpha  occ. eigenvalues --   -0.22803  -0.21569  -0.19214
 Alpha virt. eigenvalues --   -0.06726  -0.05501  -0.05099  -0.03461  -0.02580
 Alpha virt. eigenvalues --   -0.01906  -0.00996  -0.00872  -0.00529  -0.00467
 Alpha virt. eigenvalues --   -0.00324  -0.00092   0.00310   0.00672   0.01978

 Mulliken charges:
               1
     1  C   -0.119877
     2  C   -0.138822
     3  C   -0.170769
     4  C    0.093623
     5  C    0.276056
     6  C   -0.222456
     7  C    0.279492
     8  C    0.098659
     9  C   -0.163626
    10  C   -0.183620
    11  C    0.102772
    12  C    0.093255
    13  C   -0.179852
    14  C   -0.181944
    15  C    0.096419
    16  C    0.096698
    17  C   -0.181392
    18  C   -0.161798
    19  C    0.237761
    20  N   -0.569782
    21  C    0.157303
    22  C    0.099988
    23  C   -0.142501
    24  C   -0.138123
    25  C   -0.123411
    26  C   -0.137186
    27  C   -0.173665
    28  C    0.082260
    29  C   -0.230512
    30  C   -0.193607
    31  C    0.376203
    32  C    0.185302
    33  C    0.072021
    34  C    0.111338
    35  C   -0.306569
    36  N   -0.705711
    37  C    0.186062
    38  C    0.169372
    39  C   -0.162077
    40  C   -0.133234
    41  C   -0.123170
    42  C   -0.131485
    43  C   -0.184832
    44  O   -0.537075
    45  C   -0.174899
    46  C   -0.180369
    47  C   -0.187341
    48  C   -0.179302
    49  N   -0.557492
    50  C    0.444690
    51  C    0.074909
    52  C   -0.161611
    53  C   -0.139135
    54  C   -0.118980
    55  C   -0.139049
    56  C   -0.161786
    57  N   -0.554722
    58  C   -0.155062
    59  C   -0.136546
    60  H    0.133915
    61  H    0.133147
    62  H    0.130068
    63  H    0.150340
    64  H    0.161566
    65  H    0.137669
    66  H    0.137136
    67  H    0.137925
    68  H    0.134390
    69  H    0.143523
    70  H    0.144141
    71  H    0.131228
    72  H    0.129948
    73  H    0.130787
    74  H    0.141059
    75  H    0.155133
    76  H    0.147643
    77  H    0.160147
    78  H    0.328970
    79  H    0.134131
    80  H    0.152740
    81  H    0.137501
    82  H    0.135423
    83  H    0.134707
    84  H    0.131478
    85  H    0.119792
    86  H    0.133444
    87  H    0.135071
    88  H    0.131214
    89  H    0.155746
    90  H    0.129383
    91  H    0.129347
    92  H    0.129343
    93  H    0.156131
    94  H    0.159973
    95  H    0.135050
 Sum of Mulliken charges =  -0.00000

 Dipole moment (field-independent basis, Debye):
    X=             -0.1662    Y=              3.8242    Z=             -1.0813  Tot=              3.9776
 Quadrupole moment (field-independent basis, Debye-Ang):
   XX=           -326.6288   YY=           -312.6889   ZZ=           -323.9251
   XY=             -7.8435   XZ=              1.5486   YZ=            -12.5353

 Normal termination of Gaussian 16 at Sat Nov  5 00:59:22 2022.
