 Gaussian 16, Revision B.01,
 Gaussian 16:  ES64L-G16RevB.01 20-Dec-2017

 -------------------------------------------------------------------
 #p b3lyp/6-31g(d) 6D 10F nosymm GFInput td=(50-50,nstate=2) SCF=XQC
 -------------------------------------------------------------------

 ------------------------------
 Gaussian input prepared by ASE
 ------------------------------
 Symbolic Z-matrix:
 Charge =  0 Multiplicity = 1

                          Input orientation:
 ---------------------------------------------------------------------
 Center     Atomic      Atomic             Coordinates (Angstroms)
 Number     Number       Type             X           Y           Z
 ---------------------------------------------------------------------
      1          6           0       10.846930   -4.430327   -2.216307
      2          6           0        9.694196   -3.890814   -2.789906
      3          6           0        8.972990   -2.905749   -2.117552
      4          6           0        9.393431   -2.441363   -0.860841
      5          6           0        8.636622   -1.396751   -0.122850
      6          6           0        7.281184   -1.145111   -0.365325
      7          6           0        6.657526   -0.134628    0.376801
      8          6           0        5.227466    0.217287    0.193375
      9          6           0        4.538758    0.907043    1.204126
     10          6           0        3.196474    1.235099    1.058119
     11          6           0        2.485174    0.898427   -0.107576
     12          6           0        1.053819    1.250109   -0.263160
     13          6           0        0.538192    2.452357    0.250307
     14          6           0       -0.805123    2.781968    0.104337
     15          6           0       -1.699402    1.925094   -0.560765
     16          6           0       -3.132243    2.277517   -0.708673
     17          6           0       -3.527233    3.620303   -0.918379
     18          6           0       -4.862722    3.956032   -0.998668
     19          6           0       -5.869258    2.971804   -0.894163
     20          7           0       -7.174589    3.406456   -0.880851
     21          6           0       -8.143905    2.541488   -0.716778
     22          6           0       -9.507600    3.141417   -0.596297
     23          6           0       -9.890862    4.152501   -1.491153
     24          6           0      -11.134852    4.769099   -1.377377
     25          6           0      -12.011479    4.399954   -0.354109
     26          6           0      -11.632074    3.412714    0.556077
     27          6           0      -10.391291    2.785569    0.434914
     28          6           0       -7.926449    1.102508   -0.677029
     29          6           0       -9.001402    0.186853   -0.672972
     30          6           0       -8.795810   -1.187436   -0.696837
     31          6           0       -7.480926   -1.630351   -0.757349
     32          6           0       -6.393489   -0.764755   -0.788302
     33          6           0       -6.568321    0.628559   -0.723092
     34          6           0       -5.495414    1.606463   -0.751241
     35          6           0       -4.122863    1.297185   -0.630231
     36          7           0       -5.224274   -1.558298   -0.853373
     37          6           0       -5.667187   -2.937242   -1.145666
     38          6           0       -4.947347   -3.999850   -0.350367
     39          6           0       -4.609675   -3.787392    0.991200
     40          6           0       -3.976093   -4.791902    1.719987
     41          6           0       -3.673657   -6.015202    1.114596
     42          6           0       -4.005573   -6.230467   -0.223270
     43          6           0       -4.640108   -5.223049   -0.952313
     44          8           0       -7.081001   -2.936144   -0.818788
     45          6           0       -1.181360    0.724673   -1.076146
     46          6           0        0.161546    0.393777   -0.930393
     47          6           0        3.181655    0.219428   -1.122381
     48          6           0        4.523258   -0.115429   -0.974901
     49          7           0        7.339559    0.548335    1.311658
     50          6           0        8.629847    0.231452    1.498459
     51          6           0        9.376071    0.988070    2.539387
     52          6           0        8.736554    1.985964    3.291351
     53          6           0        9.436164    2.691618    4.267619
     54          6           0       10.783851    2.412819    4.506690
     55          6           0       11.428390    1.423532    3.760361
     56          6           0       10.731367    0.716210    2.783438
     57          7           0        9.304853   -0.706479    0.815897
     58          6           0       10.561413   -2.982572   -0.299809
     59          6           0       11.277970   -3.971268   -0.969437
     60          1           0       11.408161   -5.199696   -2.739786
     61          1           0        9.359182   -4.231588   -3.765840
     62          1           0        8.093391   -2.478074   -2.589483
     63          1           0        6.721363   -1.746339   -1.069840
     64          1           0        5.072197    1.167323    2.111414
     65          1           0        2.680846    1.736183    1.872366
     66          1           0        1.202881    3.147340    0.755590
     67          1           0       -1.172211    3.711445    0.530063
     68          1           0       -2.769206    4.391133   -1.022395
     69          1           0       -5.182189    4.985123   -1.130287
     70          1           0       -9.196624    4.449149   -2.270748
     71          1           0      -11.419707    5.542529   -2.085907
     72          1           0      -12.980275    4.883943   -0.262891
     73          1           0      -12.298675    3.132981    1.367645
     74          1           0      -10.095862    2.034064    1.161201
     75          1           0      -10.015812    0.564125   -0.683363
     76          1           0       -9.620559   -1.891663   -0.706007
     77          1           0       -3.825365    0.285253   -0.383509
     78          1           0       -4.513683   -1.227066   -1.497591
     79          1           0       -5.583194   -3.163450   -2.222139
     80          1           0       -4.833880   -2.829309    1.449581
     81          1           0       -3.713718   -4.620704    2.760502
     82          1           0       -3.176354   -6.795664    1.684344
     83          1           0       -3.769056   -7.177819   -0.699961
     84          1           0       -4.899923   -5.389148   -1.995765
     85          1           0       -1.838104    0.047902   -1.615644
     86          1           0        0.521419   -0.552241   -1.325188
     87          1           0        2.674256   -0.018466   -2.052820
     88          1           0        5.032218   -0.609620   -1.797040
     89          1           0        7.691799    2.198744    3.095806
     90          1           0        8.929064    3.461997    4.842670
     91          1           0       11.328852    2.964380    5.268419
     92          1           0       12.477646    1.203403    3.939035
     93          1           0       11.224518   -0.049821    2.196038
     94          1           0       10.889779   -2.617918    0.667058
     95          1           0       12.175148   -4.385540   -0.517266
 ---------------------------------------------------------------------

 SCF Done:  E(RB3LYP) =  -2373.72701898     A.U. after   14 cycles

 Excitation energies and oscillator strengths:

 Excited state symmetry could not be determined.
 Excited State   1:      Triplet-?Sym    2.3487 eV  527.88 nm  f=0.0000  <S**2>=2.000
     196 ->202         0.10426
     197 ->199         0.11841
     198 ->199        -0.37693
     198 ->200         0.39254
     198 ->201        -0.30812
 This state for optimization and/or second-order correction.
 Total Energy, E(TD-HF/TD-DFT) =  -2373.64070467
 Copying the excited state density for this state as the 1-particle RhoCI density.

 Excited state symmetry could not be determined.
 Excited State   2:      Triplet-?Sym    2.7594 eV  449.32 nm  f=0.0000  <S**2>=2.000
     194 ->199         0.19750
     195 ->201        -0.11466
     196 ->199        -0.13051
     196 ->201         0.12298
     197 ->199         0.43326
     197 ->203         0.11051
     198 ->199        -0.17382
     198 ->200        -0.12925
     198 ->201         0.18077
     198 ->203        -0.15232

 Excited state symmetry could not be determined.
 Excited State   3:      Singlet-?Sym    3.0496 eV  406.56 nm  f=0.5092  <S**2>=0.000
     198 ->199         0.66808
     198 ->200        -0.18260
     198 ->201         0.10182

 Excited state symmetry could not be determined.
 Excited State   4:      Singlet-?Sym    3.3932 eV  365.39 nm  f=0.0389  <S**2>=0.000
     198 ->199         0.21651
     198 ->200         0.59074
     198 ->201        -0.29392

 Alpha  occ. eigenvalues --  -19.18969 -14.36403 -14.32909 -14.32898 -14.31906
 Alpha  occ. eigenvalues --  -10.29385 -10.25954 -10.25167 -10.24564 -10.24536
 Alpha  occ. eigenvalues --  -10.23341 -10.23318 -10.21772 -10.21348 -10.20762
 Alpha  occ. eigenvalues --  -10.20462 -10.20445 -10.20432 -10.20384 -10.20363
 Alpha  occ. eigenvalues --  -10.20362 -10.20320 -10.20256 -10.20087 -10.20007
 Alpha  occ. eigenvalues --  -10.19991 -10.19921 -10.19885 -10.19842 -10.19796
 Alpha  occ. eigenvalues --  -10.19744 -10.19727 -10.19663 -10.19636 -10.19629
 Alpha  occ. eigenvalues --  -10.19619 -10.19563 -10.19544 -10.19520 -10.19519
 Alpha  occ. eigenvalues --  -10.19460 -10.19447 -10.19425 -10.19328 -10.19294
 Alpha  occ. eigenvalues --  -10.19230 -10.19154 -10.19136 -10.18950 -10.18910
 Alpha  occ. eigenvalues --  -10.18853 -10.18850 -10.18726 -10.18640 -10.18541
 Alpha  occ. eigenvalues --  -10.18540 -10.18536 -10.18330 -10.18322  -1.09272
 Alpha  occ. eigenvalues --   -0.98328  -0.94173  -0.93243  -0.89489  -0.87520
 Alpha  occ. eigenvalues --   -0.86838  -0.86387  -0.85754  -0.85377  -0.85181
 Alpha  occ. eigenvalues --   -0.84911  -0.84038  -0.80949  -0.79235  -0.78740
 Alpha  occ. eigenvalues --   -0.77857  -0.76766  -0.75589  -0.75542  -0.75229
 Alpha  occ. eigenvalues --   -0.75061  -0.74857  -0.74579  -0.74203  -0.73837
 Alpha  occ. eigenvalues --   -0.73673  -0.73465  -0.72928  -0.71204  -0.67526
 Alpha  occ. eigenvalues --   -0.66429  -0.66135  -0.64824  -0.64210  -0.62872
 Alpha  occ. eigenvalues --   -0.62490  -0.61876  -0.61499  -0.61014  -0.60607
 Alpha  occ. eigenvalues --   -0.60316  -0.60082  -0.59545  -0.59441  -0.58831
 Alpha  occ. eigenvalues --   -0.58070  -0.57607  -0.57188  -0.54747  -0.54173
 Alpha  occ. eigenvalues --   -0.53872  -0.53087  -0.52751  -0.52048  -0.51757
 Alpha  occ. eigenvalues --   -0.51498  -0.51032  -0.50595  -0.49648  -0.48948
 Alpha  occ. eigenvalues --   -0.48445  -0.47526  -0.47444  -0.46710  -0.46392
 Alpha  occ. eigenvalues --   -0.46362  -0.45591  -0.45480  -0.44950  -0.44891
 Alpha  occ. eigenvalues --   -0.44696  -0.44600  -0.44402  -0.44223  -0.43703
 Alpha  occ. eigenvalues --   -0.43230  -0.43179  -0.43036  -0.42914  -0.42787
 Alpha  occ. eigenvalues --   -0.42718  -0.42571  -0.42296  -0.42152  -0.41923
 Alpha  occ. eigenvalues --   -0.41781  -0.41454  -0.41150  -0.40961  -0.40834
 Alpha  occ. eigenvalues --   -0.40540  -0.39419  -0.38891  -0.38540  -0.38303
 Alpha  occ. eigenvalues --   -0.37577  -0.37272  -0.37033  -0.36779  -0.36467
 Alpha  occ. eigenvalues --   -0.36201  -0.35762  -0.35685  -0.35474  -0.35353
 Alpha  occ. eigenvalues --   -0.35195  -0.35058  -0.34849  -0.34484  -0.34388
 Alpha  occ. eigenvalues --   -0.34208  -0.34192  -0.33767  -0.33609  -0.33553
 Alpha  occ. eigenvalues --   -0.33030  -0.32084  -0.30627  -0.30308  -0.29627
 Alpha  occ. eigenvalues --   -0.28403  -0.27397  -0.25902  -0.25823  -0.25670
 Alpha  occ. eigenvalues --   -0.25631  -0.25626  -0.25597  -0.25120  -0.24800
 Alpha  occ. eigenvalues --   -0.24516  -0.24494  -0.24374  -0.23556  -0.22944
 Alpha  occ. eigenvalues --   -0.22803  -0.21569  -0.19214
 Alpha virt. eigenvalues --   -0.06726  -0.05501  -0.05099  -0.03461  -0.02580
 Alpha virt. eigenvalues --   -0.01906  -0.00996  -0.00872  -0.00529  -0.00467
 Alpha virt. eigenvalues --   -0.00324  -0.00092   0.00310   0.00672   0.01978

 Mulliken charges:
               1
     1  C   -0.119879
     2  C   -0.138822
     3  C   -0.170762
     4  C    0.093614
     5  C    0.276058
     6  C   -0.222458
     7  C    0.279501
     8  C    0.098639
     9  C   -0.163616
    10  C   -0.183617
    11  C    0.102764
    12  C    0.093260
    13  C   -0.179855
    14  C   -0.181942
    15  C    0.096417
    16  C    0.096698
    17  C   -0.181388
    18  C   -0.161798
    19  C    0.237733
    20  N   -0.569765
    21  C    0.157289
    22  C    0.099981
    23  C   -0.142494
    24  C   -0.138126
    25  C   -0.123413
    26  C   -0.137187
    27  C   -0.173661
    28  C    0.082267
    29  C   -0.230513
    30  C   -0.193602
    31  C    0.376226
    32  C    0.185282
    33  C    0.072010
    34  C    0.111367
    35  C   -0.306573
    36  N   -0.705707
    37  C    0.186061
    38  C    0.169366
    39  C   -0.162081
    40  C   -0.133232
    41  C   -0.123169
    42  C   -0.131491
    43  C   -0.184825
    44  O   -0.537083
    45  C   -0.174901
    46  C   -0.180368
    47  C   -0.187335
    48  C   -0.179298
    49  N   -0.557493
    50  C    0.444686
    51  C    0.074910
    52  C   -0.161614
    53  C   -0.139138
    54  C   -0.118967
    55  C   -0.139066
    56  C   -0.161781
    57  N   -0.554714
    58  C   -0.155064
    59  C   -0.136543
    60  H    0.133915
    61  H    0.133147
    62  H    0.130066
    63  H    0.150339
    64  H    0.161564
    65  H    0.137669
    66  H    0.137137
    67  H    0.137925
    68  H    0.134391
    69  H    0.143523
    70  H    0.144141
    71  H    0.131228
    72  H    0.129949
    73  H    0.130787
    74  H    0.141058
    75  H    0.155137
    76  H    0.147642
    77  H    0.160144
    78  H    0.328970
    79  H    0.134130
    80  H    0.152745
    81  H    0.137500
    82  H    0.135424
    83  H    0.134707
    84  H    0.131478
    85  H    0.119792
    86  H    0.133444
    87  H    0.135070
    88  H    0.131213
    89  H    0.155746
    90  H    0.129383
    91  H    0.129346
    92  H    0.129345
    93  H    0.156132
    94  H    0.159974
    95  H    0.135049
 Sum of Mulliken charges =  -0.00000

 Dipole moment (field-independent basis, Debye):
    X=             -0.0469    Y=             -3.5258    Z=             -1.8406  Tot=              3.9776
 Quadrupole moment (field-independent basis, Debye-Ang):
   XX=           -327.6942   YY=           -317.0737   ZZ=           -318.7869
   XY=             -7.0735   XZ=             -2.2232   YZ=             13.3785

 Normal termination of Gaussian 16 at Sat Nov  5 11:05:51 2022.
