 Gaussian 16, Revision B.01,
 Gaussian 16:  ES64L-G16RevB.01 20-Dec-2017

 -----------------------------
 #p b3lyp/6-31g(d) opt SCF=XQC
 -----------------------------

 ------------------------------
 Gaussian input prepared by ASE
 ------------------------------
 Symbolic Z-matrix:
 Charge =  0 Multiplicity = 1

 SCF Done:  E(RB3LYP) =  -3071.92751514     A.U. after   14 cycles
 SCF Done:  E(RB3LYP) =  -3071.94279100     A.U. after   13 cycles
 SCF Done:  E(RB3LYP) =  -3071.94322278     A.U. after   12 cycles
 SCF Done:  E(RB3LYP) =  -3071.94335249     A.U. after   12 cycles
 SCF Done:  E(RB3LYP) =  -3071.94339258     A.U. after   11 cycles
 SCF Done:  E(RB3LYP) =  -3071.94342598     A.U. after   12 cycles
 SCF Done:  E(RB3LYP) =  -3071.94345660     A.U. after   12 cycles
 SCF Done:  E(RB3LYP) =  -3071.94347451     A.U. after   12 cycles
 SCF Done:  E(RB3LYP) =  -3071.94350103     A.U. after   12 cycles
 SCF Done:  E(RB3LYP) =  -3071.94356827     A.U. after   15 cycles
 SCF Done:  E(RB3LYP) =  -3071.94360530     A.U. after   11 cycles
 SCF Done:  E(RB3LYP) =  -3071.94360403     A.U. after   13 cycles
 SCF Done:  E(RB3LYP) =  -3071.94357727     A.U. after   12 cycles
 SCF Done:  E(RB3LYP) =  -3071.94363673     A.U. after   12 cycles
 SCF Done:  E(RB3LYP) =  -3071.94362990     A.U. after   12 cycles
 SCF Done:  E(RB3LYP) =  -3071.94364262     A.U. after   11 cycles
 SCF Done:  E(RB3LYP) =  -3071.94364171     A.U. after   11 cycles
 SCF Done:  E(RB3LYP) =  -3071.94364287     A.U. after   11 cycles
 SCF Done:  E(RB3LYP) =  -3071.94364292     A.U. after    7 cycles
 SCF Done:  E(RB3LYP) =  -3071.94364292     A.U. after    5 cycles
 Optimization completed.
    -- Stationary point found.

                         Standard orientation:
 ---------------------------------------------------------------------
 Center     Atomic      Atomic             Coordinates (Angstroms)
 Number     Number       Type             X           Y           Z
 ---------------------------------------------------------------------
      1          6           0       -9.052342   -4.554378   -3.008427
      2          6           0       -7.963598   -3.737827   -3.334159
      3          6           0       -7.409696   -2.876345   -2.380894
      4          6           0       -7.959066   -2.845405   -1.104939
      5          6           0       -9.054431   -3.665287   -0.773549
      6          6           0       -9.605777   -4.524412   -1.726518
      7          6           0       -9.417430   -3.420642    0.629532
      8          6           0      -10.422359   -3.973820    1.426053
      9          6           0      -10.543438   -3.549326    2.751039
     10          6           0       -9.673298   -2.585862    3.273428
     11          6           0       -8.665818   -2.030438    2.477116
     12          6           0       -8.543683   -2.451676    1.158459
     13          6           0       -7.533110   -1.997324    0.099836
     14          6           0       -6.079729   -2.205226    0.515029
     15          6           0       -5.473321   -3.386133    0.922501
     16          6           0       -4.131486   -3.360251    1.314249
     17          6           0       -3.422220   -2.156175    1.309576
     18          6           0       -4.030206   -0.969518    0.894189
     19          6           0       -5.363689   -0.990217    0.472159
     20          6           0       -6.272936    0.072142    0.000190
     21          6           0       -7.553218   -0.494238   -0.175814
     22          6           0       -8.666962    0.256993   -0.552121
     23          6           0       -8.539282    1.627976   -0.770166
     24          6           0       -7.270944    2.173612   -0.626355
     25          8           0       -7.002165    3.505337   -0.837166
     26          6           0       -5.652343    3.653387   -0.653567
     27          6           0       -4.970759    4.852553   -0.799425
     28          6           0       -3.589387    4.822676   -0.617744
     29          6           0       -2.911978    3.624057   -0.313151
     30          6           0       -1.421744    3.622093   -0.152426
     31          6           0       -0.849918    3.626459    1.139272
     32          6           0       -1.658048    3.648321    2.322793
     33          6           0       -1.097446    3.637722    3.572072
     34          6           0        0.316196    3.602492    3.723351
     35          6           0        1.128356    3.593325    2.620936
     36          6           0        0.588833    3.616284    1.293345
     37          6           0        1.421733    3.622089    0.152484
     38          6           0        2.911968    3.624049    0.313210
     39          6           0        3.589375    4.822663    0.617824
     40          6           0        4.970747    4.852538    0.799507
     41          6           0        5.652330    3.653374    0.653628
     42          8           0        7.002152    3.505322    0.837229
     43          6           0        7.270933    2.173602    0.626395
     44          6           0        8.539271    1.627966    0.770202
     45          6           0        8.666956    0.256987    0.552133
     46          6           0        7.553215   -0.494239    0.175806
     47          6           0        6.272932    0.072141   -0.000195
     48          6           0        6.109329    1.449066    0.271545
     49          6           0        5.029894    2.432898    0.318341
     50          6           0        3.635446    2.433916    0.168675
     51          6           0        5.363693   -0.990214   -0.472190
     52          6           0        4.030213   -0.969515   -0.894231
     53          6           0        3.422235   -2.156168   -1.309641
     54          6           0        4.131505   -3.360241   -1.314328
     55          6           0        5.473338   -3.386124   -0.922570
     56          6           0        6.079737   -2.205221   -0.515075
     57          6           0        7.533114   -1.997320   -0.099869
     58          6           0        8.543696   -2.451650   -1.158494
     59          6           0        8.665838   -2.030390   -2.477142
     60          6           0        9.673325   -2.585796   -3.273457
     61          6           0       10.543465   -3.549267   -2.751080
     62          6           0       10.422379   -3.973783   -1.426101
     63          6           0        9.417443   -3.420623   -0.629578
     64          6           0        9.054436   -3.665292    0.773498
     65          6           0        9.605780   -4.524431    1.726456
     66          6           0        9.052337   -4.554422    3.008360
     67          6           0        7.963588   -3.737880    3.334100
     68          6           0        7.409688   -2.876384    2.380846
     69          6           0        7.959067   -2.845420    1.104894
     70          6           0        0.849907    3.626596   -1.139212
     71          6           0        1.658040    3.648589   -2.322729
     72          6           0        1.097441    3.638120   -3.572010
     73          6           0       -0.316201    3.602895   -3.723295
     74          6           0       -1.128363    3.593601   -2.620883
     75          6           0       -0.588844    3.616425   -1.293288
     76          6           0       -3.635458    2.433920   -0.168637
     77          6           0       -5.029905    2.432906   -0.318302
     78          6           0       -6.109338    1.449072   -0.271524
     79          1           0       -9.471391   -5.218117   -3.760037
     80          1           0       -7.544281   -3.772493   -4.336044
     81          1           0       -6.564315   -2.242718   -2.635899
     82          1           0      -10.451554   -5.160841   -1.478790
     83          1           0      -11.101178   -4.722405    1.025347
     84          1           0      -11.320988   -3.971269    3.382278
     85          1           0       -9.780464   -2.265907    4.306356
     86          1           0       -7.990832   -1.282407    2.884547
     87          1           0       -6.038368   -4.314091    0.946435
     88          1           0       -3.643942   -4.276252    1.636494
     89          1           0       -2.386391   -2.137407    1.637381
     90          1           0       -3.471215   -0.044484    0.938942
     91          1           0       -9.633632   -0.224703   -0.666444
     92          1           0       -9.381282    2.250867   -1.051829
     93          1           0       -5.498211    5.766377   -1.052092
     94          1           0       -3.015916    5.739041   -0.721717
     95          1           0       -2.736329    3.674333    2.213244
     96          1           0       -1.733477    3.655089    4.453068
     97          1           0        0.751343    3.583907    4.718987
     98          1           0        2.205460    3.566712    2.741866
     99          1           0        3.015903    5.739026    0.721816
    100          1           0        5.498198    5.766356    1.052193
    101          1           0        9.381268    2.250854    1.051880
    102          1           0        9.633626   -0.224708    0.666452
    103          1           0        3.091724    1.519465   -0.028111
    104          1           0        3.471219   -0.044484   -0.938975
    105          1           0        2.386408   -2.137399   -1.637455
    106          1           0        3.643967   -4.276240   -1.636591
    107          1           0        6.038388   -4.314079   -0.946514
    108          1           0        7.990852   -1.282355   -2.884565
    109          1           0        9.780496   -2.265824   -4.306380
    110          1           0       11.321020   -3.971196   -3.382321
    111          1           0       11.101198   -4.722373   -1.025404
    112          1           0       10.451560   -5.160853    1.478722
    113          1           0        9.471383   -5.218171    3.759962
    114          1           0        7.544264   -3.772564    4.335981
    115          1           0        6.564304   -2.242764    2.635856
    116          1           0        2.736321    3.674592   -2.213173
    117          1           0        1.733473    3.655585   -4.453003
    118          1           0       -0.751346    3.584409   -4.718934
    119          1           0       -2.205466    3.566985   -2.741819
    120          1           0       -3.091736    1.519464    0.028132
 ---------------------------------------------------------------------

 The electronic state is 1-A.
 Alpha  occ. eigenvalues --  -19.21008 -19.21008 -10.25004 -10.25004 -10.24957
 Alpha  occ. eigenvalues --  -10.24957 -10.21429 -10.21429 -10.20737 -10.20737
 Alpha  occ. eigenvalues --  -10.20663 -10.20663 -10.20566 -10.20566 -10.20033
 Alpha  occ. eigenvalues --  -10.20032 -10.19952 -10.19948 -10.19924 -10.19924
 Alpha  occ. eigenvalues --  -10.19875 -10.19863 -10.19863 -10.19860 -10.19856
 Alpha  occ. eigenvalues --  -10.19856 -10.19836 -10.19826 -10.19752 -10.19752
 Alpha  occ. eigenvalues --  -10.19642 -10.19642 -10.19606 -10.19606 -10.19577
 Alpha  occ. eigenvalues --  -10.19577 -10.19545 -10.19545 -10.19492 -10.19492
 Alpha  occ. eigenvalues --  -10.19478 -10.19478 -10.19426 -10.19426 -10.19398
 Alpha  occ. eigenvalues --  -10.19398 -10.19140 -10.19140 -10.19134 -10.19134
 Alpha  occ. eigenvalues --  -10.19120 -10.19120 -10.19074 -10.19074 -10.19061
 Alpha  occ. eigenvalues --  -10.19061 -10.19042 -10.19042 -10.19005 -10.19005
 Alpha  occ. eigenvalues --  -10.19002 -10.19002 -10.18984 -10.18984 -10.18956
 Alpha  occ. eigenvalues --  -10.18956 -10.18951 -10.18951 -10.18933 -10.18933
 Alpha  occ. eigenvalues --  -10.18793 -10.18793 -10.18748 -10.18748 -10.18523
 Alpha  occ. eigenvalues --  -10.18523 -10.18522 -10.18522  -1.10839  -1.10839
 Alpha  occ. eigenvalues --   -0.90307  -0.90307  -0.88565  -0.87414  -0.87382
 Alpha  occ. eigenvalues --   -0.86625  -0.85755  -0.84827  -0.84821  -0.84425
 Alpha  occ. eigenvalues --   -0.84279  -0.84279  -0.81199  -0.81175  -0.80597
 Alpha  occ. eigenvalues --   -0.80205  -0.78698  -0.78514  -0.78474  -0.78287
 Alpha  occ. eigenvalues --   -0.76452  -0.76446  -0.75438  -0.74647  -0.74443
 Alpha  occ. eigenvalues --   -0.74442  -0.74236  -0.74183  -0.74183  -0.73476
 Alpha  occ. eigenvalues --   -0.73175  -0.73164  -0.71608  -0.71522  -0.71341
 Alpha  occ. eigenvalues --   -0.71341  -0.69379  -0.68542  -0.68494  -0.65600
 Alpha  occ. eigenvalues --   -0.64752  -0.64072  -0.63655  -0.63647  -0.62473
 Alpha  occ. eigenvalues --   -0.62227  -0.62135  -0.61376  -0.60872  -0.60503
 Alpha  occ. eigenvalues --   -0.60423  -0.58664  -0.58567  -0.58347  -0.58346
 Alpha  occ. eigenvalues --   -0.58321  -0.57468  -0.57466  -0.57452  -0.57075
 Alpha  occ. eigenvalues --   -0.56895  -0.56385  -0.55677  -0.53681  -0.53134
 Alpha  occ. eigenvalues --   -0.53133  -0.52618  -0.52584  -0.52091  -0.50998
 Alpha  occ. eigenvalues --   -0.50979  -0.50697  -0.49910  -0.49310  -0.49308
 Alpha  occ. eigenvalues --   -0.49053  -0.48307  -0.47844  -0.47502  -0.46671
 Alpha  occ. eigenvalues --   -0.46170  -0.46147  -0.46127  -0.46023  -0.45943
 Alpha  occ. eigenvalues --   -0.45884  -0.45804  -0.45533  -0.45523  -0.45152
 Alpha  occ. eigenvalues --   -0.44929  -0.44407  -0.44264  -0.44154  -0.44152
 Alpha  occ. eigenvalues --   -0.44117  -0.43684  -0.43100  -0.43097  -0.43068
 Alpha  occ. eigenvalues --   -0.42918  -0.42552  -0.42526  -0.42455  -0.42447
 Alpha  occ. eigenvalues --   -0.41978  -0.41890  -0.41884  -0.41729  -0.41372
 Alpha  occ. eigenvalues --   -0.41371  -0.40624  -0.40608  -0.40333  -0.39801
 Alpha  occ. eigenvalues --   -0.39744  -0.38851  -0.38593  -0.38485  -0.38024
 Alpha  occ. eigenvalues --   -0.38022  -0.37887  -0.37791  -0.37668  -0.37543
 Alpha  occ. eigenvalues --   -0.37193  -0.36190  -0.36150  -0.35759  -0.35677
 Alpha  occ. eigenvalues --   -0.35619  -0.35553  -0.35520  -0.35246  -0.35209
 Alpha  occ. eigenvalues --   -0.35119  -0.35119  -0.34973  -0.34970  -0.34542
 Alpha  occ. eigenvalues --   -0.34515  -0.34001  -0.33999  -0.33950  -0.33421
 Alpha  occ. eigenvalues --   -0.33421  -0.33398  -0.33389  -0.33107  -0.32084
 Alpha  occ. eigenvalues --   -0.32074  -0.31502  -0.29786  -0.29177  -0.29070
 Alpha  occ. eigenvalues --   -0.28810  -0.28146  -0.28145  -0.27815  -0.27791
 Alpha  occ. eigenvalues --   -0.25935  -0.25915  -0.25177  -0.24520  -0.24520
 Alpha  occ. eigenvalues --   -0.24468  -0.24410  -0.23904  -0.23841  -0.23748
 Alpha  occ. eigenvalues --   -0.22393  -0.22372  -0.21529  -0.21513  -0.20607
 Alpha  occ. eigenvalues --   -0.20591  -0.18927
 Alpha virt. eigenvalues --   -0.06149  -0.04915  -0.04899  -0.03099  -0.03099
 Alpha virt. eigenvalues --   -0.01812  -0.01652  -0.01381  -0.01376  -0.01051
 Alpha virt. eigenvalues --   -0.00629  -0.00431   0.00444   0.00614   0.00694

 Mulliken charges:
               1
     1  C   -0.135231
     2  C   -0.135712
     3  C   -0.188483
     4  C    0.126776
     5  C    0.065639
     6  C   -0.190152
     7  C    0.065146
     8  C   -0.190673
     9  C   -0.134980
    10  C   -0.136275
    11  C   -0.187671
    12  C    0.121771
    13  C   -0.271749
    14  C    0.116829
    15  C   -0.185822
    16  C   -0.135985
    17  C   -0.138030
    18  C   -0.188722
    19  C    0.083778
    20  C   -0.039027
    21  C    0.126030
    22  C   -0.197517
    23  C   -0.214894
    24  C    0.330024
    25  O   -0.548860
    26  C    0.312512
    27  C   -0.204772
    28  C   -0.164590
    29  C    0.004759
    30  C   -0.081940
    31  C    0.105450
    32  C   -0.199895
    33  C   -0.134419
    34  C   -0.134587
    35  C   -0.198576
    36  C    0.104356
    37  C   -0.081944
    38  C    0.004755
    39  C   -0.164587
    40  C   -0.204772
    41  C    0.312512
    42  O   -0.548860
    43  C    0.330024
    44  C   -0.214895
    45  C   -0.197517
    46  C    0.126030
    47  C   -0.039027
    48  C    0.006815
    49  C    0.106788
    50  C   -0.234098
    51  C    0.083778
    52  C   -0.188723
    53  C   -0.138030
    54  C   -0.135985
    55  C   -0.185822
    56  C    0.116829
    57  C   -0.271749
    58  C    0.121771
    59  C   -0.187671
    60  C   -0.136275
    61  C   -0.134980
    62  C   -0.190673
    63  C    0.065146
    64  C    0.065639
    65  C   -0.190152
    66  C   -0.135232
    67  C   -0.135712
    68  C   -0.188482
    69  C    0.126776
    70  C    0.105451
    71  C   -0.199894
    72  C   -0.134419
    73  C   -0.134587
    74  C   -0.198577
    75  C    0.104355
    76  C   -0.234100
    77  C    0.106788
    78  C    0.006815
    79  H    0.129286
    80  H    0.130190
    81  H    0.139276
    82  H    0.129611
    83  H    0.129721
    84  H    0.129355
    85  H    0.130207
    86  H    0.139537
    87  H    0.140472
    88  H    0.131572
    89  H    0.132950
    90  H    0.143480
    91  H    0.145280
    92  H    0.148631
    93  H    0.149890
    94  H    0.143020
    95  H    0.145021
    96  H    0.129871
    97  H    0.129628
    98  H    0.145959
    99  H    0.143020
   100  H    0.149890
   101  H    0.148631
   102  H    0.145280
   103  H    0.153033
   104  H    0.143480
   105  H    0.132950
   106  H    0.131572
   107  H    0.140472
   108  H    0.139537
   109  H    0.130207
   110  H    0.129355
   111  H    0.129721
   112  H    0.129611
   113  H    0.129286
   114  H    0.130190
   115  H    0.139276
   116  H    0.145021
   117  H    0.129871
   118  H    0.129628
   119  H    0.145959
   120  H    0.153034
 Sum of Mulliken charges =  -0.00000

 Dipole moment (field-independent basis, Debye):
    X=              0.0000    Y=             -1.5163    Z=             -0.0000  Tot=              1.5163
 Quadrupole moment (field-independent basis, Debye-Ang):
   XX=           -401.6268   YY=           -416.8262   ZZ=           -416.6070
   XY=              0.0001   XZ=             -1.1926   YZ=             -0.0007

 Normal termination of Gaussian 16 at Sat Nov  5 02:55:42 2022.
