 Gaussian 16, Revision B.01,
 Gaussian 16:  ES64L-G16RevB.01 20-Dec-2017

 -------------------------------------------------------------------
 #p b3lyp/6-31g(d) 6D 10F nosymm GFInput td=(50-50,nstate=2) SCF=XQC
 -------------------------------------------------------------------

 ------------------------------
 Gaussian input prepared by ASE
 ------------------------------
 Symbolic Z-matrix:
 Charge =  0 Multiplicity = 1

                          Input orientation:
 ---------------------------------------------------------------------
 Center     Atomic      Atomic             Coordinates (Angstroms)
 Number     Number       Type             X           Y           Z
 ---------------------------------------------------------------------
      1          6           0        9.570189    2.483800   -3.569040
      2          6           0        8.504988    1.576309   -3.563821
      3          6           0        7.784008    1.331813   -2.389903
      4          6           0        8.143634    2.005610   -1.229086
      5          6           0        9.214717    2.919190   -1.230400
      6          6           0        9.933025    3.161747   -2.403186
      7          6           0        9.362693    3.472274    0.123284
      8          6           0       10.266423    4.403741    0.639010
      9          6           0       10.178596    4.753486    1.988235
     10          6           0        9.202074    4.181104    2.811085
     11          6           0        8.295694    3.247745    2.296358
     12          6           0        8.381434    2.898566    0.953997
     13          6           0        7.513819    1.911214    0.166115
     14          6           0        6.026352    2.249772    0.193425
     15          6           0        5.419394    3.441361   -0.180773
     16          6           0        4.035503    3.574089   -0.032825
     17          6           0        3.282979    2.524441    0.500866
     18          6           0        3.892381    1.323845    0.871735
     19          6           0        5.272116    1.170305    0.700056
     20          6           0        6.192844    0.056841    1.000968
     21          6           0        7.508333    0.493660    0.737223
     22          6           0        8.631007   -0.297539    0.982150
     23          6           0        8.476849   -1.578597    1.509944
     24          6           0        7.178661   -2.014495    1.737507
     25          8           0        6.885641   -3.264120    2.230203
     26          6           0        5.518323   -3.345697    2.268092
     27          6           0        4.813550   -4.465112    2.685268
     28          6           0        3.422974   -4.398410    2.622511
     29          6           0        2.761267   -3.249339    2.142796
     30          6           0        1.264839   -3.221738    2.061719
     31          6           0        0.514712   -2.561833    3.060379
     32          6           0        1.143797   -1.919149    4.176392
     33          6           0        0.411473   -1.268674    5.133298
     34          6           0       -1.006439   -1.214887    5.037674
     35          6           0       -1.651640   -1.825374    3.995548
     36          6           0       -0.929505   -2.528764    2.976787
     37          6           0       -1.590367   -3.173178    1.907529
     38          6           0       -3.086965   -3.148897    1.828535
     39          6           0       -3.851932   -4.028293    2.622156
     40          6           0       -5.245082   -4.012151    2.591139
     41          6           0       -5.846547   -3.102170    1.734397
     42          8           0       -7.201109   -2.933192    1.615009
     43          6           0       -7.379402   -1.929089    0.692967
     44          6           0       -8.630584   -1.441582    0.340885
     45          6           0       -8.666636   -0.402473   -0.587766
     46          6           0       -7.479246    0.077659   -1.140903
     47          6           0       -6.212548   -0.444034   -0.802967
     48          6           0       -6.148903   -1.458219    0.178821
     49          6           0       -5.130612   -2.222768    0.895650
     50          6           0       -3.730437   -2.247515    0.971689
     51          6           0       -5.200304    0.240368   -1.630644
     52          6           0       -3.822354    0.051792   -1.780345
     53          6           0       -3.110728    0.859418   -2.670106
     54          6           0       -3.759526    1.847479   -3.415543
     55          6           0       -5.141185    2.024015   -3.295082
     56          6           0       -5.849873    1.217111   -2.414757
     57          6           0       -7.355248    1.203834   -2.166577
     58          6           0       -8.183730    0.985385   -3.437118
     59          6           0       -8.134288   -0.076690   -4.331972
     60          6           0       -8.992825   -0.070094   -5.436732
     61          6           0       -9.886345    0.988041   -5.637405
     62          6           0       -9.937595    2.056194   -4.739147
     63          6           0       -9.081512    2.051507   -3.635773
     64          6           0       -8.912451    3.018634   -2.541999
     65          6           0       -9.556742    4.230023   -2.281896
     66          6           0       -9.191315    4.958702   -1.147891
     67          6           0       -8.196454    4.484314   -0.285668
     68          6           0       -7.549694    3.270875   -0.544398
     69          6           0       -7.911995    2.544698   -1.672331
     70          6           0       -0.840624   -3.840591    0.913582
     71          6           0       -1.471600   -4.520382   -0.179133
     72          6           0       -0.738371   -5.153030   -1.147233
     73          6           0        0.682575   -5.147203   -1.089036
     74          6           0        1.328574   -4.521096   -0.056717
     75          6           0        0.604470   -3.856445    0.986366
     76          6           0        3.507270   -2.136607    1.735318
     77          6           0        4.907532   -2.159634    1.810278
     78          6           0        6.010580   -1.259203    1.481944
     79          1           0       10.120501    2.662750   -4.488933
     80          1           0        8.234970    1.056498   -4.479075
     81          1           0        6.957223    0.626405   -2.387802
     82          1           0       10.761362    3.865675   -2.412793
     83          1           0       11.027128    4.851326    0.004395
     84          1           0       10.875448    5.476999    2.402972
     85          1           0        9.146710    4.463550    3.858919
     86          1           0        7.537843    2.804356    2.936846
     87          1           0        6.014668    4.261844   -0.572452
     88          1           0        3.546841    4.500974   -0.320390
     89          1           0        2.211109    2.641422    0.635635
     90          1           0        3.293409    0.542579    1.320085
     91          1           0        9.623936    0.087885    0.769804
     92          1           0        9.322828   -2.221748    1.726662
     93          1           0        5.331828   -5.351587    3.035510
     94          1           0        2.831302   -5.251954    2.939990
     95          1           0        2.224537   -1.956343    4.253751
     96          1           0        0.913791   -0.789819    5.969578
     97          1           0       -1.578137   -0.687436    5.796586
     98          1           0       -2.732816   -1.781575    3.927540
     99          1           0       -3.339205   -4.725549    3.278167
    100          1           0       -5.842087   -4.672171    3.211686
    101          1           0       -9.530224   -1.852569    0.785889
    102          1           0       -9.618068    0.027299   -0.887140
    103          1           0       -3.125301   -1.556605    0.399821
    104          1           0       -3.303070   -0.732416   -1.246002
    105          1           0       -2.040477    0.710670   -2.784945
    106          1           0       -3.191956    2.470776   -4.101082
    107          1           0       -5.656520    2.773954   -3.889202
    108          1           0       -7.440880   -0.899231   -4.177800
    109          1           0       -8.965032   -0.894028   -6.144656
    110          1           0      -10.546853    0.978590   -6.500377
    111          1           0      -10.633808    2.875476   -4.899781
    112          1           0      -10.330255    4.603146   -2.948384
    113          1           0       -9.684443    5.903035   -0.933116
    114          1           0       -7.923442    5.062807    0.592748
    115          1           0       -6.777492    2.903973    0.126620
    116          1           0       -2.554582   -4.527197   -0.228859
    117          1           0       -1.242192   -5.661358   -1.965009
    118          1           0        1.255868   -5.643287   -1.867642
    119          1           0        2.412043   -4.519857   -0.016989
    120          1           0        2.980916   -1.279951    1.335727
 ---------------------------------------------------------------------

 SCF Done:  E(RB3LYP) =  -3071.94364572     A.U. after   14 cycles

 Excitation energies and oscillator strengths:

 Excited state symmetry could not be determined.
 Excited State   1:      Triplet-?Sym    1.7293 eV  716.97 nm  f=0.0000  <S**2>=2.000
     243 -> 274        0.10020
     257 -> 258        0.69722
     257 <- 258        0.13796
 This state for optimization and/or second-order correction.
 Total Energy, E(TD-HF/TD-DFT) =  -3071.88009564
 Copying the excited state density for this state as the 1-particle RhoCI density.

 Excited state symmetry could not be determined.
 Excited State   2:      Triplet-?Sym    2.7804 eV  445.93 nm  f=0.0000  <S**2>=2.000
     253 -> 259       -0.24102
     254 -> 260       -0.23931
     255 -> 259        0.36046
     255 -> 263        0.13211
     256 -> 260        0.36864
     256 -> 264       -0.13203

 Excited state symmetry could not be determined.
 Excited State   3:      Singlet-?Sym    3.1240 eV  396.88 nm  f=0.2622  <S**2>=0.000
     257 -> 258        0.69714

 Excited state symmetry could not be determined.
 Excited State   4:      Singlet-?Sym    3.3581 eV  369.21 nm  f=0.0039  <S**2>=0.000
     257 -> 259        0.69780

 Alpha  occ. eigenvalues --  -19.21008 -19.21008 -10.25004 -10.25004 -10.24957
 Alpha  occ. eigenvalues --  -10.24957 -10.21429 -10.21429 -10.20737 -10.20737
 Alpha  occ. eigenvalues --  -10.20663 -10.20663 -10.20566 -10.20566 -10.20033
 Alpha  occ. eigenvalues --  -10.20032 -10.19952 -10.19948 -10.19924 -10.19924
 Alpha  occ. eigenvalues --  -10.19875 -10.19863 -10.19863 -10.19860 -10.19856
 Alpha  occ. eigenvalues --  -10.19856 -10.19836 -10.19826 -10.19752 -10.19752
 Alpha  occ. eigenvalues --  -10.19642 -10.19642 -10.19606 -10.19606 -10.19577
 Alpha  occ. eigenvalues --  -10.19577 -10.19545 -10.19545 -10.19492 -10.19492
 Alpha  occ. eigenvalues --  -10.19478 -10.19478 -10.19426 -10.19426 -10.19398
 Alpha  occ. eigenvalues --  -10.19398 -10.19140 -10.19140 -10.19134 -10.19134
 Alpha  occ. eigenvalues --  -10.19120 -10.19120 -10.19074 -10.19074 -10.19061
 Alpha  occ. eigenvalues --  -10.19061 -10.19042 -10.19042 -10.19005 -10.19005
 Alpha  occ. eigenvalues --  -10.19002 -10.19002 -10.18984 -10.18984 -10.18956
 Alpha  occ. eigenvalues --  -10.18956 -10.18951 -10.18951 -10.18933 -10.18933
 Alpha  occ. eigenvalues --  -10.18793 -10.18793 -10.18748 -10.18748 -10.18523
 Alpha  occ. eigenvalues --  -10.18523 -10.18522 -10.18522  -1.10839  -1.10839
 Alpha  occ. eigenvalues --   -0.90307  -0.90307  -0.88565  -0.87414  -0.87382
 Alpha  occ. eigenvalues --   -0.86625  -0.85755  -0.84827  -0.84821  -0.84425
 Alpha  occ. eigenvalues --   -0.84279  -0.84279  -0.81199  -0.81175  -0.80597
 Alpha  occ. eigenvalues --   -0.80205  -0.78698  -0.78514  -0.78474  -0.78287
 Alpha  occ. eigenvalues --   -0.76452  -0.76446  -0.75438  -0.74647  -0.74443
 Alpha  occ. eigenvalues --   -0.74442  -0.74236  -0.74183  -0.74183  -0.73476
 Alpha  occ. eigenvalues --   -0.73175  -0.73164  -0.71608  -0.71522  -0.71341
 Alpha  occ. eigenvalues --   -0.71341  -0.69379  -0.68542  -0.68494  -0.65600
 Alpha  occ. eigenvalues --   -0.64752  -0.64072  -0.63655  -0.63647  -0.62473
 Alpha  occ. eigenvalues --   -0.62227  -0.62135  -0.61376  -0.60872  -0.60503
 Alpha  occ. eigenvalues --   -0.60423  -0.58664  -0.58567  -0.58347  -0.58346
 Alpha  occ. eigenvalues --   -0.58321  -0.57468  -0.57466  -0.57452  -0.57075
 Alpha  occ. eigenvalues --   -0.56895  -0.56385  -0.55677  -0.53681  -0.53134
 Alpha  occ. eigenvalues --   -0.53133  -0.52618  -0.52584  -0.52091  -0.50998
 Alpha  occ. eigenvalues --   -0.50979  -0.50697  -0.49910  -0.49310  -0.49308
 Alpha  occ. eigenvalues --   -0.49053  -0.48307  -0.47844  -0.47502  -0.46671
 Alpha  occ. eigenvalues --   -0.46170  -0.46147  -0.46127  -0.46023  -0.45943
 Alpha  occ. eigenvalues --   -0.45884  -0.45804  -0.45533  -0.45523  -0.45152
 Alpha  occ. eigenvalues --   -0.44929  -0.44407  -0.44264  -0.44154  -0.44152
 Alpha  occ. eigenvalues --   -0.44117  -0.43684  -0.43100  -0.43097  -0.43068
 Alpha  occ. eigenvalues --   -0.42918  -0.42552  -0.42526  -0.42455  -0.42447
 Alpha  occ. eigenvalues --   -0.41978  -0.41890  -0.41884  -0.41729  -0.41372
 Alpha  occ. eigenvalues --   -0.41371  -0.40624  -0.40608  -0.40333  -0.39801
 Alpha  occ. eigenvalues --   -0.39744  -0.38851  -0.38593  -0.38485  -0.38024
 Alpha  occ. eigenvalues --   -0.38022  -0.37887  -0.37791  -0.37668  -0.37543
 Alpha  occ. eigenvalues --   -0.37193  -0.36190  -0.36150  -0.35759  -0.35677
 Alpha  occ. eigenvalues --   -0.35619  -0.35553  -0.35520  -0.35246  -0.35209
 Alpha  occ. eigenvalues --   -0.35119  -0.35119  -0.34973  -0.34970  -0.34542
 Alpha  occ. eigenvalues --   -0.34515  -0.34001  -0.33999  -0.33950  -0.33421
 Alpha  occ. eigenvalues --   -0.33421  -0.33398  -0.33389  -0.33107  -0.32084
 Alpha  occ. eigenvalues --   -0.32074  -0.31502  -0.29786  -0.29177  -0.29070
 Alpha  occ. eigenvalues --   -0.28810  -0.28146  -0.28145  -0.27815  -0.27791
 Alpha  occ. eigenvalues --   -0.25935  -0.25915  -0.25177  -0.24520  -0.24520
 Alpha  occ. eigenvalues --   -0.24468  -0.24410  -0.23904  -0.23841  -0.23748
 Alpha  occ. eigenvalues --   -0.22393  -0.22372  -0.21529  -0.21513  -0.20607
 Alpha  occ. eigenvalues --   -0.20591  -0.18927
 Alpha virt. eigenvalues --   -0.06149  -0.04915  -0.04899  -0.03099  -0.03099
 Alpha virt. eigenvalues --   -0.01812  -0.01652  -0.01381  -0.01376  -0.01051
 Alpha virt. eigenvalues --   -0.00629  -0.00431   0.00444   0.00614   0.00694

 Mulliken charges:
               1
     1  C   -0.135231
     2  C   -0.135717
     3  C   -0.188477
     4  C    0.126771
     5  C    0.065638
     6  C   -0.190147
     7  C    0.065147
     8  C   -0.190675
     9  C   -0.134983
    10  C   -0.136272
    11  C   -0.187661
    12  C    0.121746
    13  C   -0.271717
    14  C    0.116826
    15  C   -0.185833
    16  C   -0.135972
    17  C   -0.138033
    18  C   -0.188730
    19  C    0.083789
    20  C   -0.039030
    21  C    0.126010
    22  C   -0.197512
    23  C   -0.214890
    24  C    0.330017
    25  O   -0.548858
    26  C    0.312509
    27  C   -0.204768
    28  C   -0.164593
    29  C    0.004769
    30  C   -0.081945
    31  C    0.105434
    32  C   -0.199892
    33  C   -0.134412
    34  C   -0.134590
    35  C   -0.198583
    36  C    0.104378
    37  C   -0.081952
    38  C    0.004763
    39  C   -0.164586
    40  C   -0.204771
    41  C    0.312521
    42  O   -0.548864
    43  C    0.330015
    44  C   -0.214890
    45  C   -0.197512
    46  C    0.126037
    47  C   -0.039020
    48  C    0.006802
    49  C    0.106798
    50  C   -0.234107
    51  C    0.083802
    52  C   -0.188725
    53  C   -0.138040
    54  C   -0.135972
    55  C   -0.185838
    56  C    0.116829
    57  C   -0.271774
    58  C    0.121746
    59  C   -0.187665
    60  C   -0.136260
    61  C   -0.134992
    62  C   -0.190674
    63  C    0.065170
    64  C    0.065608
    65  C   -0.190145
    66  C   -0.135222
    67  C   -0.135721
    68  C   -0.188496
    69  C    0.126811
    70  C    0.105433
    71  C   -0.199888
    72  C   -0.134417
    73  C   -0.134588
    74  C   -0.198585
    75  C    0.104383
    76  C   -0.234116
    77  C    0.106798
    78  C    0.006816
    79  H    0.129286
    80  H    0.130191
    81  H    0.139277
    82  H    0.129610
    83  H    0.129721
    84  H    0.129355
    85  H    0.130207
    86  H    0.139535
    87  H    0.140472
    88  H    0.131570
    89  H    0.132950
    90  H    0.143475
    91  H    0.145279
    92  H    0.148631
    93  H    0.149890
    94  H    0.143020
    95  H    0.145020
    96  H    0.129871
    97  H    0.129629
    98  H    0.145958
    99  H    0.143019
   100  H    0.149889
   101  H    0.148631
   102  H    0.145280
   103  H    0.153039
   104  H    0.143471
   105  H    0.132951
   106  H    0.131571
   107  H    0.140474
   108  H    0.139537
   109  H    0.130205
   110  H    0.129356
   111  H    0.129721
   112  H    0.129610
   113  H    0.129285
   114  H    0.130192
   115  H    0.139278
   116  H    0.145018
   117  H    0.129871
   118  H    0.129629
   119  H    0.145958
   120  H    0.153040
 Sum of Mulliken charges =  -0.00000

 Dipole moment (field-independent basis, Debye):
    X=              0.0653    Y=              1.2831    Z=             -0.8054  Tot=              1.5163
 Quadrupole moment (field-independent basis, Debye-Ang):
   XX=           -402.2986   YY=           -417.0289   ZZ=           -416.1712
   XY=              1.1857   XZ=              3.1048   YZ=              0.5003

 Normal termination of Gaussian 16 at Sat Nov  5 11:27:48 2022.
