 Gaussian 16, Revision B.01,
 Gaussian 16:  ES64L-G16RevB.01 20-Dec-2017

 -------------------------------------------------------------------
 #p b3lyp/6-31g(d) 6D 10F nosymm GFInput td=(50-50,nstate=2) SCF=XQC
 -------------------------------------------------------------------

 ------------------------------
 Gaussian input prepared by ASE
 ------------------------------
 Symbolic Z-matrix:
 Charge =  0 Multiplicity = 1

                          Input orientation:
 ---------------------------------------------------------------------
 Center     Atomic      Atomic             Coordinates (Angstroms)
 Number     Number       Type             X           Y           Z
 ---------------------------------------------------------------------
      1          6           0        9.301068    1.243835   -4.586883
      2          6           0        9.896383    1.871497   -3.492367
      3          6           0        9.410505    1.666553   -2.201427
      4          6           0        8.320621    0.809263   -1.981112
      5          7           0        7.843107    0.564458   -0.667062
      6          6           0        6.452389    0.454895   -0.398545
      7          6           0        5.500212    1.202072   -1.110405
      8          6           0        4.144843    1.078006   -0.822253
      9          6           0        3.679211    0.221874    0.190934
     10          6           0        2.235898    0.099755    0.496377
     11          6           0        1.777330   -0.107415    1.807917
     12          6           0        0.421855   -0.216333    2.102460
     13          6           0       -0.540505   -0.134102    1.083272
     14          7           0       -1.920613   -0.279803    1.365342
     15          6           0       -2.895497    0.501423    0.681266
     16          6           0       -2.660392    1.845438    0.357413
     17          6           0       -3.623663    2.600637   -0.317412
     18          6           0       -4.845682    2.019134   -0.644958
     19          6           0       -5.097470    0.665307   -0.296643
     20          6           0       -4.128704   -0.091373    0.336297
     21          6           0       -6.504044    0.204493   -0.773740
     22          6           0       -7.500170   -0.095169    0.368386
     23          6           0       -8.813499   -0.460049    0.028685
     24          6           0       -9.765132   -0.704060    1.015731
     25          6           0       -9.423358   -0.588911    2.365722
     26          6           0       -8.123996   -0.225452    2.712694
     27          6           0       -7.168902    0.022551    1.722113
     28          6           0       -6.362128   -0.986175   -1.742842
     29          6           0       -6.136741   -0.778917   -3.109886
     30          6           0       -5.944615   -1.858087   -3.973101
     31          6           0       -5.969438   -3.164489   -3.483496
     32          6           0       -6.190101   -3.381418   -2.122883
     33          6           0       -6.387677   -2.302120   -1.260826
     34          6           0       -6.916700    1.494466   -1.444376
     35          8           0       -8.067523    1.828942   -2.089363
     36          6           0       -7.897776    3.158748   -2.436603
     37          6           0       -8.825681    3.928144   -3.121445
     38          6           0       -8.469925    5.252625   -3.381951
     39          6           0       -7.229510    5.768039   -2.967076
     40          6           0       -6.308244    4.979588   -2.281107
     41          6           0       -6.638675    3.645220   -2.005091
     42          6           0       -6.023112    2.514281   -1.353297
     43          6           0       -2.337014   -0.998527    2.530317
     44          6           0       -2.976378   -0.328155    3.557584
     45          6           0       -3.409991   -1.011845    4.715131
     46          6           0       -3.186542   -2.362759    4.848319
     47          6           0       -2.540065   -3.092723    3.815342
     48          6           0       -2.319919   -4.492707    3.922705
     49          6           0       -1.725986   -5.197697    2.901392
     50          6           0       -1.330586   -4.530418    1.717744
     51          6           0       -1.520376   -3.173029    1.582094
     52          6           0       -2.116991   -2.413122    2.624061
     53          6           0       -0.094553    0.064502   -0.236333
     54          6           0        1.261145    0.184904   -0.514889
     55          6           0        4.644835   -0.512908    0.902520
     56          6           0        6.000323   -0.406664    0.614525
     57          6           0        8.739136    0.684451    0.442566
     58          6           0        8.542814    1.684873    1.376957
     59          6           0        9.404590    1.824058    2.487267
     60          6           0       10.471631    0.970947    2.649440
     61          6           0       10.707021   -0.075615    1.718386
     62          6           0       11.789299   -0.982579    1.880074
     63          6           0       11.987620   -2.015706    0.993485
     64          6           0       11.102560   -2.191788   -0.096636
     65          6           0       10.048100   -1.327086   -0.289608
     66          6           0        9.823508   -0.241534    0.599436
     67          6           0        7.730071    0.168079   -3.085514
     68          6           0        8.212900    0.394033   -4.371857
     69          1           0        9.679128    1.411060   -5.591330
     70          1           0       10.742177    2.538211   -3.639797
     71          1           0        9.873772    2.169937   -1.359404
     72          1           0        5.826544    1.890542   -1.883096
     73          1           0        3.435584    1.692907   -1.369607
     74          1           0        2.493241   -0.146700    2.624344
     75          1           0        0.103814   -0.354253    3.130509
     76          1           0       -1.712617    2.298750    0.628991
     77          1           0       -3.415358    3.636456   -0.570722
     78          1           0       -4.297724   -1.138486    0.567870
     79          1           0       -9.089207   -0.552125   -1.017726
     80          1           0      -10.775561   -0.984462    0.729808
     81          1           0      -10.164290   -0.781831    3.136979
     82          1           0       -7.843324   -0.132956    3.758661
     83          1           0       -6.163424    0.305850    2.011847
     84          1           0       -6.110902    0.232205   -3.505118
     85          1           0       -5.777405   -1.674430   -5.031267
     86          1           0       -5.822092   -4.005198   -4.156122
     87          1           0       -6.214230   -4.393635   -1.727681
     88          1           0       -6.574587   -2.485881   -0.207227
     89          1           0       -9.778634    3.513609   -3.433501
     90          1           0       -9.165480    5.894856   -3.914387
     91          1           0       -6.985708    6.803761   -3.186755
     92          1           0       -5.353846    5.391963   -1.966988
     93          1           0       -3.137174    0.741946    3.466410
     94          1           0       -3.905776   -0.456521    5.506634
     95          1           0       -3.507947   -2.892112    5.741881
     96          1           0       -2.637252   -4.999467    4.831115
     97          1           0       -1.565304   -6.268129    2.997363
     98          1           0       -0.875729   -5.094875    0.908294
     99          1           0       -1.217006   -2.670129    0.671085
    100          1           0       -0.817637    0.109956   -1.044375
    101          1           0        1.573190    0.307376   -1.548507
    102          1           0        4.325272   -1.211840    1.670544
    103          1           0        6.720286   -1.002861    1.166534
    104          1           0        7.711206    2.370520    1.245688
    105          1           0        9.225103    2.621505    3.203077
    106          1           0       11.144756    1.080290    3.496190
    107          1           0       12.458058   -0.846212    2.726785
    108          1           0       12.818699   -2.702211    1.130903
    109          1           0       11.255672   -3.017970   -0.785682
    110          1           0        9.374283   -1.470072   -1.126497
    111          1           0        6.894762   -0.506576   -2.927559
    112          1           0        7.741562   -0.111129   -5.211132
 ---------------------------------------------------------------------

 SCF Done:  E(RB3LYP) =  -2688.16483883     A.U. after   16 cycles

 Excitation energies and oscillator strengths:

 Excited state symmetry could not be determined.
 Excited State   1:      Triplet-?Sym    2.4398 eV  508.18 nm  f=0.0000  <S**2>=2.000
     224 -> 229        0.15706
     225 -> 229        0.24407
     226 -> 229        0.17712
     226 -> 231       -0.10864
     227 -> 229        0.23525
     227 -> 230       -0.13900
     228 -> 229        0.47651
 This state for optimization and/or second-order correction.
 Total Energy, E(TD-HF/TD-DFT) =  -2688.07517929
 Copying the excited state density for this state as the 1-particle RhoCI density.

 Excited state symmetry could not be determined.
 Excited State   2:      Triplet-?Sym    2.4767 eV  500.59 nm  f=0.0000  <S**2>=2.000
     224 -> 230       -0.21070
     225 -> 230        0.26319
     226 -> 230       -0.10274
     227 -> 229       -0.16276
     227 -> 230       -0.33648
     228 -> 230        0.39814

 Excited state symmetry could not be determined.
 Excited State   3:      Singlet-?Sym    2.9771 eV  416.47 nm  f=0.1096  <S**2>=0.000
     227 -> 229        0.12414
     228 -> 229        0.67867

 Excited state symmetry could not be determined.
 Excited State   4:      Singlet-?Sym    3.0816 eV  402.34 nm  f=0.2923  <S**2>=0.000
     227 -> 229       -0.12424
     227 -> 230       -0.23487
     228 -> 230        0.64374

 Alpha  occ. eigenvalues --  -19.21604 -14.36160 -14.36050 -10.24448 -10.24136
 Alpha  occ. eigenvalues --  -10.22902 -10.22860 -10.22762 -10.22749 -10.22611
 Alpha  occ. eigenvalues --  -10.22599 -10.22499 -10.20041 -10.20032 -10.19983
 Alpha  occ. eigenvalues --  -10.19978 -10.19936 -10.19880 -10.19866 -10.19832
 Alpha  occ. eigenvalues --  -10.19825 -10.19491 -10.19360 -10.19317 -10.19200
 Alpha  occ. eigenvalues --  -10.19155 -10.19152 -10.19131 -10.19126 -10.19079
 Alpha  occ. eigenvalues --  -10.19058 -10.19033 -10.19010 -10.18990 -10.18977
 Alpha  occ. eigenvalues --  -10.18977 -10.18965 -10.18899 -10.18897 -10.18862
 Alpha  occ. eigenvalues --  -10.18855 -10.18840 -10.18782 -10.18761 -10.18753
 Alpha  occ. eigenvalues --  -10.18744 -10.18725 -10.18692 -10.18670 -10.18656
 Alpha  occ. eigenvalues --  -10.18648 -10.18643 -10.18590 -10.18582 -10.18538
 Alpha  occ. eigenvalues --  -10.18513 -10.18499 -10.18494 -10.18484 -10.18451
 Alpha  occ. eigenvalues --  -10.18448 -10.18323 -10.18281 -10.18272 -10.18271
 Alpha  occ. eigenvalues --  -10.18178 -10.18162 -10.18061  -1.10932  -0.96172
 Alpha  occ. eigenvalues --   -0.96035  -0.88997  -0.86995  -0.86906  -0.85873
 Alpha  occ. eigenvalues --   -0.85694  -0.84995  -0.84667  -0.84378  -0.83344
 Alpha  occ. eigenvalues --   -0.82202  -0.81673  -0.81353  -0.79171  -0.77655
 Alpha  occ. eigenvalues --   -0.76950  -0.76368  -0.75084  -0.74796  -0.74549
 Alpha  occ. eigenvalues --   -0.74461  -0.74218  -0.74092  -0.74047  -0.73997
 Alpha  occ. eigenvalues --   -0.73889  -0.73807  -0.73636  -0.73319  -0.72196
 Alpha  occ. eigenvalues --   -0.71800  -0.70321  -0.68825  -0.68100  -0.63939
 Alpha  occ. eigenvalues --   -0.63521  -0.62777  -0.62366  -0.62030  -0.61707
 Alpha  occ. eigenvalues --   -0.61500  -0.61272  -0.60898  -0.60658  -0.60293
 Alpha  occ. eigenvalues --   -0.59976  -0.59567  -0.59346  -0.59101  -0.58518
 Alpha  occ. eigenvalues --   -0.57925  -0.57552  -0.56479  -0.56179  -0.55430
 Alpha  occ. eigenvalues --   -0.53220  -0.52932  -0.52421  -0.52262  -0.51849
 Alpha  occ. eigenvalues --   -0.51699  -0.51307  -0.51169  -0.50870  -0.49937
 Alpha  occ. eigenvalues --   -0.49513  -0.49318  -0.49092  -0.48198  -0.47512
 Alpha  occ. eigenvalues --   -0.47330  -0.46978  -0.46468  -0.45973  -0.45582
 Alpha  occ. eigenvalues --   -0.45370  -0.45180  -0.44734  -0.44564  -0.44338
 Alpha  occ. eigenvalues --   -0.44255  -0.44060  -0.43980  -0.43803  -0.43628
 Alpha  occ. eigenvalues --   -0.43365  -0.43043  -0.42942  -0.42744  -0.42259
 Alpha  occ. eigenvalues --   -0.42159  -0.41917  -0.41872  -0.41729  -0.41617
 Alpha  occ. eigenvalues --   -0.41605  -0.41524  -0.41472  -0.41124  -0.40916
 Alpha  occ. eigenvalues --   -0.40239  -0.40092  -0.39821  -0.39623  -0.39087
 Alpha  occ. eigenvalues --   -0.38657  -0.38516  -0.37789  -0.37623  -0.37385
 Alpha  occ. eigenvalues --   -0.37066  -0.36851  -0.36608  -0.36423  -0.36153
 Alpha  occ. eigenvalues --   -0.36052  -0.35733  -0.35558  -0.35042  -0.34990
 Alpha  occ. eigenvalues --   -0.34728  -0.34503  -0.34387  -0.34318  -0.34211
 Alpha  occ. eigenvalues --   -0.33978  -0.33815  -0.33717  -0.33493  -0.33242
 Alpha  occ. eigenvalues --   -0.33035  -0.32990  -0.32770  -0.32608  -0.32589
 Alpha  occ. eigenvalues --   -0.31357  -0.30261  -0.29287  -0.28433  -0.27842
 Alpha  occ. eigenvalues --   -0.26114  -0.25832  -0.25028  -0.24996  -0.24750
 Alpha  occ. eigenvalues --   -0.24717  -0.24515  -0.24353  -0.24325  -0.24260
 Alpha  occ. eigenvalues --   -0.24050  -0.23631  -0.23267  -0.22066  -0.21760
 Alpha  occ. eigenvalues --   -0.20885  -0.18535  -0.17087
 Alpha virt. eigenvalues --   -0.04257  -0.04059  -0.03069  -0.02094  -0.01578
 Alpha virt. eigenvalues --   -0.01282  -0.00756  -0.00568  -0.00485   0.00068
 Alpha virt. eigenvalues --    0.00273   0.00424   0.00873   0.01019   0.01124

 Mulliken charges:
               1
     1  C   -0.130077
     2  C   -0.138133
     3  C   -0.176113
     4  C    0.296083
     5  N   -0.654604
     6  C    0.289604
     7  C   -0.179253
     8  C   -0.192460
     9  C    0.097903
    10  C    0.097147
    11  C   -0.189518
    12  C   -0.185758
    13  C    0.306962
    14  N   -0.658267
    15  C    0.289442
    16  C   -0.189186
    17  C   -0.205703
    18  C    0.109357
    19  C    0.078383
    20  C   -0.237103
    21  C   -0.238204
    22  C    0.142794
    23  C   -0.155228
    24  C   -0.137337
    25  C   -0.124936
    26  C   -0.133851
    27  C   -0.186039
    28  C    0.175398
    29  C   -0.180078
    30  C   -0.134233
    31  C   -0.125585
    32  C   -0.135995
    33  C   -0.180476
    34  C    0.284659
    35  O   -0.540282
    36  C    0.307878
    37  C   -0.198832
    38  C   -0.140670
    39  C   -0.147476
    40  C   -0.188259
    41  C    0.077268
    42  C    0.006123
    43  C    0.179386
    44  C   -0.165989
    45  C   -0.148155
    46  C   -0.181859
    47  C    0.121218
    48  C   -0.196422
    49  C   -0.130506
    50  C   -0.138321
    51  C   -0.182462
    52  C    0.121996
    53  C   -0.175532
    54  C   -0.190062
    55  C   -0.190204
    56  C   -0.169822
    57  C    0.174359
    58  C   -0.160136
    59  C   -0.147579
    60  C   -0.182655
    61  C    0.120964
    62  C   -0.196535
    63  C   -0.130499
    64  C   -0.138575
    65  C   -0.182126
    66  C    0.121159
    67  C   -0.167291
    68  C   -0.139674
    69  H    0.124960
    70  H    0.129549
    71  H    0.142751
    72  H    0.144839
    73  H    0.131008
    74  H    0.131563
    75  H    0.142866
    76  H    0.145059
    77  H    0.133753
    78  H    0.150599
    79  H    0.145038
    80  H    0.130786
    81  H    0.128240
    82  H    0.128939
    83  H    0.146061
    84  H    0.140636
    85  H    0.130600
    86  H    0.128538
    87  H    0.131557
    88  H    0.143811
    89  H    0.146556
    90  H    0.131347
    91  H    0.129019
    92  H    0.135383
    93  H    0.142332
    94  H    0.132729
    95  H    0.129502
    96  H    0.130198
    97  H    0.130779
    98  H    0.132848
    99  H    0.153708
   100  H    0.144850
   101  H    0.131244
   102  H    0.132880
   103  H    0.142471
   104  H    0.143768
   105  H    0.133502
   106  H    0.129174
   107  H    0.129839
   108  H    0.130303
   109  H    0.131671
   110  H    0.151720
   111  H    0.143859
   112  H    0.129141
 Sum of Mulliken charges =  -0.00000

 Dipole moment (field-independent basis, Debye):
    X=              0.1206    Y=             -0.5222    Z=              0.8704  Tot=              1.0222
 Quadrupole moment (field-independent basis, Debye-Ang):
   XX=           -363.9792   YY=           -363.3936   ZZ=           -359.5826
   XY=              1.6788   XZ=              2.7851   YZ=             -4.2435

 Normal termination of Gaussian 16 at Sat Nov  5 11:25:38 2022.
