 Gaussian 16, Revision B.01,
 Gaussian 16:  ES64L-G16RevB.01 20-Dec-2017

 -----------------------------
 #p b3lyp/6-31g(d) opt SCF=XQC
 -----------------------------

 ------------------------------
 Gaussian input prepared by ASE
 ------------------------------
 Symbolic Z-matrix:
 Charge =  0 Multiplicity = 1

 SCF Done:  E(RB3LYP) =  -2688.14501335     A.U. after   15 cycles
 SCF Done:  E(RB3LYP) =  -2688.16304115     A.U. after   13 cycles
 SCF Done:  E(RB3LYP) =  -2688.16446807     A.U. after   12 cycles
 SCF Done:  E(RB3LYP) =  -2688.16473078     A.U. after   12 cycles
 SCF Done:  E(RB3LYP) =  -2688.16480468     A.U. after   10 cycles
 SCF Done:  E(RB3LYP) =  -2688.16483058     A.U. after   10 cycles
 SCF Done:  E(RB3LYP) =  -2688.16483481     A.U. after    9 cycles
 SCF Done:  E(RB3LYP) =  -2688.16483603     A.U. after    9 cycles
 SCF Done:  E(RB3LYP) =  -2688.16483648     A.U. after    8 cycles
 SCF Done:  E(RB3LYP) =  -2688.16483669     A.U. after    7 cycles
 SCF Done:  E(RB3LYP) =  -2688.16483682     A.U. after    7 cycles
 SCF Done:  E(RB3LYP) =  -2688.16483686     A.U. after    6 cycles
 Optimization completed.
    -- Stationary point found.

                         Standard orientation:
 ---------------------------------------------------------------------
 Center     Atomic      Atomic             Coordinates (Angstroms)
 Number     Number       Type             X           Y           Z
 ---------------------------------------------------------------------
      1          6           0       -9.319217    4.478694    2.128194
      2          6           0       -9.917374    4.107932    0.923592
      3          6           0       -9.460591    2.999053    0.212015
      4          6           0       -8.398054    2.226401    0.707348
      5          7           0       -7.951110    1.073913    0.009717
      6          6           0       -6.568890    0.757999   -0.079000
      7          6           0       -5.584443    1.756931   -0.147244
      8          6           0       -4.238296    1.417847   -0.238671
      9          6           0       -3.814026    0.078262   -0.281427
     10          6           0       -2.380242   -0.275073   -0.385248
     11          6           0       -1.951187   -1.399851   -1.109216
     12          6           0       -0.604647   -1.733505   -1.216157
     13          6           0        0.377872   -0.953560   -0.585296
     14          7           0        1.748280   -1.303434   -0.656424
     15          6           0        2.755823   -0.302938   -0.768382
     16          6           0        2.562438    0.846334   -1.548322
     17          6           0        3.557515    1.822874   -1.647300
     18          6           0        4.769380    1.636959   -0.987313
     19          6           0        4.978736    0.462461   -0.216409
     20          6           0        3.978886   -0.483878   -0.088243
     21          6           0        6.380979    0.462539    0.456002
     22          6           0        7.347924   -0.615654   -0.081613
     23          6           0        8.657030   -0.650033    0.426744
     24          6           0        9.583796   -1.574625   -0.048275
     25          6           0        9.220793   -2.486515   -1.042876
     26          6           0        7.925478   -2.458913   -1.554958
     27          6           0        6.995424   -1.528915   -1.080549
     28          6           0        6.225048    0.385603    1.987915
     29          6           0        6.030062    1.544254    2.750852
     30          6           0        5.824992    1.465298    4.128667
     31          6           0        5.806201    0.225084    4.767831
     32          6           0        5.996324   -0.935147    4.016342
     33          6           0        6.206866   -0.855418    2.639252
     34          6           0        6.839866    1.812122   -0.046109
     35          8           0        8.010674    2.478320    0.147967
     36          6           0        7.882659    3.633333   -0.605246
     37          6           0        8.842947    4.627927   -0.708280
     38          6           0        8.527306    5.720945   -1.517203
     39          6           0        7.293715    5.798399   -2.187022
     40          6           0        6.339534    4.789974   -2.070578
     41          6           0        6.629320    3.679626   -1.264939
     42          6           0        5.972200    2.457083   -0.869516
     43          6           0        2.124246   -2.661678   -0.903295
     44          6           0        2.762483   -2.992587   -2.085080
     45          6           0        3.156718   -4.322353   -2.352786
     46          6           0        2.895060   -5.320697   -1.443127
     47          6           0        2.248233   -5.025333   -0.213412
     48          6           0        1.989040   -6.037588    0.749970
     49          6           0        1.395183   -5.735742    1.953744
     50          6           0        1.039178   -4.398855    2.251427
     51          6           0        1.267411   -3.393288    1.338370
     52          6           0        1.865034   -3.673655    0.080061
     53          6           0       -0.038656    0.171047    0.150530
     54          6           0       -1.385402    0.500575    0.238224
     55          6           0       -4.811579   -0.911728   -0.222282
     56          6           0       -6.158321   -0.584718   -0.117760
     57          6           0       -8.863595    0.360634   -0.831203
     58          6           0       -8.657714    0.333891   -2.198452
     59          6           0       -9.535466   -0.368083   -3.053790
     60          6           0      -10.627572   -1.027398   -2.538733
     61          6           0      -10.873787   -1.032871   -1.139837
     62          6           0      -11.982546   -1.727494   -0.584674
     63          6           0      -12.192160   -1.758042    0.774683
     64          6           0      -11.292482   -1.096515    1.643971
     65          6           0      -10.212084   -0.406215    1.140918
     66          6           0       -9.974863   -0.343121   -0.258728
     67          6           0       -7.804839    2.595557    1.928572
     68          6           0       -8.258099    3.715039    2.621519
     69          1           0       -9.674432    5.346696    2.676101
     70          1           0      -10.742336    4.691060    0.522327
     71          1           0       -9.925497    2.727758   -0.729938
     72          1           0       -5.878301    2.801508   -0.140761
     73          1           0       -3.503138    2.213758   -0.321240
     74          1           0       -2.682568   -2.008506   -1.633854
     75          1           0       -0.309069   -2.597441   -1.802079
     76          1           0        1.622282    0.979087   -2.073687
     77          1           0        3.381445    2.712210   -2.246097
     78          1           0        4.115786   -1.363467    0.533225
     79          1           0        8.949112    0.054564    1.199855
     80          1           0       10.591429   -1.582660    0.359099
     81          1           0        9.942236   -3.210402   -1.412394
     82          1           0        7.628454   -3.162743   -2.328118
     83          1           0        5.992746   -1.521912   -1.492591
     84          1           0        6.038278    2.516421    2.267047
     85          1           0        5.681927    2.377519    4.702068
     86          1           0        5.648773    0.163614    5.841314
     87          1           0        5.986371   -1.907973    4.500966
     88          1           0        6.369700   -1.764942    2.069143
     89          1           0        9.790043    4.551018   -0.184417
     90          1           0        9.249222    6.524579   -1.630142
     91          1           0        7.081553    6.663872   -2.808603
     92          1           0        5.390900    4.863950   -2.594238
     93          1           0        2.953294   -2.211873   -2.815395
     94          1           0        3.652664   -4.551370   -3.292070
     95          1           0        3.186032   -6.347849   -1.648709
     96          1           0        2.276274   -7.060444    0.517647
     97          1           0        1.204389   -6.520235    2.681084
     98          1           0        0.584220   -4.163955    3.209838
     99          1           0        0.994077   -2.371534    1.575404
    100          1           0        0.699907    0.777408    0.665020
    101          1           0       -1.675298    1.358080    0.839376
    102          1           0       -4.524679   -1.959659   -0.217932
    103          1           0       -6.903764   -1.371188   -0.052254
    104          1           0       -7.805931    0.865284   -2.611975
    105          1           0       -9.347846   -0.368639   -4.123987
    106          1           0      -11.312788   -1.560096   -3.193523
    107          1           0      -12.662678   -2.242163   -1.259425
    108          1           0      -13.043548   -2.294583    1.184715
    109          1           0      -11.454990   -1.135892    2.717677
    110          1           0       -9.527250    0.096579    1.814015
    111          1           0       -6.990759    1.999634    2.328571
    112          1           0       -7.785224    3.982853    3.563004
 ---------------------------------------------------------------------

 The electronic state is 1-A.
 Alpha  occ. eigenvalues --  -19.21604 -14.36160 -14.36050 -10.24448 -10.24136
 Alpha  occ. eigenvalues --  -10.22902 -10.22860 -10.22761 -10.22749 -10.22611
 Alpha  occ. eigenvalues --  -10.22599 -10.22499 -10.20041 -10.20032 -10.19983
 Alpha  occ. eigenvalues --  -10.19978 -10.19936 -10.19880 -10.19866 -10.19832
 Alpha  occ. eigenvalues --  -10.19825 -10.19491 -10.19360 -10.19317 -10.19201
 Alpha  occ. eigenvalues --  -10.19155 -10.19152 -10.19131 -10.19126 -10.19079
 Alpha  occ. eigenvalues --  -10.19058 -10.19033 -10.19010 -10.18991 -10.18977
 Alpha  occ. eigenvalues --  -10.18977 -10.18965 -10.18900 -10.18897 -10.18862
 Alpha  occ. eigenvalues --  -10.18855 -10.18840 -10.18783 -10.18761 -10.18753
 Alpha  occ. eigenvalues --  -10.18744 -10.18725 -10.18692 -10.18670 -10.18656
 Alpha  occ. eigenvalues --  -10.18648 -10.18643 -10.18590 -10.18582 -10.18538
 Alpha  occ. eigenvalues --  -10.18513 -10.18499 -10.18494 -10.18484 -10.18451
 Alpha  occ. eigenvalues --  -10.18448 -10.18323 -10.18281 -10.18272 -10.18271
 Alpha  occ. eigenvalues --  -10.18178 -10.18162 -10.18061  -1.10932  -0.96172
 Alpha  occ. eigenvalues --   -0.96035  -0.88997  -0.86995  -0.86906  -0.85873
 Alpha  occ. eigenvalues --   -0.85694  -0.84995  -0.84667  -0.84378  -0.83345
 Alpha  occ. eigenvalues --   -0.82202  -0.81673  -0.81353  -0.79171  -0.77655
 Alpha  occ. eigenvalues --   -0.76950  -0.76368  -0.75084  -0.74795  -0.74549
 Alpha  occ. eigenvalues --   -0.74461  -0.74218  -0.74092  -0.74047  -0.73997
 Alpha  occ. eigenvalues --   -0.73889  -0.73807  -0.73636  -0.73319  -0.72196
 Alpha  occ. eigenvalues --   -0.71800  -0.70321  -0.68825  -0.68100  -0.63939
 Alpha  occ. eigenvalues --   -0.63521  -0.62777  -0.62366  -0.62030  -0.61707
 Alpha  occ. eigenvalues --   -0.61500  -0.61272  -0.60898  -0.60658  -0.60293
 Alpha  occ. eigenvalues --   -0.59976  -0.59567  -0.59346  -0.59101  -0.58518
 Alpha  occ. eigenvalues --   -0.57925  -0.57552  -0.56479  -0.56179  -0.55430
 Alpha  occ. eigenvalues --   -0.53220  -0.52932  -0.52421  -0.52262  -0.51849
 Alpha  occ. eigenvalues --   -0.51698  -0.51307  -0.51169  -0.50870  -0.49937
 Alpha  occ. eigenvalues --   -0.49513  -0.49318  -0.49092  -0.48198  -0.47512
 Alpha  occ. eigenvalues --   -0.47330  -0.46978  -0.46468  -0.45973  -0.45582
 Alpha  occ. eigenvalues --   -0.45370  -0.45180  -0.44734  -0.44564  -0.44338
 Alpha  occ. eigenvalues --   -0.44255  -0.44060  -0.43980  -0.43803  -0.43628
 Alpha  occ. eigenvalues --   -0.43365  -0.43043  -0.42942  -0.42744  -0.42259
 Alpha  occ. eigenvalues --   -0.42159  -0.41917  -0.41872  -0.41729  -0.41617
 Alpha  occ. eigenvalues --   -0.41605  -0.41524  -0.41472  -0.41124  -0.40916
 Alpha  occ. eigenvalues --   -0.40239  -0.40092  -0.39821  -0.39623  -0.39087
 Alpha  occ. eigenvalues --   -0.38657  -0.38516  -0.37789  -0.37623  -0.37385
 Alpha  occ. eigenvalues --   -0.37066  -0.36851  -0.36608  -0.36423  -0.36153
 Alpha  occ. eigenvalues --   -0.36052  -0.35733  -0.35558  -0.35042  -0.34990
 Alpha  occ. eigenvalues --   -0.34728  -0.34503  -0.34387  -0.34318  -0.34211
 Alpha  occ. eigenvalues --   -0.33978  -0.33815  -0.33717  -0.33493  -0.33242
 Alpha  occ. eigenvalues --   -0.33035  -0.32990  -0.32770  -0.32608  -0.32589
 Alpha  occ. eigenvalues --   -0.31357  -0.30261  -0.29287  -0.28433  -0.27842
 Alpha  occ. eigenvalues --   -0.26114  -0.25832  -0.25028  -0.24996  -0.24750
 Alpha  occ. eigenvalues --   -0.24717  -0.24515  -0.24353  -0.24325  -0.24260
 Alpha  occ. eigenvalues --   -0.24050  -0.23631  -0.23267  -0.22066  -0.21760
 Alpha  occ. eigenvalues --   -0.20885  -0.18535  -0.17087
 Alpha virt. eigenvalues --   -0.04257  -0.04059  -0.03069  -0.02094  -0.01578
 Alpha virt. eigenvalues --   -0.01282  -0.00756  -0.00568  -0.00485   0.00068
 Alpha virt. eigenvalues --    0.00273   0.00424   0.00873   0.01019   0.01124

 Mulliken charges:
               1
     1  C   -0.130066
     2  C   -0.138143
     3  C   -0.176111
     4  C    0.296071
     5  N   -0.654581
     6  C    0.289602
     7  C   -0.179253
     8  C   -0.192460
     9  C    0.097892
    10  C    0.097128
    11  C   -0.189508
    12  C   -0.185745
    13  C    0.306932
    14  N   -0.658277
    15  C    0.289461
    16  C   -0.189183
    17  C   -0.205702
    18  C    0.109346
    19  C    0.078400
    20  C   -0.237110
    21  C   -0.238215
    22  C    0.142808
    23  C   -0.155224
    24  C   -0.137338
    25  C   -0.124937
    26  C   -0.133850
    27  C   -0.186042
    28  C    0.175410
    29  C   -0.180084
    30  C   -0.134233
    31  C   -0.125582
    32  C   -0.135988
    33  C   -0.180485
    34  C    0.284620
    35  O   -0.540271
    36  C    0.307866
    37  C   -0.198831
    38  C   -0.140669
    39  C   -0.147481
    40  C   -0.188253
    41  C    0.077275
    42  C    0.006136
    43  C    0.179384
    44  C   -0.165990
    45  C   -0.148163
    46  C   -0.181864
    47  C    0.121225
    48  C   -0.196428
    49  C   -0.130506
    50  C   -0.138322
    51  C   -0.182465
    52  C    0.122015
    53  C   -0.175528
    54  C   -0.190050
    55  C   -0.190197
    56  C   -0.169820
    57  C    0.174310
    58  C   -0.160122
    59  C   -0.147609
    60  C   -0.182627
    61  C    0.120943
    62  C   -0.196535
    63  C   -0.130506
    64  C   -0.138581
    65  C   -0.182117
    66  C    0.121196
    67  C   -0.167267
    68  C   -0.139691
    69  H    0.124960
    70  H    0.129550
    71  H    0.142753
    72  H    0.144840
    73  H    0.131008
    74  H    0.131564
    75  H    0.142866
    76  H    0.145057
    77  H    0.133755
    78  H    0.150600
    79  H    0.145036
    80  H    0.130785
    81  H    0.128240
    82  H    0.128935
    83  H    0.146063
    84  H    0.140638
    85  H    0.130599
    86  H    0.128538
    87  H    0.131555
    88  H    0.143811
    89  H    0.146556
    90  H    0.131348
    91  H    0.129019
    92  H    0.135383
    93  H    0.142334
    94  H    0.132731
    95  H    0.129502
    96  H    0.130198
    97  H    0.130780
    98  H    0.132849
    99  H    0.153706
   100  H    0.144853
   101  H    0.131244
   102  H    0.132880
   103  H    0.142467
   104  H    0.143774
   105  H    0.133507
   106  H    0.129173
   107  H    0.129839
   108  H    0.130305
   109  H    0.131673
   110  H    0.151714
   111  H    0.143856
   112  H    0.129143
 Sum of Mulliken charges =  -0.00000

 Dipole moment (field-independent basis, Debye):
    X=             -0.1503    Y=             -0.9914    Z=             -0.1987  Tot=              1.0222
 Quadrupole moment (field-independent basis, Debye-Ang):
   XX=           -363.9191   YY=           -357.0554   ZZ=           -365.8656
   XY=              1.2844   XZ=              3.1958   YZ=              1.3603

 Normal termination of Gaussian 16 at Sat Nov  5 01:24:21 2022.
