 Gaussian 16, Revision B.01,
 Gaussian 16:  ES64L-G16RevB.01 20-Dec-2017

 -------------------------------------------------------------------
 #p b3lyp/6-31g(d) 6D 10F nosymm GFInput td=(50-50,nstate=2) SCF=XQC
 -------------------------------------------------------------------

 ------------------------------
 Gaussian input prepared by ASE
 ------------------------------
 Symbolic Z-matrix:
 Charge =  0 Multiplicity = 1

                          Input orientation:
 ---------------------------------------------------------------------
 Center     Atomic      Atomic             Coordinates (Angstroms)
 Number     Number       Type             X           Y           Z
 ---------------------------------------------------------------------
      1          6           0       -7.684842    4.020078    0.865400
      2          6           0       -7.116894    3.583684   -0.498454
      3          6           0       -6.779698    4.857532   -1.309596
      4          6           0       -8.210369    2.778422   -1.240298
      5          6           0       -5.851981    2.717628   -0.356260
      6          6           0       -5.200845    2.233185   -1.504881
      7          6           0       -4.055041    1.446647   -1.420720
      8          6           0       -3.521510    1.117741   -0.171768
      9          7           0       -2.337785    0.302355   -0.078162
     10          6           0       -2.504940   -1.095934   -0.006702
     11          6           0       -3.795989   -1.657754   -0.024600
     12          6           0       -3.967884   -3.035131    0.045311
     13          6           0       -2.883431   -3.924501    0.136126
     14          6           0       -3.049464   -5.452810    0.214697
     15          6           0       -2.329100   -6.113212   -0.984764
     16          6           0       -2.426564   -5.973172    1.531885
     17          6           0       -4.528336   -5.883313    0.181333
     18          6           0       -1.612557   -3.347157    0.152646
     19          6           0       -1.383113   -1.959570    0.084127
     20          5           0        0.015688   -1.331628    0.102117
     21          6           0        1.377023   -1.980249    0.189680
     22          8           0        1.680221   -3.337450    0.276526
     23          6           0        3.033969   -3.440104    0.331902
     24          6           0        3.738463   -4.636565    0.424136
     25          6           0        5.126907   -4.550751    0.469783
     26          6           0        5.778004   -3.304118    0.423941
     27          6           0        5.062066   -2.115080    0.331863
     28          6           0        3.656754   -2.173188    0.284208
     29          6           0        2.547893   -1.241795    0.191787
     30          7           0        2.553102    0.140881    0.115044
     31          6           0        3.816130    0.830970    0.121331
     32          6           0        4.477261    1.098216   -1.079958
     33          6           0        5.709079    1.747018   -1.065402
     34          6           0        6.317692    2.152958    0.136191
     35          6           0        7.681223    2.866999    0.102580
     36          6           0        8.187515    3.230170    1.511381
     37          6           0        8.729156    1.943295   -0.563016
     38          6           0        7.555647    4.173834   -0.716653
     39          6           0        5.629937    1.880477    1.327479
     40          6           0        4.393618    1.230107    1.324822
     41          6           0        1.356804    0.875927    0.028405
     42          6           0        1.404894    2.278699   -0.048881
     43          6           0        0.212418    2.985502   -0.134082
     44          6           0       -1.029558    2.354964   -0.145338
     45          6           0       -1.091737    0.953971   -0.068295
     46          6           0        0.107623    0.185413    0.020232
     47          6           0       -4.149563    1.586361    0.980683
     48          6           0       -5.298689    2.375048    0.885452
     49          1           0       -6.966886    4.622951    1.433037
     50          1           0       -8.580655    4.632173    0.712212
     51          1           0       -7.974190    3.161085    1.481422
     52          1           0       -6.409445    4.617771   -2.311819
     53          1           0       -6.011724    5.453222   -0.803099
     54          1           0       -7.673465    5.482645   -1.425367
     55          1           0       -9.117348    3.384387   -1.355141
     56          1           0       -8.475383    1.872115   -0.683980
     57          1           0       -7.885286    2.473348   -2.240429
     58          1           0       -5.592764    2.471694   -2.489575
     59          1           0       -3.567349    1.082227   -2.320175
     60          1           0       -4.672544   -1.025498   -0.092884
     61          1           0       -4.984487   -3.414146    0.027567
     62          1           0       -2.758556   -5.773156   -1.934243
     63          1           0       -2.427219   -7.205290   -0.938326
     64          1           0       -1.260957   -5.873162   -0.997545
     65          1           0       -2.926411   -5.531779    2.401886
     66          1           0       -2.525563   -7.064078    1.599352
     67          1           0       -1.361551   -5.728644    1.600231
     68          1           0       -5.023747   -5.570009   -0.745006
     69          1           0       -4.597631   -6.975712    0.239229
     70          1           0       -5.092332   -5.471799    1.026470
     71          1           0       -0.736514   -3.985455    0.221685
     72          1           0        3.215061   -5.586489    0.457916
     73          1           0        5.716153   -5.460735    0.541795
     74          1           0        6.863248   -3.269151    0.461167
     75          1           0        5.585830   -1.167690    0.297984
     76          1           0        4.024560    0.790616   -2.017924
     77          1           0        6.203658    1.938023   -2.013363
     78          1           0        8.325489    2.341629    2.137926
     79          1           0        7.503184    3.912172    2.028711
     80          1           0        9.157889    3.733110    1.434942
     81          1           0        8.845792    1.011265    0.001734
     82          1           0        9.705263    2.441769   -0.600983
     83          1           0        8.450227    1.680133   -1.588647
     84          1           0        8.521130    4.692609   -0.754530
     85          1           0        6.823197    4.851902   -0.264097
     86          1           0        7.240835    3.981529   -1.747638
     87          1           0        6.053028    2.172859    2.281734
     88          1           0        3.877209    1.025786    2.258074
     89          1           0        2.349686    2.806695   -0.042535
     90          1           0        0.248084    4.070575   -0.194089
     91          1           0       -1.929681    2.951152   -0.212859
     92          1           0       -3.736781    1.331742    1.952533
     93          1           0       -5.760247    2.721014    1.803412
 ---------------------------------------------------------------------

 SCF Done:  E(RB3LYP) =  -1913.46376705     A.U. after   16 cycles

 Excitation energies and oscillator strengths:

 Excited state symmetry could not be determined.
 Excited State   1:      Triplet-?Sym    2.4443 eV  507.24 nm  f=0.0000  <S**2>=2.000
     167 ->169        -0.11562
     168 ->169         0.67662
 This state for optimization and/or second-order correction.
 Total Energy, E(TD-HF/TD-DFT) =  -1913.37394189
 Copying the excited state density for this state as the 1-particle RhoCI density.

 Excited state symmetry could not be determined.
 Excited State   2:      Singlet-?Sym    3.0377 eV  408.15 nm  f=0.2845  <S**2>=0.000
     168 ->169         0.69808

 Excited state symmetry could not be determined.
 Excited State   3:      Triplet-?Sym    3.1163 eV  397.85 nm  f=0.0000  <S**2>=2.000
     166 ->169        -0.18267
     167 ->169         0.45218
     168 ->169         0.12047
     168 ->170        -0.12538
     168 ->171         0.12244
     168 ->174        -0.37916

 Excited state symmetry could not be determined.
 Excited State   4:      Singlet-?Sym    3.5191 eV  352.32 nm  f=0.0097  <S**2>=0.000
     168 ->170         0.67531
     168 ->171         0.16879

 Alpha  occ. eigenvalues --  -19.19177 -14.38209 -14.36866 -10.23673 -10.23179
 Alpha  occ. eigenvalues --  -10.22690 -10.22491 -10.22473 -10.22387 -10.21799
 Alpha  occ. eigenvalues --  -10.21240 -10.20817 -10.20590 -10.19999 -10.19956
 Alpha  occ. eigenvalues --  -10.19953 -10.19817 -10.19809 -10.19741 -10.19322
 Alpha  occ. eigenvalues --  -10.19319 -10.19274 -10.19201 -10.19136 -10.18999
 Alpha  occ. eigenvalues --  -10.18864 -10.18849 -10.18706 -10.18227 -10.18139
 Alpha  occ. eigenvalues --  -10.18126 -10.18124 -10.18106 -10.17771 -10.17770
 Alpha  occ. eigenvalues --  -10.17756 -10.17372 -10.17016 -10.16937 -10.16820
 Alpha  occ. eigenvalues --  -10.16645 -10.16576 -10.16356 -10.16088 -10.16088
 Alpha  occ. eigenvalues --  -10.15666 -10.14847  -6.68840  -1.08592  -0.97442
 Alpha  occ. eigenvalues --   -0.96237  -0.86767  -0.86131  -0.84745  -0.83932
 Alpha  occ. eigenvalues --   -0.82986  -0.82010  -0.81362  -0.79411  -0.78425
 Alpha  occ. eigenvalues --   -0.75603  -0.75333  -0.74959  -0.74688  -0.73943
 Alpha  occ. eigenvalues --   -0.73469  -0.72193  -0.71901  -0.70862  -0.69228
 Alpha  occ. eigenvalues --   -0.69109  -0.69052  -0.68836  -0.68680  -0.67258
 Alpha  occ. eigenvalues --   -0.66997  -0.63638  -0.62802  -0.61872  -0.61603
 Alpha  occ. eigenvalues --   -0.61154  -0.60967  -0.60616  -0.59256  -0.58458
 Alpha  occ. eigenvalues --   -0.56840  -0.55962  -0.55577  -0.55098  -0.53741
 Alpha  occ. eigenvalues --   -0.53261  -0.52651  -0.51720  -0.49748  -0.48783
 Alpha  occ. eigenvalues --   -0.48038  -0.47880  -0.47649  -0.47171  -0.46523
 Alpha  occ. eigenvalues --   -0.45956  -0.45645  -0.45479  -0.45046  -0.44550
 Alpha  occ. eigenvalues --   -0.44336  -0.44262  -0.44113  -0.43800  -0.43576
 Alpha  occ. eigenvalues --   -0.43302  -0.43267  -0.42837  -0.42654  -0.42500
 Alpha  occ. eigenvalues --   -0.42186  -0.41716  -0.41478  -0.40492  -0.40295
 Alpha  occ. eigenvalues --   -0.40137  -0.39944  -0.39674  -0.39632  -0.38668
 Alpha  occ. eigenvalues --   -0.38547  -0.38110  -0.38052  -0.37965  -0.37624
 Alpha  occ. eigenvalues --   -0.37488  -0.37255  -0.36912  -0.36831  -0.36382
 Alpha  occ. eigenvalues --   -0.36241  -0.36079  -0.35963  -0.35518  -0.35367
 Alpha  occ. eigenvalues --   -0.35235  -0.34880  -0.34169  -0.33748  -0.33589
 Alpha  occ. eigenvalues --   -0.33259  -0.33199  -0.33135  -0.32730  -0.32428
 Alpha  occ. eigenvalues --   -0.32073  -0.31921  -0.31871  -0.30879  -0.29732
 Alpha  occ. eigenvalues --   -0.29497  -0.28238  -0.26885  -0.25903  -0.25615
 Alpha  occ. eigenvalues --   -0.25198  -0.25129  -0.24374  -0.23192  -0.22752
 Alpha  occ. eigenvalues --   -0.21822  -0.20415  -0.16708
 Alpha virt. eigenvalues --   -0.03811  -0.01601  -0.01294  -0.00928  -0.00620
 Alpha virt. eigenvalues --   -0.00227   0.00995   0.02215   0.02652   0.03894
 Alpha virt. eigenvalues --    0.07279   0.07392   0.07744   0.09532   0.10078

 Mulliken charges:
               1
     1  C   -0.457952
     2  C    0.013951
     3  C   -0.439325
     4  C   -0.439305
     5  C    0.191257
     6  C   -0.203532
     7  C   -0.120815
     8  C    0.189413
     9  N   -0.683016
    10  C    0.255757
    11  C   -0.177757
    12  C   -0.212378
    13  C    0.201151
    14  C    0.021652
    15  C   -0.438727
    16  C   -0.438706
    17  C   -0.455790
    18  C   -0.309534
    19  C    0.108429
    20  B   -0.038183
    21  C    0.281394
    22  O   -0.547352
    23  C    0.307018
    24  C   -0.182929
    25  C   -0.139233
    26  C   -0.146463
    27  C   -0.200755
    28  C    0.129617
    29  C    0.185641
    30  N   -0.682000
    31  C    0.181895
    32  C   -0.121593
    33  C   -0.203940
    34  C    0.191161
    35  C    0.013028
    36  C   -0.458617
    37  C   -0.440119
    38  C   -0.439784
    39  C   -0.212305
    40  C   -0.121184
    41  C    0.267811
    42  C   -0.188828
    43  C   -0.145144
    44  C   -0.185167
    45  C    0.268689
    46  C   -0.009513
    47  C   -0.120556
    48  C   -0.211695
    49  H    0.146623
    50  H    0.143314
    51  H    0.146972
    52  H    0.143958
    53  H    0.148078
    54  H    0.140627
    55  H    0.140620
    56  H    0.148540
    57  H    0.144063
    58  H    0.131791
    59  H    0.145925
    60  H    0.138535
    61  H    0.121228
    62  H    0.142906
    63  H    0.131713
    64  H    0.148891
    65  H    0.142925
    66  H    0.131711
    67  H    0.148890
    68  H    0.142030
    69  H    0.137577
    70  H    0.142022
    71  H    0.146717
    72  H    0.142341
    73  H    0.129888
    74  H    0.124628
    75  H    0.151600
    76  H    0.150043
    77  H    0.135267
    78  H    0.147511
    79  H    0.147483
    80  H    0.144882
    81  H    0.148256
    82  H    0.142509
    83  H    0.144913
    84  H    0.142329
    85  H    0.149162
    86  H    0.144598
    87  H    0.136841
    88  H    0.149872
    89  H    0.135862
    90  H    0.123743
    91  H    0.137919
    92  H    0.145715
    93  H    0.133315
 Sum of Mulliken charges =  -0.00000

 Dipole moment (field-independent basis, Debye):
    X=              1.2411    Y=              3.4352    Z=             -0.2027  Tot=              3.6581
 Quadrupole moment (field-independent basis, Debye-Ang):
   XX=           -232.2389   YY=           -270.8952   ZZ=           -279.2016
   XY=             -1.2907   XZ=              1.8369   YZ=             -0.5669

 Normal termination of Gaussian 16 at Sat Nov  5 10:56:19 2022.
