 Gaussian 16, Revision B.01,
 Gaussian 16:  ES64L-G16RevB.01 20-Dec-2017

 -----------------------------
 #p b3lyp/6-31g(d) opt SCF=XQC
 -----------------------------

 ------------------------------
 Gaussian input prepared by ASE
 ------------------------------
 Symbolic Z-matrix:
 Charge =  0 Multiplicity = 1

 SCF Done:  E(RB3LYP) =  -1913.45301582     A.U. after   16 cycles
 SCF Done:  E(RB3LYP) =  -1913.46333821     A.U. after   12 cycles
 SCF Done:  E(RB3LYP) =  -1913.46371089     A.U. after   11 cycles
 SCF Done:  E(RB3LYP) =  -1913.46375138     A.U. after   10 cycles
 SCF Done:  E(RB3LYP) =  -1913.46375686     A.U. after   10 cycles
 SCF Done:  E(RB3LYP) =  -1913.46375816     A.U. after    9 cycles
 SCF Done:  E(RB3LYP) =  -1913.46375872     A.U. after    9 cycles
 SCF Done:  E(RB3LYP) =  -1913.46375885     A.U. after    7 cycles
 SCF Done:  E(RB3LYP) =  -1913.46375890     A.U. after    7 cycles
 Optimization completed.
    -- Stationary point found.

                         Standard orientation:
 ---------------------------------------------------------------------
 Center     Atomic      Atomic             Coordinates (Angstroms)
 Number     Number       Type             X           Y           Z
 ---------------------------------------------------------------------
      1          6           0        7.795613   -4.087850    1.391282
      2          6           0        7.279604   -3.736957   -0.017161
      3          6           0        6.972760   -5.058770   -0.760799
      4          6           0        8.400533   -2.976521   -0.765307
      5          6           0        6.010536   -2.866296    0.023981
      6          6           0        5.403305   -2.454419   -1.175861
      7          6           0        4.255419   -1.666449   -1.183245
      8          6           0        3.675330   -1.262681    0.022235
      9          7           0        2.489204   -0.445414    0.021076
     10          6           0        2.654039    0.954951    0.012921
     11          6           0        3.945042    1.517149    0.009204
     12          6           0        4.114664    2.896556    0.000964
     13          6           0        3.027871    3.787692   -0.003779
     14          6           0        3.191362    5.318266   -0.012854
     15          6           0        2.516929    5.902520   -1.276796
     16          6           0        2.519463    5.917136    1.245587
     17          6           0        4.670592    5.748814   -0.016880
     18          6           0        1.757075    3.209956    0.000275
     19          6           0        1.529889    1.820330    0.008363
     20          5           0        0.131183    1.191930    0.012171
     21          6           0       -1.232257    1.842028    0.008525
     22          8           0       -1.538036    3.201404    0.000539
     23          6           0       -2.892873    3.304605   -0.001456
     24          6           0       -3.599922    4.503086   -0.009313
     25          6           0       -4.989131    4.417509   -0.010764
     26          6           0       -5.638475    3.169136   -0.004563
     27          6           0       -4.919993    1.978095    0.003426
     28          6           0       -3.513863    2.035928    0.005207
     29          6           0       -2.402634    1.102797    0.011843
     30          7           0       -2.405433   -0.281990    0.019864
     31          6           0       -3.668043   -0.972871    0.020918
     32          6           0       -4.283541   -1.314516   -1.185751
     33          6           0       -5.515260   -1.963620   -1.177807
     34          6           0       -6.168852   -2.296365    0.022660
     35          6           0       -7.530399   -3.013795   -0.018394
     36          6           0       -8.089535   -3.290955    1.389973
     37          6           0       -8.552188   -2.134665   -0.778320
     38          6           0       -7.374507   -4.368122   -0.750667
     39          6           0       -5.526371   -1.950056    1.220035
     40          6           0       -4.290601   -1.298649    1.224032
     41          6           0       -1.206978   -1.018618    0.023520
     42          6           0       -1.252614   -2.423581    0.030619
     43          6           0       -0.058023   -3.131938    0.033834
     44          6           0        1.183717   -2.500842    0.030682
     45          6           0        1.243440   -1.097641    0.023980
     46          6           0        0.041866   -0.327456    0.020039
     47          6           0        4.259354   -1.658575    1.224059
     48          6           0        5.410976   -2.449362    1.220659
     49          1           0        7.056570   -4.656216    1.967393
     50          1           0        8.696347   -4.706425    1.309718
     51          1           0        8.061849   -3.192161    1.963936
     52          1           0        6.640611   -4.881594   -1.789054
     53          1           0        6.186040   -5.623811   -0.247991
     54          1           0        7.870034   -5.688049   -0.804321
     55          1           0        9.310981   -3.586606   -0.808579
     56          1           0        8.644717   -2.037312   -0.256017
     57          1           0        8.113467   -2.733939   -1.793780
     58          1           0        5.831960   -2.752046   -2.128638
     59          1           0        3.802088   -1.358782   -2.121060
     60          1           0        4.823325    0.883616    0.012836
     61          1           0        5.131347    3.275763   -0.001719
     62          1           0        2.981732    5.505768   -2.186811
     63          1           0        2.613612    6.995582   -1.293733
     64          1           0        1.449943    5.660046   -1.315016
     65          1           0        2.986023    5.530859    2.159199
     66          1           0        2.616232    7.010317    1.249728
     67          1           0        1.452545    5.675168    1.288675
     68          1           0        5.200441    5.380310   -0.902974
     69          1           0        4.738040    6.842841   -0.023494
     70          1           0        5.202204    5.390963    0.872515
     71          1           0        0.879277    3.849566   -0.002956
     72          1           0       -3.077831    5.454319   -0.014161
     73          1           0       -5.580352    5.329039   -0.016893
     74          1           0       -6.724363    3.134389   -0.006121
     75          1           0       -5.442441    1.029385    0.008006
     76          1           0       -3.795716   -1.064079   -2.123112
     77          1           0       -5.973842   -2.213319   -2.130211
     78          1           0       -8.250703   -2.365965    1.955233
     79          1           0       -7.425419   -3.938635    1.973519
     80          1           0       -9.056516   -3.799534    1.308053
     81          1           0       -8.689692   -1.170013   -0.276556
     82          1           0       -9.526347   -2.636440   -0.822356
     83          1           0       -8.234726   -1.934294   -1.806932
     84          1           0       -8.338059   -4.890134   -0.792971
     85          1           0       -6.659864   -5.015750   -0.230158
     86          1           0       -7.021010   -4.238732   -1.778926
     87          1           0       -5.985215   -2.184248    2.173823
     88          1           0       -3.809647   -1.036517    2.161771
     89          1           0       -2.197160   -2.952047    0.033768
     90          1           0       -0.091782   -4.218718    0.039158
     91          1           0        2.085535   -3.098281    0.033751
     92          1           0        3.810341   -1.345698    2.162252
     93          1           0        5.837502   -2.737528    2.174816
 ---------------------------------------------------------------------

 The electronic state is 1-A.
 Alpha  occ. eigenvalues --  -19.19177 -14.38209 -14.36866 -10.23673 -10.23179
 Alpha  occ. eigenvalues --  -10.22690 -10.22491 -10.22473 -10.22387 -10.21799
 Alpha  occ. eigenvalues --  -10.21240 -10.20817 -10.20590 -10.19999 -10.19956
 Alpha  occ. eigenvalues --  -10.19953 -10.19817 -10.19809 -10.19741 -10.19322
 Alpha  occ. eigenvalues --  -10.19319 -10.19274 -10.19201 -10.19136 -10.18999
 Alpha  occ. eigenvalues --  -10.18864 -10.18849 -10.18706 -10.18227 -10.18139
 Alpha  occ. eigenvalues --  -10.18126 -10.18124 -10.18106 -10.17771 -10.17770
 Alpha  occ. eigenvalues --  -10.17756 -10.17372 -10.17016 -10.16937 -10.16820
 Alpha  occ. eigenvalues --  -10.16645 -10.16576 -10.16356 -10.16088 -10.16088
 Alpha  occ. eigenvalues --  -10.15666 -10.14847  -6.68840  -1.08591  -0.97442
 Alpha  occ. eigenvalues --   -0.96237  -0.86767  -0.86131  -0.84745  -0.83932
 Alpha  occ. eigenvalues --   -0.82986  -0.82010  -0.81362  -0.79411  -0.78425
 Alpha  occ. eigenvalues --   -0.75603  -0.75333  -0.74959  -0.74688  -0.73943
 Alpha  occ. eigenvalues --   -0.73469  -0.72193  -0.71901  -0.70862  -0.69228
 Alpha  occ. eigenvalues --   -0.69109  -0.69052  -0.68836  -0.68680  -0.67258
 Alpha  occ. eigenvalues --   -0.66997  -0.63638  -0.62802  -0.61872  -0.61603
 Alpha  occ. eigenvalues --   -0.61154  -0.60967  -0.60616  -0.59256  -0.58458
 Alpha  occ. eigenvalues --   -0.56840  -0.55962  -0.55577  -0.55098  -0.53741
 Alpha  occ. eigenvalues --   -0.53261  -0.52651  -0.51720  -0.49748  -0.48783
 Alpha  occ. eigenvalues --   -0.48038  -0.47880  -0.47649  -0.47170  -0.46523
 Alpha  occ. eigenvalues --   -0.45956  -0.45645  -0.45479  -0.45046  -0.44550
 Alpha  occ. eigenvalues --   -0.44336  -0.44262  -0.44113  -0.43800  -0.43576
 Alpha  occ. eigenvalues --   -0.43302  -0.43267  -0.42837  -0.42654  -0.42500
 Alpha  occ. eigenvalues --   -0.42186  -0.41716  -0.41478  -0.40492  -0.40295
 Alpha  occ. eigenvalues --   -0.40137  -0.39944  -0.39674  -0.39632  -0.38668
 Alpha  occ. eigenvalues --   -0.38547  -0.38110  -0.38052  -0.37965  -0.37624
 Alpha  occ. eigenvalues --   -0.37488  -0.37255  -0.36912  -0.36831  -0.36382
 Alpha  occ. eigenvalues --   -0.36241  -0.36079  -0.35963  -0.35518  -0.35367
 Alpha  occ. eigenvalues --   -0.35235  -0.34880  -0.34168  -0.33748  -0.33589
 Alpha  occ. eigenvalues --   -0.33259  -0.33199  -0.33135  -0.32730  -0.32428
 Alpha  occ. eigenvalues --   -0.32073  -0.31921  -0.31871  -0.30879  -0.29732
 Alpha  occ. eigenvalues --   -0.29497  -0.28238  -0.26885  -0.25903  -0.25615
 Alpha  occ. eigenvalues --   -0.25198  -0.25129  -0.24374  -0.23192  -0.22752
 Alpha  occ. eigenvalues --   -0.21822  -0.20415  -0.16708
 Alpha virt. eigenvalues --   -0.03811  -0.01601  -0.01294  -0.00928  -0.00620
 Alpha virt. eigenvalues --   -0.00227   0.00994   0.02215   0.02652   0.03894
 Alpha virt. eigenvalues --    0.07279   0.07392   0.07744   0.09532   0.10078

 Mulliken charges:
               1
     1  C   -0.457966
     2  C    0.013951
     3  C   -0.439334
     4  C   -0.439315
     5  C    0.191290
     6  C   -0.203536
     7  C   -0.120820
     8  C    0.189415
     9  N   -0.683024
    10  C    0.255767
    11  C   -0.177754
    12  C   -0.212380
    13  C    0.201142
    14  C    0.021658
    15  C   -0.438730
    16  C   -0.438706
    17  C   -0.455782
    18  C   -0.309527
    19  C    0.108407
    20  B   -0.038202
    21  C    0.281402
    22  O   -0.547350
    23  C    0.307009
    24  C   -0.182932
    25  C   -0.139235
    26  C   -0.146463
    27  C   -0.200758
    28  C    0.129614
    29  C    0.185653
    30  N   -0.682012
    31  C    0.181903
    32  C   -0.121589
    33  C   -0.203935
    34  C    0.191139
    35  C    0.013052
    36  C   -0.458612
    37  C   -0.440128
    38  C   -0.439796
    39  C   -0.212301
    40  C   -0.121189
    41  C    0.267810
    42  C   -0.188839
    43  C   -0.145142
    44  C   -0.185166
    45  C    0.268697
    46  C   -0.009486
    47  C   -0.120553
    48  C   -0.211695
    49  H    0.146624
    50  H    0.143317
    51  H    0.146975
    52  H    0.143960
    53  H    0.148079
    54  H    0.140628
    55  H    0.140621
    56  H    0.148540
    57  H    0.144064
    58  H    0.131790
    59  H    0.145924
    60  H    0.138536
    61  H    0.121228
    62  H    0.142905
    63  H    0.131713
    64  H    0.148891
    65  H    0.142925
    66  H    0.131711
    67  H    0.148890
    68  H    0.142030
    69  H    0.137576
    70  H    0.142020
    71  H    0.146718
    72  H    0.142342
    73  H    0.129888
    74  H    0.124628
    75  H    0.151601
    76  H    0.150043
    77  H    0.135267
    78  H    0.147510
    79  H    0.147483
    80  H    0.144881
    81  H    0.148257
    82  H    0.142509
    83  H    0.144915
    84  H    0.142331
    85  H    0.149162
    86  H    0.144599
    87  H    0.136841
    88  H    0.149871
    89  H    0.135865
    90  H    0.123743
    91  H    0.137918
    92  H    0.145714
    93  H    0.133314
 Sum of Mulliken charges =  -0.00000

 Dipole moment (field-independent basis, Debye):
    X=             -1.2337    Y=             -3.4436    Z=             -0.0383  Tot=              3.6581
 Quadrupole moment (field-independent basis, Debye-Ang):
   XX=           -232.5385   YY=           -269.8745   ZZ=           -279.3047
   XY=             -1.6671   XZ=              0.0214   YZ=              0.0325

 Normal termination of Gaussian 16 at Sat Nov  5 00:36:13 2022.
