 Gaussian 16, Revision B.01,
 Gaussian 16:  ES64L-G16RevB.01 20-Dec-2017

 -------------------------------------------------------------------
 #p b3lyp/6-31g(d) 6D 10F nosymm GFInput td=(50-50,nstate=2) SCF=XQC
 -------------------------------------------------------------------

 ------------------------------
 Gaussian input prepared by ASE
 ------------------------------
 Symbolic Z-matrix:
 Charge =  0 Multiplicity = 1

                          Input orientation:
 ---------------------------------------------------------------------
 Center     Atomic      Atomic             Coordinates (Angstroms)
 Number     Number       Type             X           Y           Z
 ---------------------------------------------------------------------
      1          6           0       -4.616366    7.737753    1.901481
      2          6           0       -3.515956    6.713426    2.202996
      3          6           0       -3.319030    5.646874    1.113697
      4          6           0       -4.522153    4.694050    0.940489
      5          6           0       -4.268946    3.632029   -0.104353
      6          6           0       -4.540652    3.859743   -1.460441
      7          6           0       -4.286798    2.842934   -2.375465
      8          7           0       -3.757866    1.657541   -2.050455
      9          6           0       -3.479599    1.443544   -0.760176
     10          7           0       -2.929379    0.184388   -0.434495
     11          6           0       -3.317498   -1.050833   -0.994037
     12          6           0       -4.254318   -1.341337   -1.988027
     13          6           0       -4.463371   -2.677709   -2.312806
     14          6           0       -3.775235   -3.744837   -1.688062
     15          6           0       -4.058522   -5.193240   -2.129478
     16          6           0       -3.702020   -5.343000   -3.628957
     17          6           0       -3.213521   -6.219276   -1.349200
     18          6           0       -5.569746   -5.530832   -1.954901
     19          6           0       -6.121657   -5.430568   -0.528592
     20          6           0       -2.845580   -3.424931   -0.696659
     21          6           0       -2.614049   -2.088692   -0.346284
     22          6           0       -1.738807   -1.467083    0.624900
     23          6           0       -0.791473   -1.967669    1.524021
     24          6           0       -0.061263   -1.090636    2.318330
     25          6           0       -0.264332    0.293052    2.188175
     26          8           0        0.397501    1.199023    3.005214
     27          6           0        1.768381    1.171821    3.128969
     28          6           0        2.288131    1.766874    4.284228
     29          6           0        3.667390    1.823311    4.457558
     30          6           0        4.534364    1.292319    3.500732
     31          6           0        4.000019    0.721788    2.341055
     32          7           0        4.843605    0.173648    1.337837
     33          7           0        4.443178   -0.968241    0.706395
     34          6           0        5.378352   -1.219018   -0.200383
     35          6           0        5.266083   -2.439627   -1.064448
     36          6           0        6.411457   -0.232709   -0.167669
     37          6           0        7.621675   -0.161237   -1.006165
     38          6           0        8.878949    0.128369   -0.445330
     39          6           0       10.022904    0.199671   -1.239666
     40          6           0        9.939889   -0.027647   -2.614348
     41          6           0        8.701059   -0.323664   -3.186421
     42          6           0        7.556433   -0.386015   -2.393174
     43          6           0        6.027799    0.654831    0.833419
     44          6           0        6.652678    1.952125    1.245180
     45          6           0        2.615224    0.658225    2.147193
     46          6           0       -1.198811    0.827228    1.304744
     47          6           0       -1.953268   -0.068073    0.540971
     48          6           0       -3.740025    2.388298    0.244717
     49          1           0       -4.664659    8.502305    2.684952
     50          1           0       -4.428787    8.249684    0.949221
     51          1           0       -5.606695    7.272450    1.839209
     52          1           0       -3.727802    6.217235    3.160801
     53          1           0       -2.564114    7.243247    2.340280
     54          1           0       -3.107039    6.136509    0.152809
     55          1           0       -2.431160    5.047088    1.353521
     56          1           0       -5.412722    5.269435    0.661628
     57          1           0       -4.740867    4.216994    1.904763
     58          1           0       -4.960908    4.804662   -1.793590
     59          1           0       -4.513762    2.983414   -3.431035
     60          1           0       -4.781040   -0.551276   -2.506818
     61          1           0       -5.187531   -2.898175   -3.091840
     62          1           0       -3.888682   -6.369920   -3.967484
     63          1           0       -4.296128   -4.671821   -4.258117
     64          1           0       -2.644618   -5.114085   -3.803434
     65          1           0       -2.141950   -6.069560   -1.523276
     66          1           0       -3.462899   -7.233184   -1.683259
     67          1           0       -3.388037   -6.174380   -0.269564
     68          1           0       -5.731108   -6.549141   -2.336506
     69          1           0       -6.156119   -4.871311   -2.607495
     70          1           0       -7.196900   -5.643366   -0.519256
     71          1           0       -5.974957   -4.427187   -0.114760
     72          1           0       -5.642230   -6.145800    0.148884
     73          1           0       -2.291306   -4.203888   -0.184588
     74          1           0       -0.623042   -3.037972    1.604431
     75          1           0        0.669257   -1.460864    3.029291
     76          1           0        1.602863    2.165759    5.024805
     77          1           0        4.076165    2.267021    5.361006
     78          1           0        5.604362    1.293174    3.669704
     79          1           0        4.547535   -3.135595   -0.623296
     80          1           0        4.916438   -2.195784   -2.075577
     81          1           0        6.232518   -2.944502   -1.167818
     82          1           0        8.960249    0.274962    0.628091
     83          1           0       10.982904    0.422541   -0.780865
     84          1           0       10.831569    0.023123   -3.233393
     85          1           0        8.623035   -0.498772   -4.256425
     86          1           0        6.594920   -0.592707   -2.853639
     87          1           0        7.284971    2.321004    0.432956
     88          1           0        7.288340    1.857436    2.134876
     89          1           0        5.893234    2.708905    1.465984
     90          1           0        2.224775    0.202815    1.246622
     91          1           0       -1.300899    1.902437    1.230286
     92          1           0       -3.562005    2.141098    1.285603
 ---------------------------------------------------------------------

 SCF Done:  E(RB3LYP) =  -1959.35184650     A.U. after   15 cycles

 Excitation energies and oscillator strengths:

 Excited state symmetry could not be determined.
 Excited State   1:      Triplet-?Sym    3.0922 eV  400.96 nm  f=0.0000  <S**2>=2.000
     159 ->180        -0.10219
     164 ->171         0.10533
     168 ->170        -0.24782
     168 ->171         0.40706
     168 ->172        -0.25828
     168 ->173         0.14216
     169 ->171        -0.17663
     169 ->177        -0.17827
 This state for optimization and/or second-order correction.
 Total Energy, E(TD-HF/TD-DFT) =  -1959.23821166
 Copying the excited state density for this state as the 1-particle RhoCI density.

 Excited state symmetry could not be determined.
 Excited State   2:      Triplet-?Sym    3.4167 eV  362.88 nm  f=0.0000  <S**2>=2.000
     157 ->170        -0.10680
     162 ->174        -0.11091
     163 ->175        -0.13536
     167 ->171        -0.23832
     167 ->172        -0.17508
     167 ->173         0.19528
     168 ->173         0.13743
     169 ->170         0.26341
     169 ->171         0.19178
     169 ->172         0.15461
     169 ->173         0.24353

 Excited state symmetry could not be determined.
 Excited State   3:      Singlet-?Sym    3.9520 eV  313.73 nm  f=0.1272  <S**2>=0.000
     169 ->170         0.68942

 Excited state symmetry could not be determined.
 Excited State   4:      Singlet-?Sym    4.0646 eV  305.03 nm  f=0.0064  <S**2>=0.000
     168 ->171         0.16913
     168 ->177         0.14065
     169 ->171         0.56527
     169 ->172        -0.29600
     169 ->173         0.13333

 Alpha  occ. eigenvalues --  -19.18632 -14.40582 -14.38340 -14.33358 -14.33223
 Alpha  occ. eigenvalues --  -10.26876 -10.25404 -10.24766 -10.23720 -10.22870
 Alpha  occ. eigenvalues --  -10.22813 -10.22423 -10.21855 -10.21722 -10.20341
 Alpha  occ. eigenvalues --  -10.20075 -10.19868 -10.19774 -10.19746 -10.19715
 Alpha  occ. eigenvalues --  -10.19433 -10.19366 -10.19226 -10.19219 -10.19198
 Alpha  occ. eigenvalues --  -10.18971 -10.18912 -10.18899 -10.18858 -10.18720
 Alpha  occ. eigenvalues --  -10.18676 -10.18675 -10.18584 -10.18566 -10.18478
 Alpha  occ. eigenvalues --  -10.18441 -10.18260 -10.18127 -10.18013 -10.17859
 Alpha  occ. eigenvalues --  -10.17850 -10.17810 -10.17714 -10.17547 -10.17366
 Alpha  occ. eigenvalues --  -10.16714 -10.16629 -10.16403  -1.07488  -1.03804
 Alpha  occ. eigenvalues --   -0.99707  -0.93956  -0.87405  -0.85228  -0.84974
 Alpha  occ. eigenvalues --   -0.84692  -0.83412  -0.82750  -0.81165  -0.80198
 Alpha  occ. eigenvalues --   -0.79134  -0.78236  -0.76262  -0.75598  -0.74688
 Alpha  occ. eigenvalues --   -0.74552  -0.73985  -0.73543  -0.72950  -0.72769
 Alpha  occ. eigenvalues --   -0.71334  -0.71009  -0.70027  -0.69488  -0.67742
 Alpha  occ. eigenvalues --   -0.66388  -0.65486  -0.64021  -0.62985  -0.62644
 Alpha  occ. eigenvalues --   -0.61798  -0.60883  -0.60397  -0.60053  -0.59127
 Alpha  occ. eigenvalues --   -0.58171  -0.57412  -0.57195  -0.55831  -0.55203
 Alpha  occ. eigenvalues --   -0.53744  -0.52995  -0.52437  -0.51404  -0.50963
 Alpha  occ. eigenvalues --   -0.50191  -0.49839  -0.49070  -0.48545  -0.47627
 Alpha  occ. eigenvalues --   -0.47162  -0.46756  -0.46194  -0.46027  -0.45803
 Alpha  occ. eigenvalues --   -0.45153  -0.45007  -0.44648  -0.44199  -0.44038
 Alpha  occ. eigenvalues --   -0.43922  -0.43598  -0.43408  -0.42702  -0.42405
 Alpha  occ. eigenvalues --   -0.42314  -0.42279  -0.41876  -0.41727  -0.41529
 Alpha  occ. eigenvalues --   -0.41181  -0.40738  -0.40586  -0.40505  -0.40001
 Alpha  occ. eigenvalues --   -0.39579  -0.39325  -0.38813  -0.38704  -0.38646
 Alpha  occ. eigenvalues --   -0.38466  -0.38248  -0.37692  -0.37446  -0.37209
 Alpha  occ. eigenvalues --   -0.37150  -0.36493  -0.36372  -0.35813  -0.35622
 Alpha  occ. eigenvalues --   -0.35405  -0.35251  -0.34375  -0.34278  -0.33875
 Alpha  occ. eigenvalues --   -0.33834  -0.33721  -0.33528  -0.33473  -0.33359
 Alpha  occ. eigenvalues --   -0.33121  -0.32197  -0.31251  -0.30983  -0.30148
 Alpha  occ. eigenvalues --   -0.28100  -0.27703  -0.27532  -0.27025  -0.26541
 Alpha  occ. eigenvalues --   -0.26273  -0.25507  -0.24650  -0.24534  -0.23517
 Alpha  occ. eigenvalues --   -0.22530  -0.20777  -0.20000  -0.19617
 Alpha virt. eigenvalues --   -0.02828  -0.02417  -0.02078  -0.01814  -0.00164
 Alpha virt. eigenvalues --    0.00290   0.00342   0.01035   0.03768   0.03936
 Alpha virt. eigenvalues --    0.04739   0.07944   0.08251   0.08549   0.08701

 Mulliken charges:
               1
     1  C   -0.446560
     2  C   -0.249609
     3  C   -0.251115
     4  C   -0.352354
     5  C    0.192474
     6  C   -0.194848
     7  C    0.042252
     8  N   -0.474606
     9  C    0.469778
    10  N   -0.737223
    11  C    0.317386
    12  C   -0.152830
    13  C   -0.207689
    14  C    0.172240
    15  C    0.016921
    16  C   -0.441644
    17  C   -0.462946
    18  C   -0.245741
    19  C   -0.451327
    20  C   -0.280604
    21  C    0.065376
    22  C    0.067939
    23  C   -0.205000
    24  C   -0.177482
    25  C    0.344853
    26  O   -0.587306
    27  C    0.353395
    28  C   -0.169801
    29  C   -0.148640
    30  C   -0.160219
    31  C    0.303422
    32  N   -0.438019
    33  N   -0.363227
    34  C    0.326036
    35  C   -0.524526
    36  C   -0.153764
    37  C    0.089653
    38  C   -0.173926
    39  C   -0.134941
    40  C   -0.128183
    41  C   -0.135230
    42  C   -0.170718
    43  C    0.369217
    44  C   -0.532469
    45  C   -0.201231
    46  C   -0.237253
    47  C    0.316520
    48  C   -0.225938
    49  H    0.147771
    50  H    0.143073
    51  H    0.146520
    52  H    0.134481
    53  H    0.138830
    54  H    0.138019
    55  H    0.142039
    56  H    0.151589
    57  H    0.148097
    58  H    0.132876
    59  H    0.143753
    60  H    0.153693
    61  H    0.123035
    62  H    0.135068
    63  H    0.141279
    64  H    0.146738
    65  H    0.145173
    66  H    0.138766
    67  H    0.148597
    68  H    0.125126
    69  H    0.129110
    70  H    0.138708
    71  H    0.156957
    72  H    0.142211
    73  H    0.125335
    74  H    0.139265
    75  H    0.147426
    76  H    0.140762
    77  H    0.136070
    78  H    0.138006
    79  H    0.172094
    80  H    0.161016
    81  H    0.164361
    82  H    0.128304
    83  H    0.127946
    84  H    0.127741
    85  H    0.129238
    86  H    0.132470
    87  H    0.180349
    88  H    0.164849
    89  H    0.176127
    90  H    0.180971
    91  H    0.150151
    92  H    0.155516
 Sum of Mulliken charges =  -0.00000

 Dipole moment (field-independent basis, Debye):
    X=             -0.2232    Y=              3.5174    Z=              0.9082  Tot=              3.6396
 Quadrupole moment (field-independent basis, Debye-Ang):
   XX=           -256.0890   YY=           -259.1217   ZZ=           -271.5173
   XY=             -4.8570   XZ=              4.2542   YZ=              7.4337

 Normal termination of Gaussian 16 at Sat Nov  5 10:56:05 2022.
