 Gaussian 16, Revision B.01,
 Gaussian 16:  ES64L-G16RevB.01 20-Dec-2017

 -----------------------------
 #p b3lyp/6-31g(d) opt SCF=XQC
 -----------------------------

 ------------------------------
 Gaussian input prepared by ASE
 ------------------------------
 Symbolic Z-matrix:
 Charge =  0 Multiplicity = 1

 SCF Done:  E(RB3LYP) =  -2568.33567974     A.U. after   16 cycles
 SCF Done:  E(RB3LYP) =  -2568.35605455     A.U. after   15 cycles
 SCF Done:  E(RB3LYP) =  -2568.36052807     A.U. after   13 cycles
 SCF Done:  E(RB3LYP) =  -2568.35939451     A.U. after   15 cycles
 SCF Done:  E(RB3LYP) =  -2568.36129529     A.U. after   13 cycles
 SCF Done:  E(RB3LYP) =  -2568.36396003     A.U. after   13 cycles
 SCF Done:  E(RB3LYP) =  -2568.36458066     A.U. after   12 cycles
 SCF Done:  E(RB3LYP) =  -2568.36492028     A.U. after   12 cycles
 SCF Done:  E(RB3LYP) =  -2568.36506339     A.U. after   11 cycles
 SCF Done:  E(RB3LYP) =  -2568.36515267     A.U. after   11 cycles
 SCF Done:  E(RB3LYP) =  -2568.36529673     A.U. after   10 cycles
 SCF Done:  E(RB3LYP) =  -2568.36529791     A.U. after   10 cycles
 SCF Done:  E(RB3LYP) =  -2568.36529967     A.U. after   10 cycles
 SCF Done:  E(RB3LYP) =  -2568.36530069     A.U. after   10 cycles
 SCF Done:  E(RB3LYP) =  -2568.36530087     A.U. after    7 cycles
 SCF Done:  E(RB3LYP) =  -2568.36530095     A.U. after    9 cycles
 SCF Done:  E(RB3LYP) =  -2568.36530099     A.U. after    7 cycles
 SCF Done:  E(RB3LYP) =  -2568.36530102     A.U. after    9 cycles
 SCF Done:  E(RB3LYP) =  -2568.36530101     A.U. after    6 cycles
 SCF Done:  E(RB3LYP) =  -2568.36530102     A.U. after    6 cycles
 Optimization completed.
    -- Stationary point found.

                         Standard orientation:
 ---------------------------------------------------------------------
 Center     Atomic      Atomic             Coordinates (Angstroms)
 Number     Number       Type             X           Y           Z
 ---------------------------------------------------------------------
      1          6           0       -6.005726   -2.149111    0.961141
      2         14           0       -4.401333   -2.792638    1.735915
      3          6           0       -4.839603   -4.177825    2.952953
      4          6           0       -3.438355   -1.434988    2.572894
      5          6           0       -4.008406   -0.762834    3.669325
      6          6           0       -3.343542    0.234106    4.372978
      7          6           0       -2.049007    0.565502    3.972908
      8          6           0       -1.448838   -0.076076    2.896949
      9          6           0       -2.128440   -1.078116    2.164352
     10          7           0       -1.471304   -1.673698    1.055474
     11          6           0       -0.127348   -1.228576    0.807177
     12          7           0        0.833051   -1.966770    1.363537
     13          6           0        2.104020   -1.589191    1.214285
     14          6           0        2.504505   -0.425250    0.541787
     15          6           0        3.948541   -0.093210    0.388457
     16          6           0        4.782523   -1.078122   -0.159639
     17          6           0        6.144919   -0.861912   -0.410577
     18          6           0        6.995475   -1.928578   -0.995756
     19          6           0        8.003524   -1.619022   -1.924647
     20          6           0        8.803511   -2.619848   -2.473673
     21          6           0        8.612635   -3.953236   -2.106661
     22          6           0        7.614834   -4.276316   -1.185250
     23          6           0        6.815847   -3.275000   -0.635665
     24          6           0        6.667425    0.401772   -0.097548
     25          6           0        5.856901    1.386902    0.455141
     26          6           0        4.495189    1.169996    0.720890
     27          6           0        3.718729    2.260838    1.375076
     28          6           0        2.970626    2.029990    2.542001
     29          6           0        2.298865    3.072778    3.177602
     30          6           0        2.361055    4.369232    2.661650
     31          6           0        3.103517    4.613926    1.505096
     32          6           0        3.775962    3.569661    0.869027
     33          6           0        1.483794    0.349023   -0.018373
     34          6           0        0.146905   -0.054391    0.075370
     35          6           0       -0.892319    0.787919   -0.582735
     36          7           0       -0.686400    2.110992   -0.554137
     37          6           0       -1.620445    2.853519   -1.174219
     38          6           0       -1.457925    4.326229   -1.154907
     39          6           0       -2.367228    5.150215   -1.836895
     40          6           0       -2.211737    6.533833   -1.817977
     41          6           0       -1.149313    7.110682   -1.117402
     42          6           0       -0.242488    6.295705   -0.435378
     43          6           0       -0.392290    4.911196   -0.452359
     44          7           0       -2.685585    2.341774   -1.807483
     45          6           0       -2.790501    1.003876   -1.801880
     46          6           0       -3.928965    0.388544   -2.521656
     47          6           0       -4.036748   -1.009136   -2.611099
     48          6           0       -5.105321   -1.585370   -3.294513
     49          6           0       -6.075070   -0.777796   -3.893464
     50          6           0       -5.972473    0.613454   -3.807950
     51          6           0       -4.906033    1.195028   -3.127663
     52          7           0       -1.916163    0.183306   -1.190560
     53          6           0       -1.934085   -2.749977    0.257233
     54          6           0       -1.104209   -3.213585   -0.790189
     55          6           0       -1.495424   -4.260209   -1.614172
     56          6           0       -2.728948   -4.889727   -1.433840
     57          6           0       -3.553498   -4.430310   -0.413998
     58          6           0       -3.194736   -3.370053    0.439803
     59          1           0       -6.562042   -2.957327    0.469956
     60          1           0       -6.666104   -1.712212    1.720689
     61          1           0       -5.800101   -1.380279    0.208804
     62          1           0       -5.511795   -3.818002    3.741879
     63          1           0       -5.346619   -5.008214    2.445790
     64          1           0       -3.940403   -4.577353    3.434382
     65          1           0       -5.015010   -1.038963    3.980497
     66          1           0       -3.815369    0.735139    5.213293
     67          1           0       -1.489273    1.331947    4.503281
     68          1           0       -0.439060    0.211357    2.635910
     69          1           0        2.850446   -2.234239    1.675357
     70          1           0        4.338339   -2.025596   -0.450760
     71          1           0        8.142740   -0.588198   -2.238521
     72          1           0        9.571582   -2.357974   -3.196657
     73          1           0        9.235802   -4.733558   -2.534902
     74          1           0        7.462829   -5.309970   -0.885970
     75          1           0        6.060603   -3.535084    0.100815
     76          1           0        7.723575    0.602878   -0.252208
     77          1           0        6.294143    2.342481    0.730685
     78          1           0        2.932663    1.029840    2.963053
     79          1           0        1.733384    2.874075    4.084120
     80          1           0        1.838239    5.181322    3.159410
     81          1           0        3.162382    5.619158    1.095590
     82          1           0        4.343106    3.764942   -0.037242
     83          1           0        1.715018    1.265447   -0.549860
     84          1           0       -3.187621    4.690979   -2.376528
     85          1           0       -2.919597    7.163765   -2.349870
     86          1           0       -1.029616    8.190927   -1.102641
     87          1           0        0.583828    6.740130    0.112998
     88          1           0        0.305559    4.272196    0.076918
     89          1           0       -3.279777   -1.630162   -2.146719
     90          1           0       -5.177914   -2.667513   -3.355970
     91          1           0       -6.908397   -1.229984   -4.425134
     92          1           0       -6.725308    1.244927   -4.272058
     93          1           0       -4.816012    2.272890   -3.054765
     94          1           0       -0.141985   -2.753615   -0.970988
     95          1           0       -0.824305   -4.583372   -2.406051
     96          1           0       -3.035137   -5.713106   -2.072887
     97          1           0       -4.521039   -4.908940   -0.268378
 ---------------------------------------------------------------------

 The electronic state is 1-A.
 Alpha  occ. eigenvalues --  -66.10599 -14.36491 -14.33868 -14.33857 -14.33758
 Alpha  occ. eigenvalues --  -14.33691 -10.27933 -10.27573 -10.27475 -10.26750
 Alpha  occ. eigenvalues --  -10.23304 -10.22979 -10.22814 -10.21845 -10.21691
 Alpha  occ. eigenvalues --  -10.21550 -10.21315 -10.21042 -10.20758 -10.20601
 Alpha  occ. eigenvalues --  -10.20431 -10.20037 -10.19915 -10.19868 -10.19803
 Alpha  occ. eigenvalues --  -10.19789 -10.19715 -10.19695 -10.19623 -10.19603
 Alpha  occ. eigenvalues --  -10.19570 -10.19520 -10.19475 -10.19452 -10.19410
 Alpha  occ. eigenvalues --  -10.19392 -10.19386 -10.19370 -10.19365 -10.19354
 Alpha  occ. eigenvalues --  -10.19298 -10.19156 -10.19025 -10.18968 -10.18799
 Alpha  occ. eigenvalues --  -10.18625 -10.18151 -10.18133 -10.18129 -10.18092
 Alpha  occ. eigenvalues --  -10.17636 -10.17563 -10.17302 -10.17225 -10.16095
 Alpha  occ. eigenvalues --  -10.16066 -10.15116 -10.14974  -5.25138  -3.61088
 Alpha  occ. eigenvalues --   -3.60973  -3.60964  -1.02149  -0.98387  -0.92940
 Alpha  occ. eigenvalues --   -0.90601  -0.90530  -0.88186  -0.86259  -0.85407
 Alpha  occ. eigenvalues --   -0.85030  -0.84991  -0.84096  -0.82802  -0.82169
 Alpha  occ. eigenvalues --   -0.79582  -0.78739  -0.76514  -0.75753  -0.75460
 Alpha  occ. eigenvalues --   -0.75103  -0.74956  -0.74753  -0.74694  -0.74503
 Alpha  occ. eigenvalues --   -0.74280  -0.73436  -0.72582  -0.71577  -0.70681
 Alpha  occ. eigenvalues --   -0.68874  -0.68320  -0.67627  -0.66445  -0.65003
 Alpha  occ. eigenvalues --   -0.64217  -0.63376  -0.62247  -0.61246  -0.61076
 Alpha  occ. eigenvalues --   -0.60937  -0.60641  -0.60091  -0.59893  -0.59648
 Alpha  occ. eigenvalues --   -0.58702  -0.58370  -0.58091  -0.57244  -0.56725
 Alpha  occ. eigenvalues --   -0.54537  -0.54213  -0.53151  -0.52704  -0.52230
 Alpha  occ. eigenvalues --   -0.52105  -0.51330  -0.50529  -0.49824  -0.49229
 Alpha  occ. eigenvalues --   -0.48695  -0.47823  -0.47542  -0.46221  -0.46165
 Alpha  occ. eigenvalues --   -0.45882  -0.45661  -0.45367  -0.45156  -0.45059
 Alpha  occ. eigenvalues --   -0.44571  -0.44353  -0.44189  -0.44073  -0.43755
 Alpha  occ. eigenvalues --   -0.43726  -0.43044  -0.42644  -0.42568  -0.42445
 Alpha  occ. eigenvalues --   -0.42363  -0.42241  -0.42120  -0.41957  -0.41568
 Alpha  occ. eigenvalues --   -0.41506  -0.41329  -0.39854  -0.39660  -0.39428
 Alpha  occ. eigenvalues --   -0.39375  -0.38993  -0.38316  -0.38032  -0.37990
 Alpha  occ. eigenvalues --   -0.37923  -0.37580  -0.37426  -0.37164  -0.36934
 Alpha  occ. eigenvalues --   -0.36802  -0.36571  -0.35951  -0.35895  -0.35573
 Alpha  occ. eigenvalues --   -0.35269  -0.35239  -0.34792  -0.34729  -0.34621
 Alpha  occ. eigenvalues --   -0.34489  -0.34194  -0.34057  -0.33945  -0.33898
 Alpha  occ. eigenvalues --   -0.33289  -0.32696  -0.31201  -0.29695  -0.29548
 Alpha  occ. eigenvalues --   -0.29104  -0.28685  -0.27788  -0.27414  -0.26725
 Alpha  occ. eigenvalues --   -0.26225  -0.25862  -0.25574  -0.25440  -0.25385
 Alpha  occ. eigenvalues --   -0.25335  -0.25033  -0.24730  -0.24625  -0.24337
 Alpha  occ. eigenvalues --   -0.24091  -0.23676  -0.23478  -0.22155  -0.18175
 Alpha virt. eigenvalues --   -0.06892  -0.06686  -0.04709  -0.03759  -0.02622
 Alpha virt. eigenvalues --   -0.00834  -0.00693  -0.00613  -0.00412  -0.00351
 Alpha virt. eigenvalues --   -0.00132   0.00014   0.00250   0.01521   0.02216

 Mulliken charges:
               1
     1  C   -0.660589
     2  Si   0.600113
     3  C   -0.657828
     4  C   -0.084244
     5  C   -0.188915
     6  C   -0.122279
     7  C   -0.143857
     8  C   -0.171679
     9  C    0.299585
    10  N   -0.649265
    11  C    0.276875
    12  N   -0.402109
    13  C   -0.004960
    14  C    0.039723
    15  C    0.038102
    16  C   -0.236952
    17  C    0.100095
    18  C    0.088499
    19  C   -0.173495
    20  C   -0.133501
    21  C   -0.125636
    22  C   -0.133811
    23  C   -0.172056
    24  C   -0.174980
    25  C   -0.185274
    26  C    0.052599
    27  C    0.058416
    28  C   -0.156641
    29  C   -0.132794
    30  C   -0.125452
    31  C   -0.138274
    32  C   -0.166223
    33  C   -0.162439
    34  C    0.125500
    35  C    0.400276
    36  N   -0.515376
    37  C    0.447399
    38  C    0.076818
    39  C   -0.155880
    40  C   -0.140264
    41  C   -0.115619
    42  C   -0.143352
    43  C   -0.165921
    44  N   -0.537305
    45  C    0.446760
    46  C    0.068337
    47  C   -0.160760
    48  C   -0.146287
    49  C   -0.115566
    50  C   -0.140570
    51  C   -0.155381
    52  N   -0.504543
    53  C    0.327406
    54  C   -0.154414
    55  C   -0.147422
    56  C   -0.128437
    57  C   -0.190589
    58  C   -0.093548
    59  H    0.154284
    60  H    0.155779
    61  H    0.177266
    62  H    0.156547
    63  H    0.155861
    64  H    0.170628
    65  H    0.122732
    66  H    0.120609
    67  H    0.123379
    68  H    0.142093
    69  H    0.152005
    70  H    0.144176
    71  H    0.132802
    72  H    0.132665
    73  H    0.132404
    74  H    0.134073
    75  H    0.133478
    76  H    0.137807
    77  H    0.140739
    78  H    0.140636
    79  H    0.136141
    80  H    0.134203
    81  H    0.133350
    82  H    0.135743
    83  H    0.176512
    84  H    0.161586
    85  H    0.134137
    86  H    0.133132
    87  H    0.128906
    88  H    0.175485
    89  H    0.193351
    90  H    0.138293
    91  H    0.132603
    92  H    0.132231
    93  H    0.158623
    94  H    0.135793
    95  H    0.126417
    96  H    0.119880
    97  H    0.121634
 Sum of Mulliken charges =  -0.00000

 Dipole moment (field-independent basis, Debye):
    X=              2.0788    Y=              2.3806    Z=             -1.5151  Tot=              3.5049
 Quadrupole moment (field-independent basis, Debye-Ang):
   XX=           -304.2803   YY=           -310.3641   ZZ=           -332.0659
   XY=              0.1487   XZ=             -0.1696   YZ=              8.7806

 Normal termination of Gaussian 16 at Sat Nov  5 02:43:53 2022.
