 Gaussian 16, Revision B.01,
 Gaussian 16:  ES64L-G16RevB.01 20-Dec-2017

 -------------------------------------------------------------------
 #p b3lyp/6-31g(d) 6D 10F nosymm GFInput td=(50-50,nstate=2) SCF=XQC
 -------------------------------------------------------------------

 ------------------------------
 Gaussian input prepared by ASE
 ------------------------------
 Symbolic Z-matrix:
 Charge =  0 Multiplicity = 1

                          Input orientation:
 ---------------------------------------------------------------------
 Center     Atomic      Atomic             Coordinates (Angstroms)
 Number     Number       Type             X           Y           Z
 ---------------------------------------------------------------------
      1          6           0       -5.209885   -3.722858   -0.702939
      2         14           0       -3.401777   -4.265550   -0.545747
      3          6           0       -3.344546   -6.159943   -0.548117
      4          6           0       -2.594339   -3.565273    0.980271
      5          6           0       -3.088136   -3.926570    2.246974
      6          6           0       -2.520737   -3.480188    3.434351
      7          6           0       -1.404526   -2.647533    3.353957
      8          6           0       -0.884127   -2.269304    2.122844
      9          6           0       -1.469726   -2.704750    0.910366
     10          7           0       -0.908990   -2.257348   -0.315017
     11          6           0        0.258712   -1.426290   -0.206316
     12          7           0        1.426110   -2.065946   -0.276019
     13          6           0        2.553585   -1.366044   -0.137671
     14          6           0        2.596723    0.010699    0.127125
     15          6           0        3.899511    0.725300    0.232428
     16          6           0        4.803555    0.578831   -0.829288
     17          6           0        6.033458    1.250541   -0.873841
     18          6           0        6.963153    1.072830   -2.017406
     19          6           0        7.716248    2.152517   -2.509290
     20          6           0        8.590429    1.986257   -3.582242
     21          6           0        8.730408    0.736322   -4.188149
     22          6           0        7.988572   -0.345719   -3.710811
     23          6           0        7.115357   -0.179200   -2.637115
     24          6           0        6.344080    2.102375    0.196574
     25          6           0        5.463430    2.252182    1.261896
     26          6           0        4.236868    1.570693    1.317105
     27          6           0        3.385822    1.741183    2.528484
     28          6           0        2.909147    0.634324    3.251194
     29          6           0        2.165408    0.809138    4.416935
     30          6           0        1.882850    2.093843    4.886573
     31          6           0        2.353145    3.202644    4.180793
     32          6           0        3.097753    3.027238    3.013726
     33          6           0        1.363376    0.663205    0.217782
     34          6           0        0.167786   -0.037160    0.020658
     35          6           0       -1.113583    0.722320    0.082762
     36          7           0       -1.169090    1.716225    0.978762
     37          6           0       -2.322833    2.406552    1.003524
     38          6           0       -2.451153    3.503482    1.991420
     39          6           0       -3.607598    4.298776    2.023575
     40          6           0       -3.725315    5.329584    2.952290
     41          6           0       -2.692306    5.577164    3.859980
     42          6           0       -1.540013    4.787728    3.833805
     43          6           0       -1.416295    3.756521    2.905958
     44          7           0       -3.359663    2.162472    0.189375
     45          6           0       -3.197864    1.162314   -0.690689
     46          6           0       -4.300044    0.879298   -1.638272
     47          6           0       -4.145620   -0.104259   -2.629177
     48          6           0       -5.181740   -0.363947   -3.523585
     49          6           0       -6.379070    0.350716   -3.440000
     50          6           0       -6.537916    1.330772   -2.456295
     51          6           0       -5.505439    1.595769   -1.560705
     52          7           0       -2.087979    0.405484   -0.773644
     53          6           0       -1.281981   -2.648196   -1.625684
     54          6           0       -0.569776   -2.099405   -2.717613
     55          6           0       -0.883902   -2.433697   -4.027955
     56          6           0       -1.920527   -3.326198   -4.309457
     57          6           0       -2.631506   -3.859037   -3.240992
     58          6           0       -2.346263   -3.542352   -1.899285
     59          1           0       -5.672979   -4.139836   -1.606067
     60          1           0       -5.802642   -4.063123    0.155404
     61          1           0       -5.291175   -2.632167   -0.759311
     62          1           0       -3.928564   -6.577872    0.281327
     63          1           0       -3.758441   -6.569943   -1.477857
     64          1           0       -2.315456   -6.522372   -0.450275
     65          1           0       -3.952449   -4.587440    2.297363
     66          1           0       -2.930151   -3.776413    4.395816
     67          1           0       -0.923220   -2.284937    4.258890
     68          1           0       -0.010355   -1.631412    2.117553
     69          1           0        3.479787   -1.933151   -0.217467
     70          1           0        4.510358   -0.037500   -1.674231
     71          1           0        7.594796    3.135886   -2.063497
     72          1           0        9.156529    2.837473   -3.951263
     73          1           0        9.411411    0.606659   -5.024841
     74          1           0        8.095725   -1.325157   -4.169434
     75          1           0        6.563607   -1.034392   -2.256773
     76          1           0        7.297802    2.621917    0.214096
     77          1           0        5.745662    2.882516    2.100501
     78          1           0        3.140747   -0.368845    2.906174
     79          1           0        1.814038   -0.060666    4.965576
     80          1           0        1.304444    2.228298    5.796497
     81          1           0        2.142712    4.207572    4.537851
     82          1           0        3.451442    3.894837    2.463012
     83          1           0        1.315804    1.726545    0.424713
     84          1           0       -4.402343    4.096743    1.314554
     85          1           0       -4.623481    5.940984    2.968971
     86          1           0       -2.785857    6.381518    4.585057
     87          1           0       -0.735146    4.974994    4.539602
     88          1           0       -0.526466    3.137613    2.881315
     89          1           0       -3.213376   -0.653327   -2.690608
     90          1           0       -5.050358   -1.127604   -4.284931
     91          1           0       -7.186317    0.145337   -4.138393
     92          1           0       -7.468167    1.888311   -2.387753
     93          1           0       -5.617192    2.353562   -0.793592
     94          1           0        0.238057   -1.400116   -2.548690
     95          1           0       -0.308610   -1.987604   -4.835388
     96          1           0       -2.164549   -3.594632   -5.333412
     97          1           0       -3.446856   -4.550779   -3.448653
 ---------------------------------------------------------------------

 SCF Done:  E(RB3LYP) =  -2568.36531479     A.U. after   16 cycles

 Excitation energies and oscillator strengths:

 Excited state symmetry could not be determined.
 Excited State   1:      Triplet-?Sym    2.4063 eV  515.26 nm  f=0.0000  <S**2>=2.000
     200 ->201         0.69930
 This state for optimization and/or second-order correction.
 Total Energy, E(TD-HF/TD-DFT) =  -2568.27688632
 Copying the excited state density for this state as the 1-particle RhoCI density.

 Excited state symmetry could not be determined.
 Excited State   2:      Singlet-?Sym    2.4261 eV  511.04 nm  f=0.0005  <S**2>=0.000
     200 ->201         0.70188

 Excited state symmetry could not be determined.
 Excited State   3:      Triplet-?Sym    2.5817 eV  480.25 nm  f=0.0000  <S**2>=2.000
     200 ->202         0.70089

 Excited state symmetry could not be determined.
 Excited State   4:      Singlet-?Sym    2.5995 eV  476.95 nm  f=0.0052  <S**2>=0.000
     200 ->202         0.70482

 Alpha  occ. eigenvalues --  -66.10599 -14.36491 -14.33868 -14.33857 -14.33758
 Alpha  occ. eigenvalues --  -14.33691 -10.27933 -10.27573 -10.27475 -10.26750
 Alpha  occ. eigenvalues --  -10.23305 -10.22979 -10.22814 -10.21845 -10.21691
 Alpha  occ. eigenvalues --  -10.21550 -10.21315 -10.21042 -10.20758 -10.20601
 Alpha  occ. eigenvalues --  -10.20431 -10.20037 -10.19915 -10.19868 -10.19803
 Alpha  occ. eigenvalues --  -10.19789 -10.19715 -10.19695 -10.19623 -10.19603
 Alpha  occ. eigenvalues --  -10.19570 -10.19520 -10.19475 -10.19452 -10.19410
 Alpha  occ. eigenvalues --  -10.19392 -10.19386 -10.19370 -10.19365 -10.19354
 Alpha  occ. eigenvalues --  -10.19298 -10.19156 -10.19025 -10.18968 -10.18799
 Alpha  occ. eigenvalues --  -10.18625 -10.18151 -10.18133 -10.18129 -10.18092
 Alpha  occ. eigenvalues --  -10.17636 -10.17563 -10.17302 -10.17225 -10.16096
 Alpha  occ. eigenvalues --  -10.16066 -10.15116 -10.14974  -5.25138  -3.61088
 Alpha  occ. eigenvalues --   -3.60973  -3.60964  -1.02149  -0.98387  -0.92940
 Alpha  occ. eigenvalues --   -0.90601  -0.90530  -0.88186  -0.86259  -0.85407
 Alpha  occ. eigenvalues --   -0.85030  -0.84991  -0.84096  -0.82802  -0.82169
 Alpha  occ. eigenvalues --   -0.79582  -0.78739  -0.76514  -0.75753  -0.75460
 Alpha  occ. eigenvalues --   -0.75103  -0.74956  -0.74753  -0.74694  -0.74503
 Alpha  occ. eigenvalues --   -0.74280  -0.73436  -0.72582  -0.71577  -0.70681
 Alpha  occ. eigenvalues --   -0.68874  -0.68320  -0.67627  -0.66445  -0.65003
 Alpha  occ. eigenvalues --   -0.64217  -0.63376  -0.62247  -0.61246  -0.61076
 Alpha  occ. eigenvalues --   -0.60937  -0.60641  -0.60091  -0.59893  -0.59648
 Alpha  occ. eigenvalues --   -0.58702  -0.58370  -0.58091  -0.57244  -0.56725
 Alpha  occ. eigenvalues --   -0.54537  -0.54213  -0.53151  -0.52704  -0.52230
 Alpha  occ. eigenvalues --   -0.52105  -0.51330  -0.50529  -0.49824  -0.49229
 Alpha  occ. eigenvalues --   -0.48695  -0.47823  -0.47542  -0.46221  -0.46165
 Alpha  occ. eigenvalues --   -0.45882  -0.45661  -0.45367  -0.45156  -0.45059
 Alpha  occ. eigenvalues --   -0.44571  -0.44353  -0.44189  -0.44073  -0.43755
 Alpha  occ. eigenvalues --   -0.43726  -0.43044  -0.42644  -0.42568  -0.42445
 Alpha  occ. eigenvalues --   -0.42363  -0.42241  -0.42120  -0.41957  -0.41568
 Alpha  occ. eigenvalues --   -0.41506  -0.41329  -0.39854  -0.39660  -0.39428
 Alpha  occ. eigenvalues --   -0.39375  -0.38993  -0.38316  -0.38032  -0.37990
 Alpha  occ. eigenvalues --   -0.37923  -0.37580  -0.37426  -0.37164  -0.36934
 Alpha  occ. eigenvalues --   -0.36802  -0.36571  -0.35951  -0.35895  -0.35573
 Alpha  occ. eigenvalues --   -0.35269  -0.35239  -0.34792  -0.34729  -0.34621
 Alpha  occ. eigenvalues --   -0.34489  -0.34194  -0.34057  -0.33945  -0.33898
 Alpha  occ. eigenvalues --   -0.33289  -0.32696  -0.31202  -0.29694  -0.29548
 Alpha  occ. eigenvalues --   -0.29104  -0.28685  -0.27788  -0.27414  -0.26725
 Alpha  occ. eigenvalues --   -0.26225  -0.25862  -0.25574  -0.25440  -0.25385
 Alpha  occ. eigenvalues --   -0.25335  -0.25033  -0.24730  -0.24625  -0.24337
 Alpha  occ. eigenvalues --   -0.24091  -0.23676  -0.23478  -0.22156  -0.18175
 Alpha virt. eigenvalues --   -0.06892  -0.06686  -0.04709  -0.03759  -0.02622
 Alpha virt. eigenvalues --   -0.00834  -0.00693  -0.00613  -0.00412  -0.00351
 Alpha virt. eigenvalues --   -0.00132   0.00014   0.00250   0.01521   0.02216

 Mulliken charges:
               1
     1  C   -0.660564
     2  Si   0.600057
     3  C   -0.657820
     4  C   -0.084256
     5  C   -0.188901
     6  C   -0.122286
     7  C   -0.143850
     8  C   -0.171691
     9  C    0.299631
    10  N   -0.649313
    11  C    0.276826
    12  N   -0.402070
    13  C   -0.005008
    14  C    0.039747
    15  C    0.038122
    16  C   -0.236951
    17  C    0.100089
    18  C    0.088496
    19  C   -0.173491
    20  C   -0.133500
    21  C   -0.125642
    22  C   -0.133803
    23  C   -0.172058
    24  C   -0.174981
    25  C   -0.185268
    26  C    0.052590
    27  C    0.058402
    28  C   -0.156651
    29  C   -0.132783
    30  C   -0.125450
    31  C   -0.138285
    32  C   -0.166217
    33  C   -0.162449
    34  C    0.125543
    35  C    0.400258
    36  N   -0.515383
    37  C    0.447414
    38  C    0.076829
    39  C   -0.155893
    40  C   -0.140266
    41  C   -0.115610
    42  C   -0.143357
    43  C   -0.165919
    44  N   -0.537311
    45  C    0.446757
    46  C    0.068337
    47  C   -0.160749
    48  C   -0.146288
    49  C   -0.115568
    50  C   -0.140572
    51  C   -0.155377
    52  N   -0.504537
    53  C    0.327494
    54  C   -0.154445
    55  C   -0.147421
    56  C   -0.128427
    57  C   -0.190594
    58  C   -0.093581
    59  H    0.154281
    60  H    0.155777
    61  H    0.177267
    62  H    0.156547
    63  H    0.155861
    64  H    0.170627
    65  H    0.122733
    66  H    0.120610
    67  H    0.123379
    68  H    0.142089
    69  H    0.152010
    70  H    0.144175
    71  H    0.132801
    72  H    0.132665
    73  H    0.132404
    74  H    0.134072
    75  H    0.133477
    76  H    0.137807
    77  H    0.140739
    78  H    0.140638
    79  H    0.136145
    80  H    0.134202
    81  H    0.133351
    82  H    0.135744
    83  H    0.176516
    84  H    0.161588
    85  H    0.134137
    86  H    0.133131
    87  H    0.128906
    88  H    0.175480
    89  H    0.193349
    90  H    0.138290
    91  H    0.132603
    92  H    0.132231
    93  H    0.158622
    94  H    0.135796
    95  H    0.126418
    96  H    0.119880
    97  H    0.121639
 Sum of Mulliken charges =  -0.00000

 Dipole moment (field-independent basis, Debye):
    X=              1.2806    Y=              3.2331    Z=              0.4376  Tot=              3.5049
 Quadrupole moment (field-independent basis, Debye-Ang):
   XX=           -306.0311   YY=           -326.7190   ZZ=           -313.8768
   XY=              6.3143   XZ=             -3.1147   YZ=             11.4635

 Normal termination of Gaussian 16 at Sat Nov  5 11:08:18 2022.
