 Gaussian 16, Revision B.01,
 Gaussian 16:  ES64L-G16RevB.01 20-Dec-2017

 -----------------------------
 #p b3lyp/6-31g(d) opt SCF=XQC
 -----------------------------

 ------------------------------
 Gaussian input prepared by ASE
 ------------------------------
 Symbolic Z-matrix:
 Charge =  0 Multiplicity = 1

 SCF Done:  E(RB3LYP) =  -1959.33987439     A.U. after   15 cycles
 SCF Done:  E(RB3LYP) =  -1959.35048389     A.U. after   13 cycles
 SCF Done:  E(RB3LYP) =  -1959.35137534     A.U. after   12 cycles
 SCF Done:  E(RB3LYP) =  -1959.35163575     A.U. after   12 cycles
 SCF Done:  E(RB3LYP) =  -1959.35173189     A.U. after   11 cycles
 SCF Done:  E(RB3LYP) =  -1959.35177443     A.U. after   10 cycles
 SCF Done:  E(RB3LYP) =  -1959.35180307     A.U. after   10 cycles
 SCF Done:  E(RB3LYP) =  -1959.35181855     A.U. after   10 cycles
 SCF Done:  E(RB3LYP) =  -1959.35183028     A.U. after   10 cycles
 SCF Done:  E(RB3LYP) =  -1959.35184172     A.U. after   10 cycles
 SCF Done:  E(RB3LYP) =  -1959.35184487     A.U. after    9 cycles
 SCF Done:  E(RB3LYP) =  -1959.35184590     A.U. after    8 cycles
 SCF Done:  E(RB3LYP) =  -1959.35184659     A.U. after    8 cycles
 SCF Done:  E(RB3LYP) =  -1959.35184696     A.U. after    9 cycles
 SCF Done:  E(RB3LYP) =  -1959.35184734     A.U. after    9 cycles
 SCF Done:  E(RB3LYP) =  -1959.35184760     A.U. after    9 cycles
 SCF Done:  E(RB3LYP) =  -1959.35184778     A.U. after    7 cycles
 SCF Done:  E(RB3LYP) =  -1959.35184786     A.U. after    7 cycles
 SCF Done:  E(RB3LYP) =  -1959.35184788     A.U. after    6 cycles
 SCF Done:  E(RB3LYP) =  -1959.35184789     A.U. after    6 cycles
 Optimization completed.
    -- Stationary point found.

                         Standard orientation:
 ---------------------------------------------------------------------
 Center     Atomic      Atomic             Coordinates (Angstroms)
 Number     Number       Type             X           Y           Z
 ---------------------------------------------------------------------
      1          6           0        4.323942    8.181275    1.020037
      2          6           0        3.266190    7.261159    0.399062
      3          6           0        3.200069    5.854829    1.016110
      4          6           0        4.463781    5.000679    0.773548
      5          6           0        4.338480    3.610740    1.353262
      6          6           0        4.683148    3.338963    2.684425
      7          6           0        4.546333    2.038994    3.160843
      8          7           0        4.065577    1.022198    2.435892
      9          6           0        3.717810    1.281746    1.171084
     10          7           0        3.219974    0.195309    0.418689
     11          6           0        3.712376   -1.125818    0.459404
     12          6           0        4.725852   -1.691984    1.235523
     13          6           0        5.030532   -3.033275    1.027714
     14          6           0        4.365270   -3.841550    0.075496
     15          6           0        4.757718   -5.324133   -0.069076
     16          6           0        4.507010   -6.046445    1.277539
     17          6           0        3.923882   -6.048642   -1.143978
     18          6           0        6.271334   -5.456319   -0.415110
     19          6           0        6.724222   -4.792039   -1.719962
     20          6           0        3.357435   -3.248588   -0.687485
     21          6           0        3.028728   -1.899638   -0.502578
     22          6           0        2.059335   -1.030814   -1.135877
     23          6           0        1.086207   -1.232764   -2.120095
     24          6           0        0.258193   -0.182125   -2.499397
     25          6           0        0.390584    1.065602   -1.868191
     26          8           0       -0.372395    2.156682   -2.260324
     27          6           0       -1.744648    2.072711   -2.332700
     28          6           0       -2.370133    3.012429   -3.160075
     29          6           0       -3.758640    3.023619   -3.246719
     30          6           0       -4.531138    2.110892   -2.526101
     31          6           0       -3.892215    1.193344   -1.686005
     32          7           0       -4.637470    0.249317   -0.929730
     33          7           0       -4.133480   -1.011180   -0.787913
     34          6           0       -4.992983   -1.651221   -0.006065
     35          6           0       -4.756750   -3.092913    0.332783
     36          6           0       -6.080198   -0.805234    0.372688
     37          6           0       -7.236340   -1.142724    1.222538
     38          6           0       -8.541312   -0.762622    0.859609
     39          6           0       -9.634251   -1.078819    1.665951
     40          6           0       -9.450654   -1.793016    2.851079
     41          6           0       -8.162978   -2.184630    3.222724
     42          6           0       -7.069805   -1.860503    2.420718
     43          6           0       -5.812251    0.416961   -0.236857
     44          6           0       -6.534596    1.722601   -0.108354
     45          6           0       -2.496474    1.168362   -1.583222
     46          6           0        1.348000    1.303479   -0.885433
     47          6           0        2.199249    0.249118   -0.542190
     48          6           0        3.859495    2.548886    0.584165
     49          1           0        4.278641    9.183271    0.578843
     50          1           0        4.169068    8.287305    2.101161
     51          1           0        5.340957    7.803210    0.865499
     52          1           0        3.443998    7.173609   -0.682230
     53          1           0        2.279069    7.729711    0.506809
     54          1           0        3.022686    5.935158    2.097809
     55          1           0        2.334016    5.320941    0.603208
     56          1           0        5.336403    5.497704    1.213368
     57          1           0        4.646934    4.933761   -0.306832
     58          1           0        5.069750    4.121893    3.330981
     59          1           0        4.832113    1.794597    4.182643
     60          1           0        5.239178   -1.113127    1.991961
     61          1           0        5.814400   -3.471096    1.639082
     62          1           0        4.772755   -7.108170    1.199259
     63          1           0        5.101267   -5.613418    2.089101
     64          1           0        3.451698   -5.980128    1.565396
     65          1           0        2.858907   -6.056551   -0.885621
     66          1           0        4.251093   -7.091875   -1.223921
     67          1           0        4.026087   -5.593089   -2.133984
     68          1           0        6.514143   -6.527994   -0.449288
     69          1           0        6.860044   -5.043369    0.414090
     70          1           0        7.806973   -4.903365   -1.849483
     71          1           0        6.494801   -3.721098   -1.721792
     72          1           0        6.243624   -5.239142   -2.597177
     73          1           0        2.816461   -3.821767   -1.432483
     74          1           0        0.973786   -2.206288   -2.589132
     75          1           0       -0.494238   -0.316703   -3.268765
     76          1           0       -1.757357    3.708763   -3.722907
     77          1           0       -4.248871    3.738303   -3.901771
     78          1           0       -5.608091    2.092652   -2.641367
     79          1           0       -4.029709   -3.518376   -0.364134
     80          1           0       -4.357429   -3.215790    1.347443
     81          1           0       -5.684472   -3.672334    0.276371
     82          1           0       -8.699342   -0.234803   -0.076748
     83          1           0      -10.632727   -0.775633    1.361164
     84          1           0      -10.302305   -2.043888    3.477691
     85          1           0       -8.006817   -2.737820    4.145358
     86          1           0       -6.070631   -2.149219    2.733049
     87          1           0       -7.133432    1.714242    0.806467
     88          1           0       -7.219548    1.916595   -0.943697
     89          1           0       -5.834876    2.562914   -0.058433
     90          1           0       -2.024025    0.442517   -0.934518
     91          1           0        1.393662    2.278684   -0.417533
     92          1           0        3.629457    2.692810   -0.465888
 ---------------------------------------------------------------------

 The electronic state is 1-A.
 Alpha  occ. eigenvalues --  -19.18632 -14.40582 -14.38340 -14.33358 -14.33224
 Alpha  occ. eigenvalues --  -10.26876 -10.25404 -10.24766 -10.23720 -10.22870
 Alpha  occ. eigenvalues --  -10.22813 -10.22423 -10.21855 -10.21721 -10.20341
 Alpha  occ. eigenvalues --  -10.20075 -10.19867 -10.19774 -10.19746 -10.19715
 Alpha  occ. eigenvalues --  -10.19433 -10.19366 -10.19226 -10.19219 -10.19198
 Alpha  occ. eigenvalues --  -10.18971 -10.18912 -10.18899 -10.18859 -10.18720
 Alpha  occ. eigenvalues --  -10.18676 -10.18675 -10.18584 -10.18566 -10.18478
 Alpha  occ. eigenvalues --  -10.18441 -10.18260 -10.18127 -10.18013 -10.17859
 Alpha  occ. eigenvalues --  -10.17850 -10.17811 -10.17714 -10.17547 -10.17366
 Alpha  occ. eigenvalues --  -10.16714 -10.16629 -10.16403  -1.07488  -1.03804
 Alpha  occ. eigenvalues --   -0.99707  -0.93956  -0.87405  -0.85228  -0.84974
 Alpha  occ. eigenvalues --   -0.84692  -0.83412  -0.82750  -0.81165  -0.80198
 Alpha  occ. eigenvalues --   -0.79134  -0.78236  -0.76262  -0.75598  -0.74688
 Alpha  occ. eigenvalues --   -0.74552  -0.73985  -0.73543  -0.72950  -0.72769
 Alpha  occ. eigenvalues --   -0.71334  -0.71009  -0.70027  -0.69488  -0.67742
 Alpha  occ. eigenvalues --   -0.66388  -0.65486  -0.64021  -0.62985  -0.62644
 Alpha  occ. eigenvalues --   -0.61798  -0.60883  -0.60397  -0.60053  -0.59127
 Alpha  occ. eigenvalues --   -0.58171  -0.57412  -0.57195  -0.55831  -0.55203
 Alpha  occ. eigenvalues --   -0.53744  -0.52995  -0.52437  -0.51404  -0.50963
 Alpha  occ. eigenvalues --   -0.50191  -0.49839  -0.49070  -0.48545  -0.47627
 Alpha  occ. eigenvalues --   -0.47162  -0.46756  -0.46194  -0.46027  -0.45803
 Alpha  occ. eigenvalues --   -0.45153  -0.45007  -0.44648  -0.44199  -0.44038
 Alpha  occ. eigenvalues --   -0.43922  -0.43598  -0.43408  -0.42702  -0.42405
 Alpha  occ. eigenvalues --   -0.42314  -0.42279  -0.41876  -0.41727  -0.41529
 Alpha  occ. eigenvalues --   -0.41181  -0.40738  -0.40586  -0.40505  -0.40001
 Alpha  occ. eigenvalues --   -0.39579  -0.39325  -0.38813  -0.38704  -0.38646
 Alpha  occ. eigenvalues --   -0.38466  -0.38248  -0.37692  -0.37446  -0.37209
 Alpha  occ. eigenvalues --   -0.37150  -0.36493  -0.36372  -0.35813  -0.35622
 Alpha  occ. eigenvalues --   -0.35405  -0.35251  -0.34375  -0.34278  -0.33876
 Alpha  occ. eigenvalues --   -0.33834  -0.33722  -0.33528  -0.33473  -0.33359
 Alpha  occ. eigenvalues --   -0.33121  -0.32197  -0.31251  -0.30983  -0.30148
 Alpha  occ. eigenvalues --   -0.28100  -0.27703  -0.27532  -0.27025  -0.26541
 Alpha  occ. eigenvalues --   -0.26273  -0.25507  -0.24650  -0.24534  -0.23517
 Alpha  occ. eigenvalues --   -0.22530  -0.20777  -0.20000  -0.19617
 Alpha virt. eigenvalues --   -0.02828  -0.02417  -0.02078  -0.01814  -0.00164
 Alpha virt. eigenvalues --    0.00290   0.00342   0.01035   0.03768   0.03936
 Alpha virt. eigenvalues --    0.04739   0.07944   0.08251   0.08549   0.08701

 Mulliken charges:
               1
     1  C   -0.446548
     2  C   -0.249624
     3  C   -0.251120
     4  C   -0.352335
     5  C    0.192464
     6  C   -0.194846
     7  C    0.042242
     8  N   -0.474610
     9  C    0.469776
    10  N   -0.737228
    11  C    0.317432
    12  C   -0.152855
    13  C   -0.207696
    14  C    0.172255
    15  C    0.016926
    16  C   -0.441641
    17  C   -0.462946
    18  C   -0.245769
    19  C   -0.451307
    20  C   -0.280610
    21  C    0.065349
    22  C    0.067944
    23  C   -0.204991
    24  C   -0.177495
    25  C    0.344867
    26  O   -0.587308
    27  C    0.353408
    28  C   -0.169804
    29  C   -0.148637
    30  C   -0.160225
    31  C    0.303415
    32  N   -0.438010
    33  N   -0.363231
    34  C    0.326058
    35  C   -0.524525
    36  C   -0.153799
    37  C    0.089658
    38  C   -0.173935
    39  C   -0.134946
    40  C   -0.128177
    41  C   -0.135231
    42  C   -0.170717
    43  C    0.369234
    44  C   -0.532468
    45  C   -0.201237
    46  C   -0.237268
    47  C    0.316526
    48  C   -0.225917
    49  H    0.147770
    50  H    0.143072
    51  H    0.146519
    52  H    0.134483
    53  H    0.138833
    54  H    0.138020
    55  H    0.142039
    56  H    0.151585
    57  H    0.148094
    58  H    0.132878
    59  H    0.143755
    60  H    0.153692
    61  H    0.123035
    62  H    0.135068
    63  H    0.141279
    64  H    0.146739
    65  H    0.145172
    66  H    0.138766
    67  H    0.148597
    68  H    0.125130
    69  H    0.129114
    70  H    0.138706
    71  H    0.156956
    72  H    0.142208
    73  H    0.125334
    74  H    0.139265
    75  H    0.147425
    76  H    0.140762
    77  H    0.136070
    78  H    0.138007
    79  H    0.172094
    80  H    0.161016
    81  H    0.164361
    82  H    0.128305
    83  H    0.127947
    84  H    0.127741
    85  H    0.129238
    86  H    0.132469
    87  H    0.180350
    88  H    0.164849
    89  H    0.176127
    90  H    0.180969
    91  H    0.150152
    92  H    0.155512
 Sum of Mulliken charges =  -0.00000

 Dipole moment (field-independent basis, Debye):
    X=             -0.0348    Y=              3.6092    Z=              0.4680  Tot=              3.6396
 Quadrupole moment (field-independent basis, Debye-Ang):
   XX=           -256.1327   YY=           -255.5332   ZZ=           -275.3002
   XY=              3.8601   XZ=              5.2307   YZ=             -0.5623

 Normal termination of Gaussian 16 at Sat Nov  5 00:42:30 2022.
