 Gaussian 16, Revision B.01,
 Gaussian 16:  ES64L-G16RevB.01 20-Dec-2017

 -----------------------------
 #p b3lyp/6-31g(d) opt SCF=XQC
 -----------------------------

 ------------------------------
 Gaussian input prepared by ASE
 ------------------------------
 Symbolic Z-matrix:
 Charge =  0 Multiplicity = 1

 SCF Done:  E(RB3LYP) =  -1172.52901287     A.U. after   16 cycles
 SCF Done:  E(RB3LYP) =  -1172.53494495     A.U. after   12 cycles
 SCF Done:  E(RB3LYP) =  -1172.53503475     A.U. after   10 cycles
 SCF Done:  E(RB3LYP) =  -1172.53504031     A.U. after    8 cycles
 SCF Done:  E(RB3LYP) =  -1172.53504458     A.U. after    9 cycles
 SCF Done:  E(RB3LYP) =  -1172.53504874     A.U. after   10 cycles
 SCF Done:  E(RB3LYP) =  -1172.53505696     A.U. after   10 cycles
 SCF Done:  E(RB3LYP) =  -1172.53508301     A.U. after   12 cycles
 SCF Done:  E(RB3LYP) =  -1172.53511031     A.U. after   12 cycles
 SCF Done:  E(RB3LYP) =  -1172.53518950     A.U. after   13 cycles
 SCF Done:  E(RB3LYP) =  -1172.53573571     A.U. after   10 cycles
 SCF Done:  E(RB3LYP) =  -1172.53574355     A.U. after   10 cycles
 SCF Done:  E(RB3LYP) =  -1172.53575031     A.U. after   10 cycles
 SCF Done:  E(RB3LYP) =  -1172.53575719     A.U. after   10 cycles
 SCF Done:  E(RB3LYP) =  -1172.53575891     A.U. after    9 cycles
 SCF Done:  E(RB3LYP) =  -1172.53576045     A.U. after   10 cycles
 SCF Done:  E(RB3LYP) =  -1172.53576079     A.U. after    7 cycles
 SCF Done:  E(RB3LYP) =  -1172.53576130     A.U. after    9 cycles
 SCF Done:  E(RB3LYP) =  -1172.53576168     A.U. after    9 cycles
 SCF Done:  E(RB3LYP) =  -1172.53576177     A.U. after    7 cycles
 Optimization completed.
    -- Stationary point found.

                         Standard orientation:
 ---------------------------------------------------------------------
 Center     Atomic      Atomic             Coordinates (Angstroms)
 Number     Number       Type             X           Y           Z
 ---------------------------------------------------------------------
      1          6           0       -4.580404    3.493322    0.106438
      2          6           0       -3.103873    3.166102    0.077255
      3          6           0       -2.149849    4.204047    0.091590
      4          6           0       -0.780843    3.953064    0.064227
      5          6           0       -0.364689    2.621985    0.022805
      6          7           0        0.920579    2.102893   -0.013418
      7          6           0        0.870385    0.718560   -0.037964
      8          6           0        1.927893   -0.176855   -0.041461
      9          6           0        3.328331    0.334566   -0.011073
     10          6           0        3.816943    1.141194   -1.053557
     11          6           0        5.112626    1.659671   -1.012852
     12          6           0        5.946499    1.379447    0.070612
     13          6           0        5.475196    0.578553    1.113217
     14          6           0        4.179133    0.064654    1.074606
     15          6           0        1.599509   -1.567883   -0.056896
     16          6           0        2.609123   -2.572706   -0.111638
     17          6           0        2.294371   -3.911133   -0.130104
     18          6           0        0.942238   -4.326953   -0.099629
     19          6           0       -0.062467   -3.389749   -0.064185
     20          6           0        0.217472   -1.991764   -0.047176
     21          6           0       -0.838690   -1.028298   -0.029916
     22          6           0       -2.270502   -1.461681   -0.013395
     23          6           0       -2.926451   -1.720662    1.199311
     24          6           0       -4.267840   -2.106504    1.215320
     25          6           0       -4.973280   -2.241501    0.017982
     26          6           0       -4.329065   -1.991310   -1.195282
     27          6           0       -2.987728   -1.605252   -1.210492
     28          6           0       -0.510101    0.320560   -0.028126
     29          6           0       -1.293612    1.551840    0.008451
     30          6           0       -2.664768    1.840660    0.035579
     31          1           0       -5.187929    2.582836    0.102921
     32          1           0       -4.849980    4.068593    1.001526
     33          1           0       -4.879205    4.094536   -0.762058
     34          1           0       -2.494005    5.235599    0.125209
     35          1           0       -0.062704    4.768663    0.076269
     36          1           0        1.774249    2.636837    0.037151
     37          1           0        3.177814    1.346112   -1.908750
     38          1           0        5.472259    2.275605   -1.833156
     39          1           0        6.955896    1.780674    0.102381
     40          1           0        6.116063    0.358243    1.963055
     41          1           0        3.812850   -0.547467    1.894051
     42          1           0        3.648426   -2.264264   -0.149476
     43          1           0        3.088204   -4.652296   -0.175086
     44          1           0        0.698794   -5.385922   -0.112951
     45          1           0       -1.099195   -3.709164   -0.053197
     46          1           0       -2.379339   -1.613154    2.132004
     47          1           0       -4.761516   -2.300791    2.164011
     48          1           0       -6.017768   -2.541605    0.030178
     49          1           0       -4.870343   -2.096493   -2.131998
     50          1           0       -2.488110   -1.408283   -2.155153
     51          1           0       -3.391871    1.035649    0.025107
 ---------------------------------------------------------------------

 The electronic state is 1-A.
 Alpha  occ. eigenvalues --  -14.36796 -10.22363 -10.22057 -10.20273 -10.19593
 Alpha  occ. eigenvalues --  -10.19550 -10.19487 -10.19416 -10.19378 -10.19356
 Alpha  occ. eigenvalues --  -10.19329 -10.19209 -10.19140 -10.19077 -10.18974
 Alpha  occ. eigenvalues --  -10.18955 -10.18940 -10.18897 -10.18776 -10.18768
 Alpha  occ. eigenvalues --  -10.18542 -10.18410 -10.18368 -10.18242 -10.17963
 Alpha  occ. eigenvalues --  -10.17890 -10.17757 -10.17687 -10.17675 -10.17543
 Alpha  occ. eigenvalues --   -0.97466  -0.87000  -0.85909  -0.84655  -0.84002
 Alpha  occ. eigenvalues --   -0.81062  -0.79328  -0.76258  -0.75485  -0.74712
 Alpha  occ. eigenvalues --   -0.74500  -0.74188  -0.73350  -0.71498  -0.69824
 Alpha  occ. eigenvalues --   -0.67496  -0.64839  -0.61530  -0.60871  -0.60183
 Alpha  occ. eigenvalues --   -0.60011  -0.59525  -0.59323  -0.57017  -0.56075
 Alpha  occ. eigenvalues --   -0.53255  -0.52666  -0.51717  -0.50913  -0.48846
 Alpha  occ. eigenvalues --   -0.48009  -0.46081  -0.45663  -0.45181  -0.44798
 Alpha  occ. eigenvalues --   -0.44442  -0.44291  -0.43449  -0.42971  -0.42472
 Alpha  occ. eigenvalues --   -0.42315  -0.41991  -0.41722  -0.41292  -0.40978
 Alpha  occ. eigenvalues --   -0.40621  -0.40155  -0.38585  -0.37410  -0.36925
 Alpha  occ. eigenvalues --   -0.36425  -0.35942  -0.35468  -0.34799  -0.34711
 Alpha  occ. eigenvalues --   -0.34403  -0.34255  -0.34147  -0.32674  -0.32584
 Alpha  occ. eigenvalues --   -0.31248  -0.30205  -0.27743  -0.25802  -0.25428
 Alpha  occ. eigenvalues --   -0.24929  -0.24705  -0.24421  -0.22352  -0.20857
 Alpha  occ. eigenvalues --   -0.17906
 Alpha virt. eigenvalues --   -0.04358  -0.00830  -0.00556  -0.00384  -0.00088
 Alpha virt. eigenvalues --    0.00226   0.02593   0.03073   0.05097   0.09117
 Alpha virt. eigenvalues --    0.09667   0.10224   0.11022   0.11545   0.11986

 Mulliken charges:
               1
     1  C   -0.531918
     2  C    0.167757
     3  C   -0.188080
     4  C   -0.186143
     5  C    0.349496
     6  N   -0.838153
     7  C    0.283879
     8  C   -0.014012
     9  C    0.037630
    10  C   -0.178488
    11  C   -0.134748
    12  C   -0.126244
    13  C   -0.134713
    14  C   -0.153708
    15  C    0.080133
    16  C   -0.216703
    17  C   -0.134239
    18  C   -0.138511
    19  C   -0.208061
    20  C    0.097103
    21  C   -0.089437
    22  C    0.015042
    23  C   -0.144795
    24  C   -0.133474
    25  C   -0.127524
    26  C   -0.133560
    27  C   -0.145608
    28  C    0.053979
    29  C    0.071597
    30  C   -0.264398
    31  H    0.156484
    32  H    0.156087
    33  H    0.156186
    34  H    0.118979
    35  H    0.123886
    36  H    0.326704
    37  H    0.141000
    38  H    0.132776
    39  H    0.131743
    40  H    0.133639
    41  H    0.143292
    42  H    0.138061
    43  H    0.123779
    44  H    0.123437
    45  H    0.141551
    46  H    0.138345
    47  H    0.131610
    48  H    0.129782
    49  H    0.131676
    50  H    0.138544
    51  H    0.148338
 Sum of Mulliken charges =  -0.00000

 Dipole moment (field-independent basis, Debye):
    X=              0.6150    Y=              1.3484    Z=              0.1657  Tot=              1.4913
 Quadrupole moment (field-independent basis, Debye-Ang):
   XX=           -149.4437   YY=           -161.5708   ZZ=           -169.5347
   XY=              7.7205   XZ=              1.3255   YZ=             -2.3284

 1\1\GINC-NODE74\FOpt\RB3LYP\6-31G(d)\C29H21N1\WYKGROUP\05-Nov-2022\0\\
 #p b3lyp/6-31g(d) opt SCF=XQC\\Gaussian input prepared by ASE\\0,1\C,5
 .2564057405,-1.6906560169,-1.1480825258\C,3.7624276156,-1.8754632754,-
 0.9999540994\C,3.1842824441,-3.1454432934,-1.2014463311\C,1.8150966921
 ,-3.3646667634,-1.0782048897\C,1.0100903592,-2.2758044863,-0.742029759
 5\N,-0.363615936,-2.2198849095,-0.5617886056\C,-0.7435974653,-0.931143
 5677,-0.2237667623\C,-2.013435906,-0.4627421779,0.0732413904\C,-3.1705
 766043,-1.4031269231,0.0531356806\C,-3.5329957279,-2.0644474467,-1.133

 Normal termination of Gaussian 16 at Sat Nov  5 00:22:03 2022.
