 Gaussian 16, Revision B.01,
 Gaussian 16:  ES64L-G16RevB.01 20-Dec-2017

 -------------------------------------------------------------------
 #p b3lyp/6-31g(d) 6D 10F nosymm GFInput td=(50-50,nstate=2) SCF=XQC
 -------------------------------------------------------------------

 ------------------------------
 Gaussian input prepared by ASE
 ------------------------------
 Symbolic Z-matrix:
 Charge =  0 Multiplicity = 1

                          Input orientation:
 ---------------------------------------------------------------------
 Center     Atomic      Atomic             Coordinates (Angstroms)
 Number     Number       Type             X           Y           Z
 ---------------------------------------------------------------------
      1          6           0        5.256406   -1.690656   -1.148083
      2          6           0        3.762428   -1.875463   -0.999954
      3          6           0        3.184282   -3.145443   -1.201446
      4          6           0        1.815097   -3.364667   -1.078205
      5          6           0        1.010090   -2.275804   -0.742030
      6          7           0       -0.363616   -2.219885   -0.561789
      7          6           0       -0.743597   -0.931144   -0.223767
      8          6           0       -2.013436   -0.462742    0.073241
      9          6           0       -3.170577   -1.403127    0.053136
     10          6           0       -3.532996   -2.064447   -1.133232
     11          6           0       -4.587908   -2.978828   -1.151649
     12          6           0       -5.303159   -3.248112    0.016111
     13          6           0       -4.955258   -2.597818    1.202141
     14          6           0       -3.898287   -1.687980    1.221345
     15          6           0       -2.132340    0.922515    0.404838
     16          6           0       -3.397936    1.518677    0.678415
     17          6           0       -3.514005    2.851977    0.994068
     18          6           0       -2.364342    3.674889    1.050526
     19          6           0       -1.126828    3.143379    0.776484
     20          6           0       -0.959975    1.767501    0.441616
     21          6           0        0.331399    1.233241    0.140011
     22          6           0        1.548678    2.101908    0.182805
     23          6           0        2.260606    2.278824    1.378570
     24          6           0        3.407261    3.074056    1.413859
     25          6           0        3.858226    3.706611    0.253689
     26          6           0        3.154569    3.541766   -0.941012
     27          6           0        2.008145    2.746170   -0.975591
     28          6           0        0.435247   -0.110376   -0.193600
     29          6           0        1.554753   -0.984708   -0.530542
     30          6           0        2.937510   -0.799330   -0.664109
     31          1           0        5.549004   -0.654949   -0.948631
     32          1           0        5.814506   -2.332553   -0.454338
     33          1           0        5.597134   -1.942190   -2.160832
     34          1           0        3.828733   -3.982436   -1.461831
     35          1           0        1.390573   -4.352295   -1.237706
     36          1           0       -0.996378   -3.003737   -0.601731
     37          1           0       -2.991354   -1.843353   -2.049514
     38          1           0       -4.855453   -3.473766   -2.081739
     39          1           0       -6.125799   -3.958009    0.002528
     40          1           0       -5.504014   -2.804183    2.117429
     41          1           0       -3.623439   -1.194124    2.149197
     42          1           0       -4.287099    0.899682    0.624086
     43          1           0       -4.494420    3.276431    1.194422
     44          1           0       -2.461251    4.727647    1.301852
     45          1           0       -0.247296    3.777714    0.808011
     46          1           0        1.912301    1.784732    2.281544
     47          1           0        3.948420    3.198381    2.348293
     48          1           0        4.751146    4.325583    0.280819
     49          1           0        3.497519    4.032714   -1.848116
     50          1           0        1.462792    2.616493   -1.906491
     51          1           0        3.373935    0.181233   -0.506432
 ---------------------------------------------------------------------

 SCF Done:  E(RB3LYP) =  -1172.53576452     A.U. after   15 cycles

 Excitation energies and oscillator strengths:

 Excited state symmetry could not be determined.
 Excited State   1:      Triplet-?Sym    2.2100 eV  561.03 nm  f=0.0000  <S**2>=2.000
      99 ->102        -0.11293
     100 ->102         0.14304
     101 ->102         0.65564
 This state for optimization and/or second-order correction.
 Total Energy, E(TD-HF/TD-DFT) =  -1172.45455020
 Copying the excited state density for this state as the 1-particle RhoCI density.

 Excited state symmetry could not be determined.
 Excited State   2:      Triplet-?Sym    3.1381 eV  395.09 nm  f=0.0000  <S**2>=2.000
     100 ->102         0.62436
     100 ->103         0.10348
     101 ->102        -0.17830

 Excited state symmetry could not be determined.
 Excited State   3:      Singlet-?Sym    3.2261 eV  384.32 nm  f=0.1254  <S**2>=0.000
     101 ->102         0.69087

 Excited state symmetry could not be determined.
 Excited State   4:      Singlet-?Sym    3.8563 eV  321.51 nm  f=0.0310  <S**2>=0.000
     100 ->102         0.51275
     101 ->103        -0.32613
     101 ->104        -0.10467
     101 ->105         0.27051
     101 ->107        -0.13707

 Alpha  occ. eigenvalues --  -14.36796 -10.22363 -10.22057 -10.20273 -10.19593
 Alpha  occ. eigenvalues --  -10.19550 -10.19487 -10.19415 -10.19378 -10.19356
 Alpha  occ. eigenvalues --  -10.19329 -10.19209 -10.19140 -10.19076 -10.18974
 Alpha  occ. eigenvalues --  -10.18955 -10.18940 -10.18897 -10.18776 -10.18768
 Alpha  occ. eigenvalues --  -10.18542 -10.18410 -10.18368 -10.18242 -10.17963
 Alpha  occ. eigenvalues --  -10.17890 -10.17757 -10.17687 -10.17675 -10.17543
 Alpha  occ. eigenvalues --   -0.97466  -0.87000  -0.85909  -0.84655  -0.84002
 Alpha  occ. eigenvalues --   -0.81062  -0.79328  -0.76258  -0.75485  -0.74712
 Alpha  occ. eigenvalues --   -0.74500  -0.74188  -0.73350  -0.71498  -0.69824
 Alpha  occ. eigenvalues --   -0.67496  -0.64839  -0.61530  -0.60871  -0.60183
 Alpha  occ. eigenvalues --   -0.60011  -0.59525  -0.59323  -0.57017  -0.56075
 Alpha  occ. eigenvalues --   -0.53255  -0.52666  -0.51717  -0.50913  -0.48846
 Alpha  occ. eigenvalues --   -0.48009  -0.46081  -0.45663  -0.45181  -0.44798
 Alpha  occ. eigenvalues --   -0.44442  -0.44291  -0.43449  -0.42971  -0.42472
 Alpha  occ. eigenvalues --   -0.42315  -0.41991  -0.41722  -0.41292  -0.40978
 Alpha  occ. eigenvalues --   -0.40621  -0.40155  -0.38585  -0.37410  -0.36925
 Alpha  occ. eigenvalues --   -0.36425  -0.35942  -0.35468  -0.34799  -0.34711
 Alpha  occ. eigenvalues --   -0.34403  -0.34255  -0.34147  -0.32674  -0.32584
 Alpha  occ. eigenvalues --   -0.31248  -0.30205  -0.27743  -0.25802  -0.25428
 Alpha  occ. eigenvalues --   -0.24929  -0.24705  -0.24421  -0.22352  -0.20857
 Alpha  occ. eigenvalues --   -0.17906
 Alpha virt. eigenvalues --   -0.04358  -0.00830  -0.00556  -0.00384  -0.00088
 Alpha virt. eigenvalues --    0.00226   0.02593   0.03073   0.05097   0.09117
 Alpha virt. eigenvalues --    0.09667   0.10224   0.11022   0.11545   0.11986

 Mulliken charges:
               1
     1  C   -0.531912
     2  C    0.167753
     3  C   -0.188081
     4  C   -0.186147
     5  C    0.349491
     6  N   -0.838151
     7  C    0.283871
     8  C   -0.013995
     9  C    0.037616
    10  C   -0.178493
    11  C   -0.134743
    12  C   -0.126248
    13  C   -0.134711
    14  C   -0.153699
    15  C    0.080130
    16  C   -0.216707
    17  C   -0.134236
    18  C   -0.138513
    19  C   -0.208063
    20  C    0.097114
    21  C   -0.089425
    22  C    0.015028
    23  C   -0.144799
    24  C   -0.133474
    25  C   -0.127518
    26  C   -0.133570
    27  C   -0.145603
    28  C    0.053992
    29  C    0.071579
    30  C   -0.264391
    31  H    0.156484
    32  H    0.156086
    33  H    0.156184
    34  H    0.118981
    35  H    0.123887
    36  H    0.326704
    37  H    0.141000
    38  H    0.132776
    39  H    0.131743
    40  H    0.133639
    41  H    0.143290
    42  H    0.138062
    43  H    0.123779
    44  H    0.123437
    45  H    0.141551
    46  H    0.138347
    47  H    0.131610
    48  H    0.129783
    49  H    0.131676
    50  H    0.138545
    51  H    0.148341
 Sum of Mulliken charges =  -0.00000

 Dipole moment (field-independent basis, Debye):
    X=             -0.1424    Y=             -1.4760    Z=             -0.1582  Tot=              1.4912
 Quadrupole moment (field-independent basis, Debye-Ang):
   XX=           -155.9630   YY=           -156.7482   ZZ=           -167.8024
   XY=             10.8135   XZ=             -1.4950   YZ=              3.2993

 Normal termination of Gaussian 16 at Sat Nov  5 10:07:21 2022.
