 Gaussian 16, Revision B.01,
 Gaussian 16:  ES64L-G16RevB.01 20-Dec-2017

 -----------------------------
 #p b3lyp/6-31g(d) opt SCF=XQC
 -----------------------------

 ------------------------------
 Gaussian input prepared by ASE
 ------------------------------
 Symbolic Z-matrix:
 Charge =  0 Multiplicity = 1

 SCF Done:  E(RB3LYP) =  -1521.84736015     A.U. after   16 cycles
 SCF Done:  E(RB3LYP) =  -1521.85463917     A.U. after   13 cycles
 SCF Done:  E(RB3LYP) =  -1521.85498845     A.U. after   12 cycles
 SCF Done:  E(RB3LYP) =  -1521.85532600     A.U. after   11 cycles
 SCF Done:  E(RB3LYP) =  -1521.85536632     A.U. after   10 cycles
 SCF Done:  E(RB3LYP) =  -1521.85537772     A.U. after    9 cycles
 SCF Done:  E(RB3LYP) =  -1521.85538301     A.U. after    9 cycles
 SCF Done:  E(RB3LYP) =  -1521.85538603     A.U. after    9 cycles
 SCF Done:  E(RB3LYP) =  -1521.85538730     A.U. after    8 cycles
 SCF Done:  E(RB3LYP) =  -1521.85538899     A.U. after    8 cycles
 SCF Done:  E(RB3LYP) =  -1521.85539039     A.U. after    8 cycles
 SCF Done:  E(RB3LYP) =  -1521.85539162     A.U. after    8 cycles
 SCF Done:  E(RB3LYP) =  -1521.85539255     A.U. after    8 cycles
 SCF Done:  E(RB3LYP) =  -1521.85539277     A.U. after    7 cycles
 SCF Done:  E(RB3LYP) =  -1521.85539287     A.U. after    7 cycles
 SCF Done:  E(RB3LYP) =  -1521.85539291     A.U. after    6 cycles
 SCF Done:  E(RB3LYP) =  -1521.85539293     A.U. after    7 cycles
 Optimization completed.
    -- Stationary point found.

                         Standard orientation:
 ---------------------------------------------------------------------
 Center     Atomic      Atomic             Coordinates (Angstroms)
 Number     Number       Type             X           Y           Z
 ---------------------------------------------------------------------
      1          6           0        6.966605   -0.659163    0.101743
      2          6           0        6.155619   -0.145317    1.115822
      3          6           0        4.772851   -0.325761    1.069379
      4          6           0        4.199648   -1.007625   -0.009935
      5          7           0        2.788295   -1.201682   -0.063342
      6          6           0        2.119283   -2.437924    0.039753
      7          6           0        2.673485   -3.715934    0.094319
      8          6           0        1.810669   -4.798823    0.241787
      9          6           0        0.421835   -4.607999    0.343683
     10          6           0       -0.136952   -3.336231    0.296698
     11          6           0        0.704461   -2.221128    0.135573
     12          6           0        0.546966   -0.798828    0.060134
     13          6           0        1.800499   -0.241394   -0.032125
     14          7           0        1.687721    1.136133   -0.024991
     15          6           0        2.333863    2.371014   -0.137183
     16          6           0        3.665166    2.747506   -0.298578
     17          6           0        3.929860    4.115292   -0.372426
     18          6           0        2.897114    5.065981   -0.288265
     19          6           0        1.566956    4.682995   -0.134542
     20          6           0        1.269213    3.318195   -0.062429
     21          7           0        0.025205    2.705539    0.073605
     22          6           0        0.321192    1.432945    0.081296
     23          7           0       -0.402152    0.249869    0.132561
     24          6           0       -1.807255    0.160651    0.052866
     25          6           0       -2.428680   -0.894481   -0.623883
     26          6           0       -3.815667   -0.946204   -0.657161
     27          6           0       -4.552741    0.067222   -0.028181
     28          6           0       -6.039422    0.050121   -0.034800
     29          6           0       -6.772897    1.080040    0.574164
     30          6           0       -8.162288    1.020807    0.542864
     31          6           0       -8.780503   -0.056820   -0.092327
     32          6           0       -7.965926   -1.031873   -0.670360
     33          7           0       -6.631666   -0.991357   -0.648341
     34          7           0       -3.952390    1.094800    0.599441
     35          6           0       -2.623661    1.141406    0.641959
     36          6           0        5.007788   -1.517826   -1.031794
     37          6           0        6.390849   -1.348522   -0.967717
     38          1           0        8.043384   -0.522981    0.144824
     39          1           0        6.598294    0.388036    1.952160
     40          1           0        4.137048    0.052621    1.864078
     41          1           0        3.747548   -3.859136    0.034691
     42          1           0        2.221140   -5.803270    0.287915
     43          1           0       -0.228153   -5.469180    0.469863
     44          1           0       -1.208395   -3.206859    0.404425
     45          1           0        4.462186    2.016086   -0.368818
     46          1           0        4.955656    4.448690   -0.501141
     47          1           0        3.143299    6.122549   -0.349434
     48          1           0        0.766648    5.414057   -0.076626
     49          1           0       -1.833967   -1.647453   -1.129970
     50          1           0       -4.341009   -1.743336   -1.169343
     51          1           0       -6.241660    1.894458    1.052004
     52          1           0       -8.754911    1.805015    1.006782
     53          1           0       -9.861837   -0.143187   -0.141112
     54          1           0       -8.408022   -1.889249   -1.176238
     55          1           0       -2.174014    1.993182    1.142880
     56          1           0        4.547176   -2.031994   -1.869563
     57          1           0        7.016920   -1.745092   -1.761910
 ---------------------------------------------------------------------

 The electronic state is 1-A.
 Alpha  occ. eigenvalues --  -14.41224 -14.40826 -14.40727 -14.32918 -14.32560
 Alpha  occ. eigenvalues --  -14.31290 -10.28898 -10.27199 -10.25528 -10.24561
 Alpha  occ. eigenvalues --  -10.23588 -10.22883 -10.22792 -10.22450 -10.22345
 Alpha  occ. eigenvalues --  -10.22028 -10.21955 -10.21514 -10.21490 -10.21393
 Alpha  occ. eigenvalues --  -10.21376 -10.21229 -10.21095 -10.21012 -10.20756
 Alpha  occ. eigenvalues --  -10.20343 -10.19725 -10.19528 -10.19486 -10.19374
 Alpha  occ. eigenvalues --  -10.19173 -10.19061 -10.18937 -10.18840 -10.18289
 Alpha  occ. eigenvalues --  -10.18144 -10.18059  -1.06763  -1.00680  -0.97227
 Alpha  occ. eigenvalues --   -0.94721  -0.93001  -0.90893  -0.88100  -0.84962
 Alpha  occ. eigenvalues --   -0.83888  -0.81594  -0.80147  -0.79639  -0.78446
 Alpha  occ. eigenvalues --   -0.77050  -0.76332  -0.75808  -0.74344  -0.73629
 Alpha  occ. eigenvalues --   -0.72374  -0.71568  -0.66791  -0.65739  -0.65357
 Alpha  occ. eigenvalues --   -0.63941  -0.63444  -0.62048  -0.61944  -0.60566
 Alpha  occ. eigenvalues --   -0.60084  -0.58918  -0.57659  -0.57475  -0.55297
 Alpha  occ. eigenvalues --   -0.53714  -0.52855  -0.52760  -0.51728  -0.50687
 Alpha  occ. eigenvalues --   -0.50146  -0.49622  -0.48621  -0.48215  -0.47577
 Alpha  occ. eigenvalues --   -0.47259  -0.46135  -0.45672  -0.44938  -0.44517
 Alpha  occ. eigenvalues --   -0.44497  -0.44113  -0.43735  -0.43375  -0.43048
 Alpha  occ. eigenvalues --   -0.42805  -0.42110  -0.41697  -0.41519  -0.41283
 Alpha  occ. eigenvalues --   -0.39718  -0.39463  -0.38643  -0.38255  -0.38214
 Alpha  occ. eigenvalues --   -0.37313  -0.36978  -0.36709  -0.36061  -0.35776
 Alpha  occ. eigenvalues --   -0.35448  -0.35135  -0.34955  -0.32774  -0.31574
 Alpha  occ. eigenvalues --   -0.29563  -0.28615  -0.27988  -0.27538  -0.27367
 Alpha  occ. eigenvalues --   -0.27225  -0.26814  -0.26125  -0.24593  -0.24563
 Alpha  occ. eigenvalues --   -0.23264  -0.22590  -0.20826  -0.18041
 Alpha virt. eigenvalues --   -0.04923  -0.02982  -0.02573  -0.02450  -0.01914
 Alpha virt. eigenvalues --   -0.00692  -0.00060   0.01095   0.02594   0.03290
 Alpha virt. eigenvalues --    0.06974   0.07634   0.08315   0.09379   0.09951

 Mulliken charges:
               1
     1  C   -0.118766
     2  C   -0.141088
     3  C   -0.144761
     4  C    0.233693
     5  N   -0.705384
     6  C    0.286288
     7  C   -0.176491
     8  C   -0.147451
     9  C   -0.144294
    10  C   -0.205685
    11  C    0.138718
    12  C    0.208222
    13  C    0.558531
    14  N   -0.722403
    15  C    0.302079
    16  C   -0.156108
    17  C   -0.161802
    18  C   -0.135648
    19  C   -0.195980
    20  C    0.240036
    21  N   -0.609945
    22  C    0.774769
    23  N   -0.793675
    24  C    0.283057
    25  C   -0.138601
    26  C   -0.172592
    27  C    0.264698
    28  C    0.261750
    29  C   -0.152455
    30  C   -0.103184
    31  C   -0.143722
    32  C    0.043032
    33  N   -0.495872
    34  N   -0.504469
    35  C    0.024515
    36  C   -0.143422
    37  C   -0.141806
    38  H    0.142638
    39  H    0.148017
    40  H    0.158697
    41  H    0.142135
    42  H    0.128878
    43  H    0.129482
    44  H    0.143013
    45  H    0.147979
    46  H    0.124137
    47  H    0.125028
    48  H    0.139970
    49  H    0.163452
    50  H    0.169988
    51  H    0.169401
    52  H    0.142963
    53  H    0.137059
    54  H    0.137799
    55  H    0.183026
    56  H    0.157076
    57  H    0.145480
 Sum of Mulliken charges =  -0.00000

 Dipole moment (field-independent basis, Debye):
    X=              3.7806    Y=             -2.3924    Z=              0.0248  Tot=              4.4741
 Quadrupole moment (field-independent basis, Debye-Ang):
   XX=           -157.9809   YY=           -205.8747   ZZ=           -210.4184
   XY=             -3.3160   XZ=             -2.2298   YZ=              4.8315

 1\1\GINC-NODE86\FOpt\RB3LYP\6-31G(d)\C31H20N6\WYKGROUP\05-Nov-2022\0\\
 #p b3lyp/6-31g(d) opt SCF=XQC\\Gaussian input prepared by ASE\\0,1\C,-
 6.8662400257,-0.3951092141,-0.0380756895\C,-6.062951468,0.3134465221,-
 0.9340502893\C,-4.6852772732,0.0950821659,-0.9671326392\C,-4.108705860
 4,-0.8239644345,-0.0831989356\N,-2.7027060857,-1.0578142008,-0.1133182
 193\C,-2.0719949033,-2.2549301454,-0.5078017393\C,-2.6638540673,-3.475
 1500693,-0.8305915313\C,-1.8360065171,-4.517422967,-1.2394714718\C,-0.
 4447846226,-4.3409972623,-1.3345066012\C,0.1513119377,-3.1252711843,-1

 Normal termination of Gaussian 16 at Sat Nov  5 00:16:47 2022.
