 Gaussian 16, Revision B.01,
 Gaussian 16:  ES64L-G16RevB.01 20-Dec-2017

 -------------------------------------------------------------------
 #p b3lyp/6-31g(d) 6D 10F nosymm GFInput td=(50-50,nstate=2) SCF=XQC
 -------------------------------------------------------------------

 ------------------------------
 Gaussian input prepared by ASE
 ------------------------------
 Symbolic Z-matrix:
 Charge =  0 Multiplicity = 1

                          Input orientation:
 ---------------------------------------------------------------------
 Center     Atomic      Atomic             Coordinates (Angstroms)
 Number     Number       Type             X           Y           Z
 ---------------------------------------------------------------------
      1          6           0       -6.866240   -0.395109   -0.038076
      2          6           0       -6.062951    0.313447   -0.934050
      3          6           0       -4.685277    0.095082   -0.967133
      4          6           0       -4.108706   -0.823964   -0.083199
      5          7           0       -2.702706   -1.057814   -0.113318
      6          6           0       -2.071995   -2.254930   -0.507802
      7          6           0       -2.663854   -3.475150   -0.830592
      8          6           0       -1.836007   -4.517423   -1.239471
      9          6           0       -0.444785   -4.340997   -1.334507
     10          6           0        0.151312   -3.125271   -1.020622
     11          6           0       -0.653922   -2.055159   -0.591844
     12          6           0       -0.453901   -0.689783   -0.205615
     13          6           0       -1.688552   -0.138091    0.043102
     14          7           0       -1.536298    1.203159    0.340120
     15          6           0       -2.143997    2.396382    0.742534
     16          6           0       -3.460085    2.758115    1.020429
     17          6           0       -3.683583    4.080546    1.404592
     18          6           0       -2.625933    5.001708    1.506042
     19          6           0       -1.311010    4.631958    1.234208
     20          6           0       -1.054360    3.311281    0.851489
     21          7           0        0.168232    2.715787    0.548069
     22          6           0       -0.164408    1.484361    0.265047
     23          7           0        0.523256    0.326200   -0.068577
     24          6           0        1.926601    0.188774   -0.049538
     25          6           0        2.531879   -1.005108    0.357580
     26          6           0        3.917194   -1.095201    0.340247
     27          6           0        4.669365    0.015773   -0.067065
     28          6           0        6.154730   -0.036941   -0.105406
     29          6           0        6.904212    1.085712   -0.489437
     30          6           0        8.291671    0.988689   -0.510439
     31          6           0        8.892192   -0.217747   -0.148744
     32          6           0        8.062570   -1.278138    0.219614
     33          7           0        6.729869   -1.202709    0.243966
     34          7           0        4.085418    1.171333   -0.433034
     35          6           0        2.757974    1.257150   -0.427451
     36          6           0       -4.908876   -1.530773    0.821091
     37          6           0       -6.287546   -1.319314    0.834514
     38          1           0       -7.939327   -0.227741   -0.020018
     39          1           0       -6.508094    1.030424   -1.617920
     40          1           0       -4.056206    0.626667   -1.674702
     41          1           0       -3.740053   -3.603043   -0.774804
     42          1           0       -2.276161   -5.476310   -1.497017
     43          1           0        0.177224   -5.167046   -1.667352
     44          1           0        1.223452   -3.000041   -1.126290
     45          1           0       -4.276145    2.048242    0.947795
     46          1           0       -4.696313    4.400489    1.632614
     47          1           0       -2.840179    6.023288    1.807964
     48          1           0       -0.491407    5.338651    1.318680
     49          1           0        1.926821   -1.838129    0.699275
     50          1           0        4.430321   -1.998659    0.647165
     51          1           0        6.386437    1.998474   -0.758874
     52          1           0        8.896455    1.842766   -0.804022
     53          1           0        9.971391   -0.337956   -0.150264
     54          1           0        8.490633   -2.236954    0.509253
     55          1           0        2.322313    2.209576   -0.713300
     56          1           0       -4.445224   -2.229795    1.510137
     57          1           0       -6.907426   -1.868735    1.537267
 ---------------------------------------------------------------------

 SCF Done:  E(RB3LYP) =  -1521.85539204     A.U. after   15 cycles

 Excitation energies and oscillator strengths:

 Excited state symmetry could not be determined.
 Excited State   1:      Triplet-?Sym    2.6435 eV  469.01 nm  f=0.0000  <S**2>=2.000
     121 ->125         0.21254
     123 ->125        -0.13686
     124 ->125         0.60763
     124 ->129         0.14854
 This state for optimization and/or second-order correction.
 Total Energy, E(TD-HF/TD-DFT) =  -1521.75824361
 Copying the excited state density for this state as the 1-particle RhoCI density.

 Excited state symmetry could not be determined.
 Excited State   2:      Triplet-?Sym    2.9851 eV  415.34 nm  f=0.0000  <S**2>=2.000
     121 ->125        -0.20113
     122 ->129        -0.11145
     123 ->125         0.19441
     123 ->129         0.13725
     124 ->126        -0.25090
     124 ->129         0.51208

 Excited state symmetry could not be determined.
 Excited State   3:      Singlet-?Sym    3.1462 eV  394.08 nm  f=0.3427  <S**2>=0.000
     124 ->125         0.70259

 Excited state symmetry could not be determined.
 Excited State   4:      Singlet-?Sym    3.5327 eV  350.96 nm  f=0.0181  <S**2>=0.000
     124 ->126         0.69594

 Alpha  occ. eigenvalues --  -14.41224 -14.40826 -14.40727 -14.32918 -14.32560
 Alpha  occ. eigenvalues --  -14.31290 -10.28898 -10.27199 -10.25528 -10.24561
 Alpha  occ. eigenvalues --  -10.23588 -10.22883 -10.22792 -10.22450 -10.22345
 Alpha  occ. eigenvalues --  -10.22028 -10.21955 -10.21514 -10.21490 -10.21393
 Alpha  occ. eigenvalues --  -10.21376 -10.21229 -10.21095 -10.21011 -10.20756
 Alpha  occ. eigenvalues --  -10.20343 -10.19725 -10.19528 -10.19486 -10.19374
 Alpha  occ. eigenvalues --  -10.19173 -10.19061 -10.18937 -10.18840 -10.18289
 Alpha  occ. eigenvalues --  -10.18144 -10.18059  -1.06763  -1.00680  -0.97227
 Alpha  occ. eigenvalues --   -0.94721  -0.93001  -0.90893  -0.88100  -0.84962
 Alpha  occ. eigenvalues --   -0.83888  -0.81594  -0.80147  -0.79639  -0.78446
 Alpha  occ. eigenvalues --   -0.77050  -0.76332  -0.75808  -0.74344  -0.73629
 Alpha  occ. eigenvalues --   -0.72374  -0.71568  -0.66791  -0.65739  -0.65357
 Alpha  occ. eigenvalues --   -0.63941  -0.63444  -0.62048  -0.61944  -0.60566
 Alpha  occ. eigenvalues --   -0.60084  -0.58918  -0.57659  -0.57475  -0.55297
 Alpha  occ. eigenvalues --   -0.53714  -0.52855  -0.52760  -0.51728  -0.50687
 Alpha  occ. eigenvalues --   -0.50146  -0.49622  -0.48621  -0.48215  -0.47577
 Alpha  occ. eigenvalues --   -0.47259  -0.46135  -0.45672  -0.44938  -0.44517
 Alpha  occ. eigenvalues --   -0.44497  -0.44113  -0.43735  -0.43375  -0.43048
 Alpha  occ. eigenvalues --   -0.42805  -0.42110  -0.41697  -0.41519  -0.41283
 Alpha  occ. eigenvalues --   -0.39718  -0.39463  -0.38643  -0.38255  -0.38214
 Alpha  occ. eigenvalues --   -0.37313  -0.36978  -0.36709  -0.36061  -0.35776
 Alpha  occ. eigenvalues --   -0.35448  -0.35135  -0.34955  -0.32774  -0.31574
 Alpha  occ. eigenvalues --   -0.29563  -0.28615  -0.27988  -0.27538  -0.27367
 Alpha  occ. eigenvalues --   -0.27225  -0.26814  -0.26125  -0.24593  -0.24563
 Alpha  occ. eigenvalues --   -0.23264  -0.22590  -0.20826  -0.18041
 Alpha virt. eigenvalues --   -0.04923  -0.02982  -0.02573  -0.02450  -0.01914
 Alpha virt. eigenvalues --   -0.00692  -0.00060   0.01095   0.02594   0.03290
 Alpha virt. eigenvalues --    0.06974   0.07634   0.08315   0.09379   0.09951

 Mulliken charges:
               1
     1  C   -0.118767
     2  C   -0.141082
     3  C   -0.144779
     4  C    0.233731
     5  N   -0.705394
     6  C    0.286270
     7  C   -0.176484
     8  C   -0.147452
     9  C   -0.144293
    10  C   -0.205680
    11  C    0.138703
    12  C    0.208217
    13  C    0.558562
    14  N   -0.722419
    15  C    0.302068
    16  C   -0.156113
    17  C   -0.161801
    18  C   -0.135646
    19  C   -0.195984
    20  C    0.240038
    21  N   -0.609972
    22  C    0.774800
    23  N   -0.793642
    24  C    0.283026
    25  C   -0.138588
    26  C   -0.172601
    27  C    0.264708
    28  C    0.261756
    29  C   -0.152457
    30  C   -0.103183
    31  C   -0.143721
    32  C    0.043030
    33  N   -0.495875
    34  N   -0.504477
    35  C    0.024520
    36  C   -0.143434
    37  C   -0.141808
    38  H    0.142637
    39  H    0.148017
    40  H    0.158698
    41  H    0.142135
    42  H    0.128878
    43  H    0.129481
    44  H    0.143012
    45  H    0.147982
    46  H    0.124137
    47  H    0.125028
    48  H    0.139971
    49  H    0.163452
    50  H    0.169989
    51  H    0.169401
    52  H    0.142963
    53  H    0.137059
    54  H    0.137798
    55  H    0.183025
    56  H    0.157080
    57  H    0.145481
 Sum of Mulliken charges =  -0.00000

 Dipole moment (field-independent basis, Debye):
    X=             -3.8475    Y=             -2.2378    Z=             -0.4533  Tot=              4.4740
 Quadrupole moment (field-independent basis, Debye-Ang):
   XX=           -158.8577   YY=           -204.4239   ZZ=           -212.1872
   XY=              2.0620   XZ=             -3.1228   YZ=             -3.4597

 Normal termination of Gaussian 16 at Sat Nov  5 10:14:27 2022.
