 Gaussian 16, Revision B.01,
 Gaussian 16:  ES64L-G16RevB.01 20-Dec-2017

 -----------------------------
 #p b3lyp/6-31g(d) opt SCF=XQC
 -----------------------------

 ------------------------------
 Gaussian input prepared by ASE
 ------------------------------
 Symbolic Z-matrix:
 Charge =  0 Multiplicity = 1

 SCF Done:  E(RB3LYP) =  -4331.52590907     A.U. after   15 cycles
 SCF Done:  E(RB3LYP) =  -4331.54462522     A.U. after   14 cycles
 SCF Done:  E(RB3LYP) =  -4331.54686122     A.U. after   14 cycles
 SCF Done:  E(RB3LYP) =  -4331.55530413     A.U. after   13 cycles
 SCF Done:  E(RB3LYP) =  -4331.55533257     A.U. after   12 cycles
 SCF Done:  E(RB3LYP) =  -4331.55650154     A.U. after   12 cycles
 SCF Done:  E(RB3LYP) =  -4331.55675119     A.U. after   11 cycles
 SCF Done:  E(RB3LYP) =  -4331.55678402     A.U. after   12 cycles
 SCF Done:  E(RB3LYP) =  -4331.55683920     A.U. after   10 cycles
 SCF Done:  E(RB3LYP) =  -4331.55684775     A.U. after    9 cycles
 SCF Done:  E(RB3LYP) =  -4331.55685057     A.U. after    9 cycles
 SCF Done:  E(RB3LYP) =  -4331.55685111     A.U. after    9 cycles
 SCF Done:  E(RB3LYP) =  -4331.55685130     A.U. after    7 cycles
 SCF Done:  E(RB3LYP) =  -4331.55685136     A.U. after    6 cycles
 SCF Done:  E(RB3LYP) =  -4331.55685138     A.U. after    6 cycles
 SCF Done:  E(RB3LYP) =  -4331.55685139     A.U. after    5 cycles
 Optimization completed.
    -- Stationary point found.

                         Standard orientation:
 ---------------------------------------------------------------------
 Center     Atomic      Atomic             Coordinates (Angstroms)
 Number     Number       Type             X           Y           Z
 ---------------------------------------------------------------------
      1          6           0       -4.019071   -6.360544    4.805202
      2          6           0       -5.375435   -6.659193    4.652570
      3          6           0       -6.099490   -6.105720    3.599791
      4          6           0       -5.472045   -5.243622    2.686101
      5          6           0       -6.242992   -4.652863    1.567480
      6          7           0       -5.614319   -3.792144    0.750293
      7          6           0       -6.360463   -3.269799   -0.232303
      8          6           0       -5.701346   -2.353970   -1.195765
      9          6           0       -6.370295   -1.956876   -2.364258
     10          6           0       -5.737762   -1.102964   -3.265389
     11          6           0       -4.446931   -0.639578   -3.011986
     12          6           0       -3.757532   -1.025599   -1.848618
     13          6           0       -2.383022   -0.535420   -1.575953
     14          6           0       -1.420899   -1.365445   -0.976936
     15          6           0       -0.130876   -0.911948   -0.723035
     16          6           0        0.252572    0.399300   -1.053633
     17          6           0        1.608492    0.918622   -0.761208
     18          6           0        1.819444    2.244981   -0.352746
     19          6           0        3.092950    2.743875   -0.088744
     20          6           0        4.248905    1.954707   -0.195158
     21          6           0        5.537633    2.582334    0.183647
     22          7           0        6.510194    1.813604    0.691940
     23          6           0        7.619424    2.465983    1.084735
     24          6           0        8.723450    1.663961    1.661595
     25          6           0        8.511453    0.322949    2.020528
     26          6           0        9.549097   -0.429745    2.565657
     27          6           0       10.808223    0.144321    2.754358
     28          6           0       11.027113    1.477332    2.396279
     29          6           0        9.991966    2.235053    1.855167
     30          7           0        7.795716    3.789929    0.985945
     31          6           0        6.769771    4.467461    0.451583
     32          7           0        6.906483    5.841040    0.311969
     33          6           0        6.100434    6.682971   -0.507660
     34          6           0        5.029503    6.381596   -1.354575
     35          6           0        4.450331    7.429305   -2.072071
     36          6           0        4.914298    8.746984   -1.958788
     37          6           0        5.985076    9.040962   -1.120007
     38          6           0        6.582664    8.006545   -0.395133
     39          6           0        7.699717    7.990090    0.526699
     40          6           0        8.519360    9.008741    1.019968
     41          6           0        9.514757    8.689797    1.938664
     42          6           0        9.681625    7.364688    2.363836
     43          6           0        8.877695    6.331518    1.880241
     44          6           0        7.887943    6.654321    0.947213
     45          7           0        5.621810    3.914093    0.040955
     46          6           0        4.086710    0.611768   -0.616938
     47          6           0        2.775268    0.154331   -0.881120
     48          8           0        2.770524   -1.145726   -1.328211
     49          6           0        4.081970   -1.538765   -1.379814
     50          6           0        4.506914   -2.789061   -1.806180
     51          6           0        5.878930   -3.015156   -1.821715
     52          6           0        6.800497   -2.021086   -1.420985
     53          6           0        8.260698   -2.302147   -1.453805
     54          6           0        9.180427   -1.311722   -1.844272
     55          6           0       10.548593   -1.575865   -1.873371
     56          6           0       11.034310   -2.832437   -1.520307
     57          6           0       10.132948   -3.833920   -1.129372
     58          6           0       10.597963   -5.162780   -0.743521
     59          7           0        9.879757   -6.178286   -0.363598
     60          6           0       10.803189   -7.189632   -0.115143
     61          6           0       10.637090   -8.508516    0.317597
     62          6           0       11.787048   -9.281848    0.472098
     63          6           0       13.067703   -8.762837    0.204967
     64          6           0       13.248894   -7.446498   -0.228236
     65          6           0       12.091244   -6.698106   -0.374000
     66          8           0       11.959864   -5.393419   -0.778136
     67          6           0        8.757272   -3.561374   -1.096580
     68          6           0        6.330363   -0.773323   -0.989509
     69          6           0        4.952512   -0.515882   -0.961119
     70          6           0       -0.708204    1.229582   -1.655942
     71          6           0       -1.996481    0.772407   -1.911833
     72          6           0       -4.402807   -1.888511   -0.951881
     73          7           0       -7.666153   -3.533218   -0.415782
     74          6           0       -8.200418   -4.424676    0.431450
     75          6           0       -9.606461   -4.849163    0.217866
     76          6           0       -9.919512   -6.191107    0.482851
     77          6           0      -11.187997   -6.723541    0.233042
     78          6           0      -12.208663   -5.921851   -0.274466
     79          6           0      -11.899834   -4.589341   -0.501691
     80          8           0      -12.817177   -3.670378   -0.947309
     81          6           0      -12.158238   -2.467739   -0.981312
     82          6           0      -12.747271   -1.261672   -1.332379
     83          6           0      -11.947322   -0.126200   -1.261073
     84          6           0      -10.596214   -0.189446   -0.849744
     85          6           0       -9.789809    1.057272   -0.757182
     86          6           0       -8.429203    1.071385   -1.113271
     87          6           0       -7.675814    2.240270   -1.018002
     88          6           0       -8.258132    3.424236   -0.572553
     89          6           0       -9.614881    3.430874   -0.215021
     90          6           0      -10.266139    4.646956    0.262390
     91          7           0      -11.509163    4.799519    0.613052
     92          6           0      -11.609274    6.137508    0.982879
     93          6           0      -12.691264    6.890449    1.448301
     94          6           0      -12.459844    8.235094    1.736009
     95          6           0      -11.190354    8.818732    1.567232
     96          6           0      -10.099709    8.078348    1.102851
     97          6           0      -10.354774    6.744719    0.823926
     98          8           0       -9.489772    5.785942    0.360279
     99          6           0      -10.367326    2.250555   -0.306294
    100          6           0      -10.030753   -1.430166   -0.522970
    101          6           0      -10.811405   -2.592310   -0.587547
    102          6           0      -10.631873   -4.009302   -0.277847
    103          7           0       -7.528253   -5.015625    1.430812
    104          6           0       -4.109249   -4.946833    2.846097
    105          6           0       -3.388639   -5.503494    3.899564
    106          1           0       -3.455422   -6.793517    5.627430
    107          1           0       -5.869380   -7.323566    5.356325
    108          1           0       -7.153060   -6.327076    3.471907
    109          1           0       -7.370515   -2.330062   -2.553855
    110          1           0       -6.247683   -0.806457   -4.177813
    111          1           0       -3.955444    0.003633   -3.736477
    112          1           0       -1.680849   -2.389778   -0.725553
    113          1           0        0.587300   -1.581350   -0.263463
    114          1           0        0.959870    2.891871   -0.208102
    115          1           0        3.205257    3.770572    0.239600
    116          1           0        7.529628   -0.112531    1.873488
    117          1           0        9.375071   -1.465753    2.842024
    118          1           0       11.617202   -0.445419    3.177246
    119          1           0       12.007088    1.925316    2.536478
    120          1           0       10.155875    3.266738    1.564258
    121          1           0        4.657334    5.372491   -1.445096
    122          1           0        3.616067    7.209909   -2.732854
    123          1           0        4.438023    9.539468   -2.529110
    124          1           0        6.357128   10.058040   -1.030938
    125          1           0        8.373717   10.035018    0.693879
    126          1           0       10.160597    9.469727    2.331977
    127          1           0       10.455772    7.127861    3.088644
    128          1           0        9.016258    5.315257    2.215856
    129          1           0        3.795544   -3.542453   -2.127254
    130          1           0        6.251990   -3.972028   -2.173751
    131          1           0        8.815438   -0.334897   -2.147440
    132          1           0       11.240708   -0.797836   -2.182919
    133          1           0       12.098091   -3.041927   -1.545670
    134          1           0        9.648146   -8.905666    0.522495
    135          1           0       11.695684  -10.311285    0.806692
    136          1           0       13.937394   -9.399765    0.338062
    137          1           0       14.230863   -7.035775   -0.437538
    138          1           0        8.084820   -4.345699   -0.765707
    139          1           0        7.022650   -0.019961   -0.641109
    140          1           0       -0.437873    2.242122   -1.941416
    141          1           0       -2.718858    1.447128   -2.362727
    142          1           0       -3.910041   -2.190563   -0.035041
    143          1           0       -9.135816   -6.827457    0.877848
    144          1           0      -11.377603   -7.773359    0.435726
    145          1           0      -13.204686   -6.302877   -0.473477
    146          1           0      -13.785492   -1.215181   -1.643325
    147          1           0      -12.368789    0.833460   -1.543937
    148          1           0       -7.962458    0.165595   -1.486779
    149          1           0       -6.627631    2.225972   -1.303459
    150          1           0       -7.675226    4.335931   -0.499947
    151          1           0      -13.668766    6.437149    1.577672
    152          1           0      -13.277800    8.850365    2.099979
    153          1           0      -11.053278    9.870017    1.803469
    154          1           0       -9.116696    8.517226    0.969216
    155          1           0      -11.406321    2.278053    0.004179
    156          1           0       -8.999598   -1.490162   -0.201020
    157          1           0       -3.630724   -4.281006    2.137038
    158          1           0       -2.334009   -5.268980    4.015356
 ---------------------------------------------------------------------

 The electronic state is 1-A.
 Alpha  occ. eigenvalues --  -19.22312 -19.22012 -19.21656 -19.21205 -14.40270
 Alpha  occ. eigenvalues --  -14.34351 -14.34308 -14.34238 -14.34223 -14.34102
 Alpha  occ. eigenvalues --  -14.33989 -14.33204 -14.32892 -10.31511 -10.28717
 Alpha  occ. eigenvalues --  -10.28475 -10.28412 -10.28319 -10.28124 -10.28102
 Alpha  occ. eigenvalues --  -10.27993 -10.25844 -10.25330 -10.25279 -10.24974
 Alpha  occ. eigenvalues --  -10.24894 -10.24608 -10.23243 -10.23227 -10.21965
 Alpha  occ. eigenvalues --  -10.21754 -10.21676 -10.21655 -10.21546 -10.21294
 Alpha  occ. eigenvalues --  -10.21236 -10.21144 -10.21032 -10.21005 -10.20909
 Alpha  occ. eigenvalues --  -10.20846 -10.20780 -10.20633 -10.20631 -10.20588
 Alpha  occ. eigenvalues --  -10.20380 -10.20366 -10.20361 -10.20347 -10.20296
 Alpha  occ. eigenvalues --  -10.20288 -10.20238 -10.20182 -10.20117 -10.20099
 Alpha  occ. eigenvalues --  -10.20091 -10.20035 -10.20024 -10.20018 -10.19970
 Alpha  occ. eigenvalues --  -10.19968 -10.19967 -10.19946 -10.19943 -10.19904
 Alpha  occ. eigenvalues --  -10.19875 -10.19840 -10.19824 -10.19798 -10.19778
 Alpha  occ. eigenvalues --  -10.19756 -10.19722 -10.19715 -10.19698 -10.19683
 Alpha  occ. eigenvalues --  -10.19668 -10.19649 -10.19643 -10.19643 -10.19634
 Alpha  occ. eigenvalues --  -10.19625 -10.19620 -10.19611 -10.19602 -10.19585
 Alpha  occ. eigenvalues --  -10.19557 -10.19547 -10.19539 -10.19515 -10.19509
 Alpha  occ. eigenvalues --  -10.19439 -10.19416 -10.19400 -10.19366 -10.19350
 Alpha  occ. eigenvalues --  -10.19300 -10.19278 -10.19246 -10.19172 -10.19045
 Alpha  occ. eigenvalues --  -10.18999 -10.18926 -10.18849 -10.18844 -10.18819
 Alpha  occ. eigenvalues --   -1.12744  -1.12443  -1.11530  -1.11056  -1.04181
 Alpha  occ. eigenvalues --   -1.02520  -0.99006  -0.92733  -0.92429  -0.91712
 Alpha  occ. eigenvalues --   -0.91133  -0.91061  -0.90672  -0.88022  -0.87706
 Alpha  occ. eigenvalues --   -0.87385  -0.86980  -0.86383  -0.86272  -0.85881
 Alpha  occ. eigenvalues --   -0.85844  -0.85691  -0.85347  -0.84987  -0.84916
 Alpha  occ. eigenvalues --   -0.84741  -0.84725  -0.80941  -0.79692  -0.79154
 Alpha  occ. eigenvalues --   -0.78654  -0.78404  -0.78338  -0.77510  -0.77377
 Alpha  occ. eigenvalues --   -0.77052  -0.76922  -0.76674  -0.76366  -0.75991
 Alpha  occ. eigenvalues --   -0.75428  -0.75302  -0.75189  -0.75144  -0.75137
 Alpha  occ. eigenvalues --   -0.74976  -0.74390  -0.73725  -0.73446  -0.73367
 Alpha  occ. eigenvalues --   -0.73044  -0.72825  -0.72599  -0.72290  -0.71935
 Alpha  occ. eigenvalues --   -0.68753  -0.68414  -0.68259  -0.68069  -0.65835
 Alpha  occ. eigenvalues --   -0.65426  -0.65294  -0.64690  -0.64446  -0.63732
 Alpha  occ. eigenvalues --   -0.63644  -0.63086  -0.62663  -0.62114  -0.61802
 Alpha  occ. eigenvalues --   -0.61665  -0.61611  -0.61141  -0.61104  -0.60749
 Alpha  occ. eigenvalues --   -0.60473  -0.60311  -0.60272  -0.60149  -0.59758
 Alpha  occ. eigenvalues --   -0.59310  -0.59210  -0.58474  -0.57994  -0.57812
 Alpha  occ. eigenvalues --   -0.57619  -0.57402  -0.57249  -0.56857  -0.55567
 Alpha  occ. eigenvalues --   -0.54913  -0.54806  -0.54496  -0.53555  -0.53273
 Alpha  occ. eigenvalues --   -0.53107  -0.52783  -0.52351  -0.52179  -0.51700
 Alpha  occ. eigenvalues --   -0.51440  -0.51314  -0.51078  -0.50931  -0.50624
 Alpha  occ. eigenvalues --   -0.50418  -0.50113  -0.49963  -0.49476  -0.49005
 Alpha  occ. eigenvalues --   -0.48650  -0.48075  -0.47827  -0.47750  -0.47713
 Alpha  occ. eigenvalues --   -0.47546  -0.47408  -0.47288  -0.46797  -0.46699
 Alpha  occ. eigenvalues --   -0.46453  -0.46325  -0.46129  -0.46021  -0.45989
 Alpha  occ. eigenvalues --   -0.45964  -0.45748  -0.45526  -0.45480  -0.45147
 Alpha  occ. eigenvalues --   -0.44939  -0.44750  -0.44664  -0.44542  -0.44416
 Alpha  occ. eigenvalues --   -0.44326  -0.44203  -0.43997  -0.43977  -0.43857
 Alpha  occ. eigenvalues --   -0.43778  -0.43576  -0.43426  -0.43324  -0.43237
 Alpha  occ. eigenvalues --   -0.43140  -0.42907  -0.42719  -0.42549  -0.42494
 Alpha  occ. eigenvalues --   -0.42409  -0.42380  -0.42306  -0.42183  -0.42017
 Alpha  occ. eigenvalues --   -0.41898  -0.41734  -0.41152  -0.40888  -0.40580
 Alpha  occ. eigenvalues --   -0.40303  -0.39429  -0.39120  -0.39016  -0.38901
 Alpha  occ. eigenvalues --   -0.38663  -0.38326  -0.38278  -0.38204  -0.37971
 Alpha  occ. eigenvalues --   -0.37855  -0.37707  -0.37559  -0.37481  -0.37263
 Alpha  occ. eigenvalues --   -0.37220  -0.37013  -0.36830  -0.36775  -0.36444
 Alpha  occ. eigenvalues --   -0.36429  -0.36298  -0.36219  -0.36101  -0.35896
 Alpha  occ. eigenvalues --   -0.35861  -0.35765  -0.35592  -0.35557  -0.35548
 Alpha  occ. eigenvalues --   -0.35468  -0.35390  -0.35269  -0.35163  -0.35012
 Alpha  occ. eigenvalues --   -0.34952  -0.34882  -0.34760  -0.34501  -0.34384
 Alpha  occ. eigenvalues --   -0.34271  -0.34206  -0.33814  -0.33768  -0.33622
 Alpha  occ. eigenvalues --   -0.33383  -0.33129  -0.32916  -0.32850  -0.32643
 Alpha  occ. eigenvalues --   -0.30806  -0.29892  -0.29226  -0.28960  -0.28649
 Alpha  occ. eigenvalues --   -0.28242  -0.28037  -0.27999  -0.27701  -0.27056
 Alpha  occ. eigenvalues --   -0.27009  -0.26851  -0.26762  -0.26657  -0.26547
 Alpha  occ. eigenvalues --   -0.25844  -0.25769  -0.25727  -0.25593  -0.25508
 Alpha  occ. eigenvalues --   -0.25409  -0.25133  -0.25008  -0.24791  -0.24573
 Alpha  occ. eigenvalues --   -0.24281  -0.23111  -0.22918  -0.22666  -0.22173
 Alpha  occ. eigenvalues --   -0.22117  -0.21772  -0.21587  -0.21462  -0.21409
 Alpha virt. eigenvalues --   -0.07927  -0.07328  -0.07245  -0.06185  -0.05414
 Alpha virt. eigenvalues --   -0.05109  -0.03841  -0.03409  -0.03100  -0.02702
 Alpha virt. eigenvalues --   -0.02467  -0.02294  -0.01048  -0.00845  -0.00706

 Mulliken charges:
               1
     1  C   -0.115512
     2  C   -0.138659
     3  C   -0.157607
     4  C    0.077002
     5  C    0.447746
     6  N   -0.538800
     7  C    0.443871
     8  C    0.082353
     9  C   -0.174433
    10  C   -0.141837
    11  C   -0.165106
    12  C    0.083047
    13  C    0.100224
    14  C   -0.183414
    15  C   -0.163719
    16  C    0.106633
    17  C    0.055991
    18  C   -0.206392
    19  C   -0.172425
    20  C    0.038756
    21  C    0.422611
    22  N   -0.530851
    23  C    0.447154
    24  C    0.074335
    25  C   -0.162048
    26  C   -0.135956
    27  C   -0.115549
    28  C   -0.140254
    29  C   -0.159548
    30  N   -0.553402
    31  C    0.719430
    32  N   -0.763670
    33  C    0.303900
    34  C   -0.147620
    35  C   -0.145631
    36  C   -0.137626
    37  C   -0.196125
    38  C    0.054679
    39  C    0.054232
    40  C   -0.195683
    41  C   -0.137819
    42  C   -0.146887
    43  C   -0.145784
    44  C    0.306154
    45  N   -0.541397
    46  C    0.065216
    47  C    0.216569
    48  O   -0.551331
    49  C    0.326445
    50  C   -0.209365
    51  C   -0.181057
    52  C    0.074657
    53  C    0.085448
    54  C   -0.159623
    55  C   -0.137431
    56  C   -0.168328
    57  C    0.070659
    58  C    0.488884
    59  N   -0.544913
    60  C    0.251546
    61  C   -0.173770
    62  C   -0.143486
    63  C   -0.145155
    64  C   -0.186556
    65  C    0.336635
    66  O   -0.531254
    67  C   -0.221252
    68  C   -0.240837
    69  C    0.073392
    70  C   -0.176381
    71  C   -0.183641
    72  C   -0.214477
    73  N   -0.516483
    74  C    0.393941
    75  C    0.047830
    76  C   -0.164864
    77  C   -0.145022
    78  C   -0.190201
    79  C    0.309802
    80  O   -0.546012
    81  C    0.317759
    82  C   -0.206752
    83  C   -0.182003
    84  C    0.074411
    85  C    0.083316
    86  C   -0.168763
    87  C   -0.147619
    88  C   -0.167800
    89  C    0.071144
    90  C    0.489800
    91  N   -0.544838
    92  C    0.251881
    93  C   -0.173697
    94  C   -0.143528
    95  C   -0.145180
    96  C   -0.186489
    97  C    0.336985
    98  O   -0.531499
    99  C   -0.219920
   100  C   -0.235815
   101  C    0.088438
   102  C    0.047868
   103  N   -0.516157
   104  C   -0.156375
   105  C   -0.139254
   106  H    0.136105
   107  H    0.136079
   108  H    0.163546
   109  H    0.172248
   110  H    0.142030
   111  H    0.140127
   112  H    0.140259
   113  H    0.149083
   114  H    0.141482
   115  H    0.162831
   116  H    0.170224
   117  H    0.142355
   118  H    0.137321
   119  H    0.135833
   120  H    0.162812
   121  H    0.175673
   122  H    0.129548
   123  H    0.128437
   124  H    0.132553
   125  H    0.132725
   126  H    0.128689
   127  H    0.129372
   128  H    0.174795
   129  H    0.151036
   130  H    0.144949
   131  H    0.139854
   132  H    0.137927
   133  H    0.152735
   134  H    0.145680
   135  H    0.133242
   136  H    0.135041
   137  H    0.147222
   138  H    0.167421
   139  H    0.171446
   140  H    0.137174
   141  H    0.133259
   142  H    0.166786
   143  H    0.155294
   144  H    0.139698
   145  H    0.152567
   146  H    0.149919
   147  H    0.144367
   148  H    0.152400
   149  H    0.136545
   150  H    0.151508
   151  H    0.145470
   152  H    0.132526
   153  H    0.134233
   154  H    0.146588
   155  H    0.167898
   156  H    0.157466
   157  H    0.159803
   158  H    0.135963
 Sum of Mulliken charges =  -0.00000

 Dipole moment (field-independent basis, Debye):
    X=              3.4105    Y=             -0.4550    Z=              0.2408  Tot=              3.4491
 Quadrupole moment (field-independent basis, Debye-Ang):
   XX=           -546.0388   YY=           -528.5592   ZZ=           -580.7559
   XY=              2.6248   XZ=             14.6866   YZ=            -14.9339

 Normal termination of Gaussian 16 at Sat Nov  5 03:33:00 2022.
