 Gaussian 16, Revision B.01,
 Gaussian 16:  ES64L-G16RevB.01 20-Dec-2017

 -------------------------------------------------------------------
 #p b3lyp/6-31g(d) 6D 10F nosymm GFInput td=(50-50,nstate=2) SCF=XQC
 -------------------------------------------------------------------

 ------------------------------
 Gaussian input prepared by ASE
 ------------------------------
 Symbolic Z-matrix:
 Charge =  0 Multiplicity = 1

                          Input orientation:
 ---------------------------------------------------------------------
 Center     Atomic      Atomic             Coordinates (Angstroms)
 Number     Number       Type             X           Y           Z
 ---------------------------------------------------------------------
      1          6           0       -5.493946    3.613086    5.370912
      2          6           0       -6.653348    2.887264    5.091770
      3          6           0       -6.778290    2.200245    3.885184
      4          6           0       -5.747952    2.224358    2.930329
      5          6           0       -5.881569    1.491227    1.644338
      6          6           0       -7.105309    1.457663    0.960522
      7          6           0       -7.253858    0.764192   -0.250233
      8          6           0       -8.559266    0.745630   -0.961133
      9          6           0       -8.618038    0.811692   -2.363328
     10          6           0       -9.842017    0.793879   -3.030335
     11          6           0      -11.034768    0.710332   -2.309659
     12          6           0      -10.992135    0.643761   -0.915909
     13          6           0       -9.767722    0.660889   -0.249580
     14          6           0       -6.140957    0.098191   -0.779222
     15          6           0       -4.901540    0.125771   -0.126921
     16          6           0       -3.744573   -0.596097   -0.720850
     17          6           0       -2.420403   -0.272576   -0.402958
     18          6           0       -1.399674   -1.012679   -1.011636
     19          6           0        0.037551   -0.755402   -0.739201
     20          6           0        0.465401   -0.089467    0.419697
     21          6           0        1.817648    0.145680    0.651841
     22          6           0        2.790963   -0.277967   -0.263892
     23          6           0        4.242283   -0.013994   -0.018134
     24          6           0        4.889990   -0.643450    1.014218
     25          6           0        4.268646   -1.646675    1.923247
     26          6           0        3.735501   -2.833832    1.404281
     27          6           0        3.127671   -3.765319    2.246276
     28          6           0        3.043480   -3.519750    3.616712
     29          6           0        3.577596   -2.341034    4.143159
     30          6           0        4.191934   -1.413777    3.304916
     31          7           0        6.233159   -0.339919    1.236132
     32          7           0        6.962348   -0.937974    2.211383
     33          6           0        8.170838   -0.397840    2.089426
     34          6           0        8.262562    0.555533    1.052254
     35          6           0        9.477897    1.336483    0.740415
     36          6           0        9.475987    2.742516    0.749355
     37          6           0       10.647212    3.460862    0.511894
     38          6           0       11.848767    2.789609    0.273960
     39          6           0       11.868495    1.394121    0.275151
     40          6           0       10.695000    0.675394    0.504580
     41          6           0        6.975556    0.567617    0.489981
     42          6           0        6.332669    1.207998   -0.631109
     43          6           0        7.024041    2.080875   -1.497514
     44          6           0        6.373312    2.700779   -2.550177
     45          6           0        5.005254    2.470387   -2.762157
     46          6           0        4.312497    1.601274   -1.937155
     47          6           0        4.954168    0.930944   -0.869969
     48          6           0        2.361723   -0.945224   -1.423038
     49          6           0        1.011528   -1.186481   -1.653928
     50          7           0       -1.689597   -1.982815   -1.894416
     51          6           0       -2.983760   -2.217767   -2.160272
     52          6           0       -3.297053   -3.290687   -3.141606
     53          6           0       -4.629321   -3.601889   -3.455753
     54          6           0       -4.921271   -4.605131   -4.377067
     55          6           0       -3.888766   -5.312667   -4.997101
     56          6           0       -2.560443   -5.011270   -4.687386
     57          6           0       -2.265330   -4.008841   -3.766255
     58          7           0       -4.019005   -1.568548   -1.605300
     59          6           0       -4.785564    0.819495    1.085016
     60          6           0       -4.587945    2.960272    3.225002
     61          6           0       -4.461440    3.646446    4.431959
     62          1           0       -5.396160    4.148302    6.311472
     63          1           0       -7.460087    2.847751    5.818986
     64          1           0       -7.673533    1.616658    3.689073
     65          1           0       -7.946364    2.018974    1.356338
     66          1           0       -7.697045    0.901418   -2.932474
     67          1           0       -9.863557    0.853760   -4.115322
     68          1           0      -11.988879    0.696666   -2.829516
     69          1           0      -11.914023    0.569223   -0.345051
     70          1           0       -9.745135    0.581545    0.833837
     71          1           0       -6.226974   -0.469954   -1.698114
     72          1           0       -2.192614    0.554556    0.256574
     73          1           0       -0.256728    0.229037    1.165370
     74          1           0        2.126915    0.653122    1.560582
     75          1           0        3.798272   -3.027322    0.338164
     76          1           0        2.720572   -4.682090    1.828670
     77          1           0        2.567569   -4.243634    4.272868
     78          1           0        3.520255   -2.145442    5.210575
     79          1           0        4.621479   -0.507693    3.719649
     80          1           0        8.956309   -0.691598    2.774542
     81          1           0        8.549420    3.270739    0.957170
     82          1           0       10.623286    4.547508    0.524751
     83          1           0       12.761859    3.350089    0.092373
     84          1           0       12.798107    0.861701    0.091366
     85          1           0       10.711960   -0.411092    0.491741
     86          1           0        8.078767    2.264018   -1.334501
     87          1           0        6.924051    3.368653   -3.206682
     88          1           0        4.486697    2.969883   -3.575886
     89          1           0        3.257236    1.426467   -2.111171
     90          1           0        3.098794   -1.282259   -2.147176
     91          1           0        0.690728   -1.711241   -2.546821
     92          1           0       -5.424469   -3.051471   -2.966049
     93          1           0       -5.957178   -4.836612   -4.610633
     94          1           0       -4.117835   -6.095534   -5.715511
     95          1           0       -1.752150   -5.559799   -5.163925
     96          1           0       -1.237608   -3.771566   -3.516190
     97          1           0       -3.849940    0.799471    1.634427
     98          1           0       -3.790463    3.016191    2.489027
     99          1           0       -3.558343    4.216181    4.634714
 ---------------------------------------------------------------------

 SCF Done:  E(RB3LYP) =  -2414.01723124     A.U. after   16 cycles

 Excitation energies and oscillator strengths:

 Excited state symmetry could not be determined.
 Excited State   1:      Triplet-?Sym    2.7301 eV  454.14 nm  f=0.0000  <S**2>=2.000
     203 ->205        -0.13121
     203 ->207        -0.22767
     204 ->205         0.26719
     204 ->206        -0.15622
     204 ->207         0.45718
     204 ->209         0.18421
 This state for optimization and/or second-order correction.
 Total Energy, E(TD-HF/TD-DFT) =  -2413.91690167
 Copying the excited state density for this state as the 1-particle RhoCI density.

 Excited state symmetry could not be determined.
 Excited State   2:      Triplet-?Sym    2.9022 eV  427.21 nm  f=0.0000  <S**2>=2.000
     189 ->205         0.13749
     198 ->205        -0.11925
     200 ->205        -0.22916
     200 ->210         0.13364
     201 ->205         0.11835
     201 ->206         0.39124
     202 ->206         0.11386
     202 ->208        -0.19149
     203 ->206        -0.13457
     204 ->207         0.12568

 Excited state symmetry could not be determined.
 Excited State   3:      Singlet-?Sym    3.2914 eV  376.69 nm  f=0.1259  <S**2>=0.000
     204 ->205         0.68944
     204 ->206        -0.10075

 Excited state symmetry could not be determined.
 Excited State   4:      Singlet-?Sym    3.6405 eV  340.57 nm  f=0.0112  <S**2>=0.000
     204 ->205         0.10920
     204 ->206         0.66986
     204 ->207        -0.14651

 Alpha  occ. eigenvalues --  -14.42558 -14.34438 -14.33053 -14.33034 -10.26080
 Alpha  occ. eigenvalues --  -10.24701 -10.24680 -10.24659 -10.23291 -10.21134
 Alpha  occ. eigenvalues --  -10.21033 -10.20982 -10.20939 -10.20575 -10.20566
 Alpha  occ. eigenvalues --  -10.20556 -10.20508 -10.20414 -10.20332 -10.20286
 Alpha  occ. eigenvalues --  -10.20236 -10.20122 -10.20062 -10.20046 -10.19774
 Alpha  occ. eigenvalues --  -10.19710 -10.19643 -10.19551 -10.19497 -10.19442
 Alpha  occ. eigenvalues --  -10.19435 -10.19410 -10.19392 -10.19362 -10.19333
 Alpha  occ. eigenvalues --  -10.19315 -10.19262 -10.19244 -10.19236 -10.19174
 Alpha  occ. eigenvalues --  -10.19159 -10.19135 -10.19121 -10.19096 -10.19071
 Alpha  occ. eigenvalues --  -10.19069 -10.19044 -10.19022 -10.19005 -10.18997
 Alpha  occ. eigenvalues --  -10.18985 -10.18955 -10.18918 -10.18899 -10.18894
 Alpha  occ. eigenvalues --  -10.18831 -10.18812 -10.18610 -10.18588 -10.18412
 Alpha  occ. eigenvalues --  -10.18382  -1.05554  -0.98471  -0.89715  -0.89255
 Alpha  occ. eigenvalues --   -0.87565  -0.86490  -0.86248  -0.85875  -0.85484
 Alpha  occ. eigenvalues --   -0.85137  -0.84455  -0.84285  -0.81418  -0.80736
 Alpha  occ. eigenvalues --   -0.79348  -0.78711  -0.77081  -0.76736  -0.75379
 Alpha  occ. eigenvalues --   -0.75194  -0.74965  -0.74807  -0.74544  -0.74383
 Alpha  occ. eigenvalues --   -0.74324  -0.74037  -0.73878  -0.73091  -0.72893
 Alpha  occ. eigenvalues --   -0.71871  -0.71118  -0.66836  -0.66323  -0.64784
 Alpha  occ. eigenvalues --   -0.63616  -0.63177  -0.62882  -0.61918  -0.61264
 Alpha  occ. eigenvalues --   -0.60615  -0.60586  -0.60544  -0.60297  -0.60257
 Alpha  occ. eigenvalues --   -0.59787  -0.59650  -0.58940  -0.57663  -0.56964
 Alpha  occ. eigenvalues --   -0.56737  -0.56670  -0.54266  -0.54075  -0.53065
 Alpha  occ. eigenvalues --   -0.52434  -0.51624  -0.51214  -0.51104  -0.50894
 Alpha  occ. eigenvalues --   -0.50104  -0.49806  -0.48626  -0.47518  -0.47387
 Alpha  occ. eigenvalues --   -0.47304  -0.47065  -0.46934  -0.46740  -0.45816
 Alpha  occ. eigenvalues --   -0.45465  -0.45449  -0.45337  -0.44844  -0.44792
 Alpha  occ. eigenvalues --   -0.44603  -0.44292  -0.43761  -0.43666  -0.43442
 Alpha  occ. eigenvalues --   -0.43358  -0.43290  -0.42875  -0.42718  -0.42473
 Alpha  occ. eigenvalues --   -0.42418  -0.42229  -0.42075  -0.41911  -0.41896
 Alpha  occ. eigenvalues --   -0.41828  -0.41567  -0.41329  -0.40941  -0.40455
 Alpha  occ. eigenvalues --   -0.40261  -0.38535  -0.38007  -0.37654  -0.37236
 Alpha  occ. eigenvalues --   -0.37131  -0.36816  -0.36668  -0.36620  -0.36395
 Alpha  occ. eigenvalues --   -0.36140  -0.35924  -0.35510  -0.35275  -0.35185
 Alpha  occ. eigenvalues --   -0.35043  -0.34622  -0.34492  -0.34448  -0.34367
 Alpha  occ. eigenvalues --   -0.34189  -0.33745  -0.33689  -0.33538  -0.33476
 Alpha  occ. eigenvalues --   -0.32253  -0.31697  -0.30450  -0.29754  -0.29295
 Alpha  occ. eigenvalues --   -0.28896  -0.28278  -0.27301  -0.26189  -0.26003
 Alpha  occ. eigenvalues --   -0.25527  -0.25386  -0.25130  -0.25107  -0.24997
 Alpha  occ. eigenvalues --   -0.24709  -0.24582  -0.24360  -0.24045  -0.23531
 Alpha  occ. eigenvalues --   -0.22864  -0.22381  -0.22073  -0.19995
 Alpha virt. eigenvalues --   -0.06462  -0.05433  -0.04096  -0.03446  -0.03363
 Alpha virt. eigenvalues --   -0.02379  -0.00858  -0.00526  -0.00480  -0.00205
 Alpha virt. eigenvalues --   -0.00182  -0.00063   0.00247   0.00456   0.00636

 Mulliken charges:
               1
     1  C   -0.125749
     2  C   -0.133845
     3  C   -0.171467
     4  C    0.087659
     5  C    0.090255
     6  C   -0.228585
     7  C    0.093454
     8  C    0.088556
     9  C   -0.171018
    10  C   -0.134898
    11  C   -0.125599
    12  C   -0.134297
    13  C   -0.171654
    14  C   -0.218696
    15  C    0.098239
    16  C    0.278288
    17  C   -0.219545
    18  C    0.277242
    19  C    0.099574
    20  C   -0.178202
    21  C   -0.153630
    22  C    0.040540
    23  C   -0.095475
    24  C    0.253906
    25  C    0.097760
    26  C   -0.140931
    27  C   -0.136210
    28  C   -0.121334
    29  C   -0.140254
    30  C   -0.121342
    31  N   -0.480632
    32  N   -0.304007
    33  C    0.046642
    34  C   -0.126022
    35  C    0.073977
    36  C   -0.171012
    37  C   -0.134015
    38  C   -0.127181
    39  C   -0.133115
    40  C   -0.167520
    41  C    0.342932
    42  C    0.038799
    43  C   -0.197837
    44  C   -0.142848
    45  C   -0.124390
    46  C   -0.215593
    47  C    0.165414
    48  C   -0.172347
    49  C   -0.162590
    50  N   -0.556473
    51  C    0.445251
    52  C    0.074628
    53  C   -0.162850
    54  C   -0.139449
    55  C   -0.118897
    56  C   -0.139243
    57  C   -0.161657
    58  N   -0.555986
    59  C   -0.234724
    60  C   -0.171965
    61  C   -0.133953
    62  H    0.131796
    63  H    0.132579
    64  H    0.132331
    65  H    0.141116
    66  H    0.136843
    67  H    0.132407
    68  H    0.130764
    69  H    0.131204
    70  H    0.130253
    71  H    0.163848
    72  H    0.149968
    73  H    0.134000
    74  H    0.140145
    75  H    0.138016
    76  H    0.134170
    77  H    0.131631
    78  H    0.131720
    79  H    0.139628
    80  H    0.150141
    81  H    0.138555
    82  H    0.131270
    83  H    0.129966
    84  H    0.131535
    85  H    0.134999
    86  H    0.161391
    87  H    0.134426
    88  H    0.133329
    89  H    0.150085
    90  H    0.142316
    91  H    0.162119
    92  H    0.159061
    93  H    0.130550
    94  H    0.129650
    95  H    0.129512
    96  H    0.155307
    97  H    0.136196
    98  H    0.129121
    99  H    0.131973
 Sum of Mulliken charges =  -0.00000

 Dipole moment (field-independent basis, Debye):
    X=             -0.6542    Y=              2.1614    Z=              0.1042  Tot=              2.2607
 Quadrupole moment (field-independent basis, Debye-Ang):
   XX=           -313.1043   YY=           -336.8264   ZZ=           -325.6812
   XY=              8.4515   XZ=            -11.6685   YZ=              7.6293

 Normal termination of Gaussian 16 at Sat Nov  5 11:06:59 2022.
