 Gaussian 16, Revision B.01,
 Gaussian 16:  ES64L-G16RevB.01 20-Dec-2017

 -----------------------------
 #p b3lyp/6-31g(d) opt SCF=XQC
 -----------------------------

 ------------------------------
 Gaussian input prepared by ASE
 ------------------------------
 Symbolic Z-matrix:
 Charge =  0 Multiplicity = 1

 SCF Done:  E(RB3LYP) =  -2414.00277282     A.U. after   16 cycles
 SCF Done:  E(RB3LYP) =  -2414.01612762     A.U. after   13 cycles
 SCF Done:  E(RB3LYP) =  -2414.01687610     A.U. after   12 cycles
 SCF Done:  E(RB3LYP) =  -2414.01716469     A.U. after   11 cycles
 SCF Done:  E(RB3LYP) =  -2414.01721485     A.U. after   10 cycles
 SCF Done:  E(RB3LYP) =  -2414.01722969     A.U. after   10 cycles
 SCF Done:  E(RB3LYP) =  -2414.01723341     A.U. after    9 cycles
 SCF Done:  E(RB3LYP) =  -2414.01723454     A.U. after    9 cycles
 SCF Done:  E(RB3LYP) =  -2414.01723493     A.U. after    7 cycles
 SCF Done:  E(RB3LYP) =  -2414.01723508     A.U. after    7 cycles
 SCF Done:  E(RB3LYP) =  -2414.01723514     A.U. after    6 cycles
 SCF Done:  E(RB3LYP) =  -2414.01723516     A.U. after    6 cycles
 Optimization completed.
    -- Stationary point found.

                         Standard orientation:
 ---------------------------------------------------------------------
 Center     Atomic      Atomic             Coordinates (Angstroms)
 Number     Number       Type             X           Y           Z
 ---------------------------------------------------------------------
      1          6           0       -5.074754    6.891767    0.672235
      2          6           0       -6.279177    6.306288    1.066609
      3          6           0       -6.513853    4.953178    0.826872
      4          6           0       -5.550680    4.155492    0.186623
      5          6           0       -5.801289    2.712796   -0.068194
      6          6           0       -7.069025    2.263022   -0.464198
      7          6           0       -7.327781    0.904456   -0.701347
      8          6           0       -8.678155    0.449875   -1.125211
      9          6           0       -8.829348   -0.578701   -2.070272
     10          6           0      -10.095536   -1.005533   -2.467670
     11          6           0      -11.238959   -0.412547   -1.929192
     12          6           0      -11.104450    0.610496   -0.988937
     13          6           0       -9.837904    1.036337   -0.591451
     14          6           0       -6.281599   -0.012748   -0.539561
     15          6           0       -5.000622    0.407817   -0.159252
     16          6           0       -3.917213   -0.598230    0.003568
     17          6           0       -2.562370   -0.252235   -0.058363
     18          6           0       -1.616519   -1.270522    0.110704
     19          6           0       -0.154778   -1.010451    0.069406
     20          6           0        0.377747    0.268899    0.291327
     21          6           0        1.751133    0.490642    0.242362
     22          6           0        2.641800   -0.557804   -0.027571
     23          6           0        4.116051   -0.315030   -0.091217
     24          6           0        4.806128    0.024846    1.044462
     25          6           0        4.207478    0.131598    2.404273
     26          6           0        3.592158   -0.980791    2.993240
     27          6           0        3.005358   -0.880806    4.254886
     28          6           0        3.024633    0.333145    4.941500
     29          6           0        3.641084    1.445818    4.363793
     30          6           0        4.234453    1.345505    3.107720
     31          7           0        6.172568    0.283017    0.936437
     32          7           0        6.941275    0.592717    2.010532
     33          6           0        8.159769    0.748476    1.502518
     34          6           0        8.219719    0.553245    0.105611
     35          6           0        9.441985    0.716261   -0.709042
     36          6           0        9.498226    1.618936   -1.785624
     37          6           0       10.679014    1.802569   -2.504090
     38          6           0       11.833140    1.098259   -2.153561
     39          6           0       11.795781    0.208674   -1.078842
     40          6           0       10.612168    0.018817   -0.365182
     41          6           0        6.899046    0.230717   -0.247206
     42          6           0        6.208188   -0.170625   -1.447987
     43          6           0        6.874209   -0.333218   -2.681091
     44          6           0        6.179348   -0.694517   -3.822344
     45          6           0        4.791766   -0.896527   -3.763982
     46          6           0        4.121704   -0.763178   -2.560183
     47          6           0        4.806460   -0.422154   -1.370737
     48          6           0        2.107817   -1.838077   -0.248617
     49          6           0        0.736311   -2.062911   -0.194172
     50          7           0       -2.005232   -2.542733    0.297525
     51          6           0       -3.323001   -2.794759    0.324132
     52          6           0       -3.745916   -4.206188    0.527451
     53          6           0       -5.108072   -4.540829    0.582386
     54          6           0       -5.502780   -5.863520    0.770123
     55          6           0       -4.544629   -6.870694    0.906732
     56          6           0       -3.187107   -6.545387    0.856563
     57          6           0       -2.789292   -5.223603    0.669299
     58          7           0       -4.290692   -1.874412    0.190921
     59          6           0       -4.774245    1.770005    0.078846
     60          6           0       -4.344185    4.759261   -0.205615
     61          6           0       -4.107960    6.111995    0.034991
     62          1           0       -4.891442    7.946305    0.859364
     63          1           0       -7.035559    6.902063    1.570764
     64          1           0       -7.443486    4.501258    1.161603
     65          1           0       -7.857555    2.990090   -0.633632
     66          1           0       -7.946273   -1.030234   -2.513557
     67          1           0      -10.188307   -1.797718   -3.205967
     68          1           0      -12.225958   -0.745063   -2.239085
     69          1           0      -11.987679    1.073087   -0.556240
     70          1           0       -9.744993    1.814837    0.160815
     71          1           0       -6.453054   -1.072570   -0.687655
     72          1           0       -2.256622    0.762556   -0.276846
     73          1           0       -0.278387    1.100252    0.530665
     74          1           0        2.141959    1.486498    0.428044
     75          1           0        3.574347   -1.926521    2.461016
     76          1           0        2.533641   -1.753113    4.698908
     77          1           0        2.565199    0.412519    5.923162
     78          1           0        3.664482    2.393456    4.895163
     79          1           0        4.727913    2.207041    2.669823
     80          1           0        8.977311    1.025115    2.156534
     81          1           0        8.610322    2.187465   -2.048555
     82          1           0       10.700505    2.506518   -3.332058
     83          1           0       12.753946    1.244424   -2.711772
     84          1           0       12.688182   -0.344340   -0.797381
     85          1           0       10.583740   -0.684470    0.462757
     86          1           0        7.944185   -0.174279   -2.730601
     87          1           0        6.711057   -0.815708   -4.762007
     88          1           0        4.239973   -1.161670   -4.661633
     89          1           0        3.050788   -0.925203   -2.524107
     90          1           0        2.779551   -2.665893   -0.460124
     91          1           0        0.334357   -3.056742   -0.356270
     92          1           0       -5.844903   -3.752304    0.480711
     93          1           0       -6.560770   -6.108831    0.811587
     94          1           0       -4.853844   -7.902337    1.053579
     95          1           0       -2.436201   -7.323645    0.965029
     96          1           0       -1.738102   -4.961307    0.634001
     97          1           0       -3.805045    2.105174    0.433754
     98          1           0       -3.596955    4.167948   -0.727878
     99          1           0       -3.170614    6.559571   -0.284931
 ---------------------------------------------------------------------

 The electronic state is 1-A.
 Alpha  occ. eigenvalues --  -14.42558 -14.34438 -14.33053 -14.33034 -10.26080
 Alpha  occ. eigenvalues --  -10.24701 -10.24680 -10.24659 -10.23291 -10.21134
 Alpha  occ. eigenvalues --  -10.21033 -10.20982 -10.20939 -10.20575 -10.20567
 Alpha  occ. eigenvalues --  -10.20556 -10.20508 -10.20414 -10.20332 -10.20286
 Alpha  occ. eigenvalues --  -10.20236 -10.20122 -10.20062 -10.20046 -10.19774
 Alpha  occ. eigenvalues --  -10.19711 -10.19643 -10.19551 -10.19497 -10.19442
 Alpha  occ. eigenvalues --  -10.19435 -10.19410 -10.19392 -10.19362 -10.19333
 Alpha  occ. eigenvalues --  -10.19315 -10.19262 -10.19244 -10.19236 -10.19174
 Alpha  occ. eigenvalues --  -10.19159 -10.19135 -10.19121 -10.19096 -10.19071
 Alpha  occ. eigenvalues --  -10.19069 -10.19044 -10.19022 -10.19005 -10.18997
 Alpha  occ. eigenvalues --  -10.18985 -10.18955 -10.18918 -10.18899 -10.18894
 Alpha  occ. eigenvalues --  -10.18831 -10.18812 -10.18610 -10.18588 -10.18412
 Alpha  occ. eigenvalues --  -10.18382  -1.05554  -0.98471  -0.89715  -0.89255
 Alpha  occ. eigenvalues --   -0.87565  -0.86490  -0.86248  -0.85875  -0.85484
 Alpha  occ. eigenvalues --   -0.85137  -0.84455  -0.84285  -0.81418  -0.80736
 Alpha  occ. eigenvalues --   -0.79348  -0.78711  -0.77081  -0.76736  -0.75379
 Alpha  occ. eigenvalues --   -0.75194  -0.74965  -0.74807  -0.74544  -0.74383
 Alpha  occ. eigenvalues --   -0.74324  -0.74037  -0.73878  -0.73091  -0.72893
 Alpha  occ. eigenvalues --   -0.71871  -0.71118  -0.66836  -0.66323  -0.64784
 Alpha  occ. eigenvalues --   -0.63616  -0.63177  -0.62882  -0.61918  -0.61264
 Alpha  occ. eigenvalues --   -0.60615  -0.60586  -0.60544  -0.60297  -0.60257
 Alpha  occ. eigenvalues --   -0.59787  -0.59650  -0.58940  -0.57663  -0.56964
 Alpha  occ. eigenvalues --   -0.56737  -0.56670  -0.54266  -0.54075  -0.53065
 Alpha  occ. eigenvalues --   -0.52434  -0.51624  -0.51214  -0.51104  -0.50894
 Alpha  occ. eigenvalues --   -0.50104  -0.49806  -0.48626  -0.47518  -0.47387
 Alpha  occ. eigenvalues --   -0.47304  -0.47065  -0.46934  -0.46740  -0.45816
 Alpha  occ. eigenvalues --   -0.45465  -0.45449  -0.45337  -0.44844  -0.44792
 Alpha  occ. eigenvalues --   -0.44602  -0.44292  -0.43761  -0.43666  -0.43442
 Alpha  occ. eigenvalues --   -0.43358  -0.43290  -0.42875  -0.42718  -0.42473
 Alpha  occ. eigenvalues --   -0.42418  -0.42229  -0.42075  -0.41911  -0.41896
 Alpha  occ. eigenvalues --   -0.41828  -0.41567  -0.41329  -0.40941  -0.40455
 Alpha  occ. eigenvalues --   -0.40261  -0.38535  -0.38007  -0.37654  -0.37236
 Alpha  occ. eigenvalues --   -0.37131  -0.36816  -0.36668  -0.36620  -0.36395
 Alpha  occ. eigenvalues --   -0.36140  -0.35924  -0.35510  -0.35275  -0.35185
 Alpha  occ. eigenvalues --   -0.35043  -0.34622  -0.34492  -0.34448  -0.34367
 Alpha  occ. eigenvalues --   -0.34189  -0.33745  -0.33689  -0.33538  -0.33476
 Alpha  occ. eigenvalues --   -0.32253  -0.31697  -0.30450  -0.29754  -0.29295
 Alpha  occ. eigenvalues --   -0.28896  -0.28278  -0.27301  -0.26189  -0.26003
 Alpha  occ. eigenvalues --   -0.25527  -0.25386  -0.25130  -0.25107  -0.24997
 Alpha  occ. eigenvalues --   -0.24709  -0.24582  -0.24360  -0.24045  -0.23531
 Alpha  occ. eigenvalues --   -0.22864  -0.22381  -0.22073  -0.19995
 Alpha virt. eigenvalues --   -0.06462  -0.05433  -0.04096  -0.03446  -0.03363
 Alpha virt. eigenvalues --   -0.02379  -0.00858  -0.00526  -0.00480  -0.00205
 Alpha virt. eigenvalues --   -0.00182  -0.00063   0.00247   0.00456   0.00636

 Mulliken charges:
               1
     1  C   -0.125746
     2  C   -0.133847
     3  C   -0.171469
     4  C    0.087662
     5  C    0.090264
     6  C   -0.228592
     7  C    0.093465
     8  C    0.088566
     9  C   -0.171026
    10  C   -0.134898
    11  C   -0.125594
    12  C   -0.134299
    13  C   -0.171658
    14  C   -0.218713
    15  C    0.098255
    16  C    0.278310
    17  C   -0.219570
    18  C    0.277256
    19  C    0.099562
    20  C   -0.178206
    21  C   -0.153615
    22  C    0.040507
    23  C   -0.095463
    24  C    0.253903
    25  C    0.097770
    26  C   -0.140935
    27  C   -0.136221
    28  C   -0.121325
    29  C   -0.140253
    30  C   -0.121354
    31  N   -0.480620
    32  N   -0.304001
    33  C    0.046635
    34  C   -0.126031
    35  C    0.073992
    36  C   -0.171016
    37  C   -0.134014
    38  C   -0.127179
    39  C   -0.133117
    40  C   -0.167529
    41  C    0.342902
    42  C    0.038860
    43  C   -0.197853
    44  C   -0.142841
    45  C   -0.124387
    46  C   -0.215600
    47  C    0.165394
    48  C   -0.172334
    49  C   -0.162580
    50  N   -0.556481
    51  C    0.445259
    52  C    0.074629
    53  C   -0.162843
    54  C   -0.139448
    55  C   -0.118902
    56  C   -0.139236
    57  C   -0.161661
    58  N   -0.555997
    59  C   -0.234733
    60  C   -0.171971
    61  C   -0.133952
    62  H    0.131796
    63  H    0.132579
    64  H    0.132331
    65  H    0.141114
    66  H    0.136843
    67  H    0.132407
    68  H    0.130763
    69  H    0.131204
    70  H    0.130255
    71  H    0.163850
    72  H    0.149967
    73  H    0.134001
    74  H    0.140144
    75  H    0.138019
    76  H    0.134171
    77  H    0.131630
    78  H    0.131720
    79  H    0.139631
    80  H    0.150141
    81  H    0.138555
    82  H    0.131270
    83  H    0.129966
    84  H    0.131535
    85  H    0.134999
    86  H    0.161390
    87  H    0.134426
    88  H    0.133329
    89  H    0.150085
    90  H    0.142317
    91  H    0.162118
    92  H    0.159059
    93  H    0.130549
    94  H    0.129650
    95  H    0.129512
    96  H    0.155307
    97  H    0.136197
    98  H    0.129120
    99  H    0.131973
 Sum of Mulliken charges =  -0.00000

 Dipole moment (field-independent basis, Debye):
    X=             -0.5566    Y=              1.5081    Z=             -1.5895  Tot=              2.2607
 Quadrupole moment (field-independent basis, Debye-Ang):
   XX=           -313.9280   YY=           -321.9911   ZZ=           -339.3201
   XY=             -4.4123   XZ=            -13.7030   YZ=              5.0875

 1\1\GINC-NODE07\FOpt\RB3LYP\6-31G(d)\C57H38N4\WYKGROUP\05-Nov-2022\0\\
 #p b3lyp/6-31g(d) opt SCF=XQC\\Gaussian input prepared by ASE\\0,1\C,-
 5.4939463294,3.6130855708,5.3709117849\C,-6.6533476704,2.8872636343,5.
 0917695351\C,-6.7782896114,2.2002449923,3.8851837719\C,-5.7479519787,2
 .2243578136,2.9303289776\C,-5.8815691853,1.4912273356,1.6443377027\C,-
 7.1053092257,1.4576633656,0.9605217903\C,-7.2538576646,0.7641916021,-0
 .2502329599\C,-8.559266235,0.7456295108,-0.9611326784\C,-8.6180380401,
 0.8116919342,-2.3633276219\C,-9.8420172483,0.7938788479,-3.0303352169\

 Normal termination of Gaussian 16 at Sat Nov  5 01:14:28 2022.
