 Gaussian 16, Revision B.01,
 Gaussian 16:  ES64L-G16RevB.01 20-Dec-2017

 -----------------------------
 #p b3lyp/6-31g(d) opt SCF=XQC
 -----------------------------

 ------------------------------
 Gaussian input prepared by ASE
 ------------------------------
 Symbolic Z-matrix:
 Charge =  0 Multiplicity = 1

 SCF Done:  E(RB3LYP) =  -2293.30383825     A.U. after   16 cycles
 SCF Done:  E(RB3LYP) =  -2293.31813664     A.U. after   13 cycles
 SCF Done:  E(RB3LYP) =  -2293.32058633     A.U. after   12 cycles
 SCF Done:  E(RB3LYP) =  -2293.32145784     A.U. after   13 cycles
 SCF Done:  E(RB3LYP) =  -2293.32167021     A.U. after   11 cycles
 SCF Done:  E(RB3LYP) =  -2293.32175066     A.U. after   11 cycles
 SCF Done:  E(RB3LYP) =  -2293.32178671     A.U. after   10 cycles
 SCF Done:  E(RB3LYP) =  -2293.32181875     A.U. after   10 cycles
 SCF Done:  E(RB3LYP) =  -2293.32183695     A.U. after   10 cycles
 SCF Done:  E(RB3LYP) =  -2293.32184167     A.U. after    9 cycles
 SCF Done:  E(RB3LYP) =  -2293.32184383     A.U. after    9 cycles
 SCF Done:  E(RB3LYP) =  -2293.32184454     A.U. after    7 cycles
 SCF Done:  E(RB3LYP) =  -2293.32184507     A.U. after    7 cycles
 SCF Done:  E(RB3LYP) =  -2293.32184556     A.U. after    7 cycles
 SCF Done:  E(RB3LYP) =  -2293.32184583     A.U. after    7 cycles
 SCF Done:  E(RB3LYP) =  -2293.32184599     A.U. after    7 cycles
 SCF Done:  E(RB3LYP) =  -2293.32184603     A.U. after    6 cycles
 SCF Done:  E(RB3LYP) =  -2293.32184603     A.U. after    6 cycles
 Optimization completed.
    -- Stationary point found.

                         Standard orientation:
 ---------------------------------------------------------------------
 Center     Atomic      Atomic             Coordinates (Angstroms)
 Number     Number       Type             X           Y           Z
 ---------------------------------------------------------------------
      1          6           0       -1.087532   -1.689576    2.028341
      2          6           0       -0.253136   -2.082953    0.832972
      3          6           0        0.717465   -3.080903    0.954925
      4          6           0        1.537252   -3.457172   -0.117463
      5          6           0        2.539479   -4.548616    0.046139
      6          6           0        2.101699   -5.783088    0.558389
      7          6           0        2.980430   -6.849890    0.721690
      8          6           0        4.322307   -6.700326    0.371814
      9          6           0        4.784088   -5.483930   -0.132815
     10          6           0        3.900839   -4.396338   -0.291859
     11          6           0        4.532102   -3.100036   -0.755965
     12          6           0        5.800901   -2.790188    0.070483
     13          6           0        6.802872   -3.976065    0.117341
     14          6           0        6.226813   -5.262232   -0.520687
     15          6           0        1.350149   -2.809051   -1.345734
     16          6           0        0.384405   -1.814052   -1.519465
     17          6           0        0.208850   -1.159861   -2.868994
     18          6           0       -0.416896   -1.451196   -0.417044
     19          7           0       -1.413324   -0.425555   -0.569217
     20          6           0       -2.782301   -0.792104   -0.515409
     21          6           0       -3.190882   -2.045712   -1.010007
     22          6           0       -4.523986   -2.447053   -0.939715
     23          6           0       -5.473328   -1.589137   -0.383159
     24          6           0       -5.070912   -0.333555    0.115028
     25          6           0       -3.743645    0.062638    0.063709
     26          6           0       -6.264927    0.430442    0.690008
     27          6           0       -6.502138    1.754287   -0.070683
     28          6           0       -6.080893    0.715324    2.197359
     29          6           0       -7.399854   -0.564878    0.444968
     30          6           0       -8.749095   -0.441264    0.754904
     31          6           0       -9.622814   -1.488628    0.436640
     32          6           0       -9.144414   -2.646617   -0.184732
     33          6           0       -7.789442   -2.778007   -0.497969
     34          6           0       -6.918286   -1.733059   -0.181441
     35          6           0       -0.994752    0.911219   -0.769541
     36          6           0       -1.753267    1.803280   -1.557419
     37          6           0       -1.335087    3.114690   -1.764560
     38          6           0       -0.132757    3.553894   -1.204880
     39          6           0        0.636702    2.659824   -0.438721
     40          6           0        0.219569    1.357353   -0.210487
     41          6           0        1.914184    3.343134    0.064086
     42          6           0        3.199385    2.641254   -0.386790
     43          6           0        3.629838    2.368050   -1.679580
     44          6           0        4.852783    1.712915   -1.860534
     45          6           0        5.630111    1.339889   -0.757998
     46          6           0        5.198456    1.612479    0.542250
     47          6           0        3.977824    2.265963    0.724652
     48          6           0        3.279644    2.682383    1.948954
     49          6           0        3.627768    2.545368    3.294403
     50          6           0        2.761927    3.045176    4.269528
     51          6           0        1.565388    3.673376    3.906147
     52          6           0        1.214656    3.811353    2.558723
     53          6           0        2.074472    3.313965    1.586843
     54          6           0        1.749319    4.752564   -0.516115
     55          6           0        2.598678    5.844639   -0.393356
     56          6           0        2.248163    7.048173   -1.016382
     57          6           0        1.061112    7.148427   -1.750007
     58          6           0        0.204748    6.051817   -1.874069
     59          6           0        0.552526    4.849473   -1.253616
     60          1           0       -1.129455   -0.601426    2.146445
     61          1           0       -2.123019   -2.037830    1.931908
     62          1           0       -0.672241   -2.118277    2.945319
     63          1           0        0.859830   -3.559577    1.920565
     64          1           0        1.051289   -5.902982    0.809538
     65          1           0        2.618793   -7.797030    1.113529
     66          1           0        5.015728   -7.529934    0.492163
     67          1           0        3.833192   -2.264177   -0.679809
     68          1           0        4.807726   -3.177215   -1.819345
     69          1           0        5.483623   -2.535782    1.088340
     70          1           0        6.280608   -1.892297   -0.335788
     71          1           0        7.071301   -4.188470    1.158504
     72          1           0        7.736335   -3.715070   -0.395231
     73          1           0        6.292311   -5.169170   -1.615377
     74          1           0        6.839387   -6.129737   -0.250050
     75          1           0        1.952006   -3.108070   -2.199942
     76          1           0        0.619576   -0.142788   -2.879113
     77          1           0       -0.848530   -1.076849   -3.141561
     78          1           0        0.720928   -1.735741   -3.645870
     79          1           0       -2.451358   -2.707216   -1.448778
     80          1           0       -4.810763   -3.420699   -1.329281
     81          1           0       -3.432018    1.020365    0.469060
     82          1           0       -6.638212    1.573973   -1.141910
     83          1           0       -7.397397    2.262302    0.306389
     84          1           0       -5.650831    2.433019    0.057695
     85          1           0       -6.971227    1.203759    2.610242
     86          1           0       -5.224995    1.379444    2.365266
     87          1           0       -5.910049   -0.210948    2.755177
     88          1           0       -9.130365    0.455405    1.238546
     89          1           0      -10.679634   -1.400560    0.674221
     90          1           0       -9.833056   -3.452169   -0.426107
     91          1           0       -7.423755   -3.681143   -0.980342
     92          1           0       -2.674057    1.456178   -2.013230
     93          1           0       -1.940421    3.778773   -2.376614
     94          1           0        0.818533    0.681409    0.391145
     95          1           0        3.029070    2.661019   -2.536612
     96          1           0        5.203145    1.495014   -2.865856
     97          1           0        6.581174    0.837657   -0.914749
     98          1           0        5.806656    1.320928    1.394725
     99          1           0        4.556136    2.058501    3.582234
    100          1           0        3.020172    2.945612    5.320490
    101          1           0        0.902825    4.058037    4.676844
    102          1           0        0.285682    4.300647    2.278044
    103          1           0        3.520896    5.767648    0.176661
    104          1           0        2.903412    7.910593   -0.928910
    105          1           0        0.801765    8.089416   -2.228150
    106          1           0       -0.716789    6.137161   -2.444499
 ---------------------------------------------------------------------

 The electronic state is 1-A.
 Alpha  occ. eigenvalues --  -14.36194 -10.23029 -10.22845 -10.21826 -10.21262
 Alpha  occ. eigenvalues --  -10.20446 -10.19597 -10.19560 -10.19386 -10.19345
 Alpha  occ. eigenvalues --  -10.19299 -10.19293 -10.19270 -10.19231 -10.19100
 Alpha  occ. eigenvalues --  -10.19080 -10.19049 -10.19043 -10.19034 -10.18988
 Alpha  occ. eigenvalues --  -10.18970 -10.18921 -10.18902 -10.18845 -10.18840
 Alpha  occ. eigenvalues --  -10.18823 -10.18787 -10.18714 -10.18697 -10.18697
 Alpha  occ. eigenvalues --  -10.18694 -10.18660 -10.18606 -10.18604 -10.18597
 Alpha  occ. eigenvalues --  -10.18532 -10.18496 -10.18478 -10.18441 -10.18429
 Alpha  occ. eigenvalues --  -10.18422 -10.18415 -10.18395 -10.18394 -10.18382
 Alpha  occ. eigenvalues --  -10.18357 -10.18288 -10.18195 -10.18136 -10.18074
 Alpha  occ. eigenvalues --  -10.18021 -10.17965 -10.17949 -10.17864 -10.17822
 Alpha  occ. eigenvalues --  -10.17807 -10.17794 -10.17783 -10.17688  -0.96083
 Alpha  occ. eigenvalues --   -0.89884  -0.88256  -0.86948  -0.86506  -0.84926
 Alpha  occ. eigenvalues --   -0.84161  -0.84144  -0.83083  -0.80785  -0.80494
 Alpha  occ. eigenvalues --   -0.80160  -0.78261  -0.77950  -0.77700  -0.76859
 Alpha  occ. eigenvalues --   -0.76005  -0.74404  -0.74162  -0.74047  -0.73920
 Alpha  occ. eigenvalues --   -0.73638  -0.72920  -0.72742  -0.71634  -0.71209
 Alpha  occ. eigenvalues --   -0.70587  -0.70293  -0.68480  -0.68026  -0.67663
 Alpha  occ. eigenvalues --   -0.67509  -0.64396  -0.63731  -0.63454  -0.62784
 Alpha  occ. eigenvalues --   -0.62277  -0.61000  -0.59849  -0.59610  -0.58704
 Alpha  occ. eigenvalues --   -0.58214  -0.58039  -0.57636  -0.57330  -0.57179
 Alpha  occ. eigenvalues --   -0.56958  -0.56189  -0.55863  -0.54493  -0.53549
 Alpha  occ. eigenvalues --   -0.52378  -0.51374  -0.50896  -0.50562  -0.50328
 Alpha  occ. eigenvalues --   -0.49548  -0.49171  -0.48570  -0.47913  -0.47489
 Alpha  occ. eigenvalues --   -0.46906  -0.46430  -0.46207  -0.45450  -0.45369
 Alpha  occ. eigenvalues --   -0.44997  -0.44455  -0.44336  -0.44027  -0.43997
 Alpha  occ. eigenvalues --   -0.43534  -0.43180  -0.43009  -0.42952  -0.42740
 Alpha  occ. eigenvalues --   -0.42659  -0.42455  -0.42073  -0.41903  -0.41768
 Alpha  occ. eigenvalues --   -0.41634  -0.41467  -0.41238  -0.41171  -0.40881
 Alpha  occ. eigenvalues --   -0.40695  -0.40221  -0.40057  -0.39710  -0.39645
 Alpha  occ. eigenvalues --   -0.38963  -0.38857  -0.38624  -0.38278  -0.38174
 Alpha  occ. eigenvalues --   -0.37899  -0.37553  -0.37209  -0.37009  -0.36782
 Alpha  occ. eigenvalues --   -0.36561  -0.36473  -0.36125  -0.35906  -0.35459
 Alpha  occ. eigenvalues --   -0.35121  -0.34957  -0.34671  -0.34568  -0.34397
 Alpha  occ. eigenvalues --   -0.34036  -0.33877  -0.33667  -0.33559  -0.33472
 Alpha  occ. eigenvalues --   -0.33328  -0.33234  -0.33012  -0.32305  -0.32006
 Alpha  occ. eigenvalues --   -0.31580  -0.31485  -0.30680  -0.30529  -0.30049
 Alpha  occ. eigenvalues --   -0.28005  -0.27968  -0.26263  -0.25906  -0.24721
 Alpha  occ. eigenvalues --   -0.24426  -0.24304  -0.24221  -0.23955  -0.23617
 Alpha  occ. eigenvalues --   -0.23546  -0.22961  -0.22130  -0.21596  -0.20890
 Alpha  occ. eigenvalues --   -0.17507
 Alpha virt. eigenvalues --   -0.03343  -0.02961  -0.02572  -0.01528  -0.01254
 Alpha virt. eigenvalues --   -0.00870  -0.00457   0.00190   0.00395   0.00943
 Alpha virt. eigenvalues --    0.01287   0.01838   0.02413   0.03818   0.04469

 Mulliken charges:
               1
     1  C   -0.534906
     2  C    0.195814
     3  C   -0.268237
     4  C    0.108033
     5  C    0.006000
     6  C   -0.169809
     7  C   -0.133173
     8  C   -0.191636
     9  C    0.126228
    10  C    0.090188
    11  C   -0.356761
    12  C   -0.266449
    13  C   -0.259539
    14  C   -0.353357
    15  C   -0.265636
    16  C    0.196136
    17  C   -0.534389
    18  C    0.092964
    19  N   -0.668490
    20  C    0.314355
    21  C   -0.191555
    22  C   -0.206336
    23  C    0.083939
    24  C    0.096575
    25  C   -0.260110
    26  C   -0.061417
    27  C   -0.438175
    28  C   -0.437358
    29  C    0.101225
    30  C   -0.204084
    31  C   -0.133133
    32  C   -0.136350
    33  C   -0.194477
    34  C    0.080451
    35  C    0.321161
    36  C   -0.187637
    37  C   -0.204993
    38  C    0.068326
    39  C    0.124446
    40  C   -0.259379
    41  C   -0.274084
    42  C    0.129137
    43  C   -0.188596
    44  C   -0.136491
    45  C   -0.136819
    46  C   -0.189796
    47  C    0.066124
    48  C    0.065785
    49  C   -0.190051
    50  C   -0.135088
    51  C   -0.136368
    52  C   -0.187613
    53  C    0.125924
    54  C    0.123060
    55  C   -0.189698
    56  C   -0.137462
    57  C   -0.135106
    58  C   -0.194099
    59  C    0.069092
    60  H    0.167613
    61  H    0.175626
    62  H    0.153226
    63  H    0.128088
    64  H    0.128290
    65  H    0.124842
    66  H    0.119017
    67  H    0.162933
    68  H    0.140089
    69  H    0.142751
    70  H    0.134614
    71  H    0.140615
    72  H    0.131842
    73  H    0.147747
    74  H    0.138737
    75  H    0.129034
    76  H    0.175914
    77  H    0.165722
    78  H    0.152075
    79  H    0.143117
    80  H    0.130524
    81  H    0.140991
    82  H    0.155668
    83  H    0.143941
    84  H    0.145384
    85  H    0.143705
    86  H    0.144869
    87  H    0.156769
    88  H    0.122339
    89  H    0.124820
    90  H    0.125825
    91  H    0.126430
    92  H    0.145287
    93  H    0.130732
    94  H    0.153494
    95  H    0.139068
    96  H    0.128554
    97  H    0.129324
    98  H    0.129991
    99  H    0.129227
   100  H    0.128561
   101  H    0.128850
   102  H    0.138417
   103  H    0.137599
   104  H    0.127549
   105  H    0.127001
   106  H    0.126884
 Sum of Mulliken charges =  -0.00000

 Dipole moment (field-independent basis, Debye):
    X=              0.6794    Y=              0.1847    Z=              0.1493  Tot=              0.7197
 Quadrupole moment (field-independent basis, Debye-Ang):
   XX=           -319.1606   YY=           -330.7490   ZZ=           -330.0030
   XY=             -8.4245   XZ=             -1.5535   YZ=              0.6180

 1\1\GINC-NODE86\FOpt\RB3LYP\6-31G(d)\C58H47N1\WYKGROUP\05-Nov-2022\0\\
 #p b3lyp/6-31g(d) opt SCF=XQC\\Gaussian input prepared by ASE\\0,1\C,-
 1.3991454075,1.5864233856,1.7956656189\C,-1.8702647481,0.4361289738,0.
 9384973791\C,-2.7832225861,-0.4898778283,1.4502227781\C,-3.2244324793,
 -1.590819036,0.7039595094\C,-4.2233405343,-2.538169492,1.2759575987\C,
 -5.4177523399,-2.0107400192,1.7986168623\C,-6.4002441671,-2.8390516373
 ,2.3329494254\C,-6.2047428216,-4.219917236,2.3530687108\C,-5.025841510
 6,-4.7687418034,1.846614836\C,-4.02254697,-3.9342647134,1.312451033\C,

 Normal termination of Gaussian 16 at Sat Nov  5 02:15:45 2022.
