 Gaussian 16, Revision B.01,
 Gaussian 16:  ES64L-G16RevB.01 20-Dec-2017

 -------------------------------------------------------------------
 #p b3lyp/6-31g(d) 6D 10F nosymm GFInput td=(50-50,nstate=2) SCF=XQC
 -------------------------------------------------------------------

 ------------------------------
 Gaussian input prepared by ASE
 ------------------------------
 Symbolic Z-matrix:
 Charge =  0 Multiplicity = 1

                          Input orientation:
 ---------------------------------------------------------------------
 Center     Atomic      Atomic             Coordinates (Angstroms)
 Number     Number       Type             X           Y           Z
 ---------------------------------------------------------------------
      1          6           0       -1.399145    1.586423    1.795666
      2          6           0       -1.870265    0.436129    0.938497
      3          6           0       -2.783223   -0.489878    1.450223
      4          6           0       -3.224432   -1.590819    0.703960
      5          6           0       -4.223341   -2.538169    1.275958
      6          6           0       -5.417752   -2.010740    1.798617
      7          6           0       -6.400244   -2.839052    2.332949
      8          6           0       -6.204743   -4.219917    2.353069
      9          6           0       -5.025842   -4.768742    1.846615
     10          6           0       -4.022547   -3.934265    1.312451
     11          6           0       -2.748889   -4.631657    0.881494
     12          6           0       -2.266325   -5.604445    1.981353
     13          6           0       -3.372066   -6.587471    2.454049
     14          6           0       -4.756592   -6.254859    1.849394
     15          6           0       -2.732646   -1.739779   -0.599756
     16          6           0       -1.828149   -0.833183   -1.159072
     17          6           0       -1.343294   -1.027375   -2.575837
     18          6           0       -1.395651    0.258139   -0.377382
     19          7           0       -0.460320    1.201180   -0.928557
     20          6           0       -0.906154    2.517607   -1.210697
     21          6           0       -2.231373    2.731287   -1.636412
     22          6           0       -2.707523    4.016945   -1.888498
     23          6           0       -1.855397    5.110523   -1.730405
     24          6           0       -0.528214    4.903829   -1.303233
     25          6           0       -0.055403    3.628985   -1.034046
     26          6           0        0.217059    6.234325   -1.183584
     27          6           0        1.428396    6.286254   -2.141420
     28          6           0        0.681666    6.493468    0.266974
     29          6           0       -0.870826    7.222751   -1.605822
     30          6           0       -0.800460    8.607618   -1.700600
     31          6           0       -1.931336    9.323345   -2.113523
     32          6           0       -3.118741    8.653771   -2.426011
     33          6           0       -3.196819    7.262241   -2.331802
     34          6           0       -2.068702    6.548406   -1.920938
     35          6           0        0.869513    0.783604   -1.172423
     36          6           0        1.615976    1.314493   -2.246119
     37          6           0        2.919865    0.894597   -2.493375
     38          6           0        3.496258   -0.086127   -1.682393
     39          6           0        2.746058   -0.633718   -0.626092
     40          6           0        1.453482   -0.208580   -0.359587
     41          6           0        3.562915   -1.695212    0.120677
     42          6           0        2.899142   -3.076087    0.136657
     43          6           0        2.510064   -3.863137   -0.940566
     44          6           0        1.919103   -5.106469   -0.690708
     45          6           0        1.724018   -5.550583    0.622181
     46          6           0        2.113252   -4.760287    1.706250
     47          6           0        2.702890   -3.518812    1.458622
     48          6           0        3.208927   -2.490199    2.378218
     49          6           0        3.247544   -2.446954    3.773509
     50          6           0        3.797280   -1.325683    4.398727
     51          6           0        4.301761   -0.262654    3.641194
     52          6           0        4.263706   -0.303929    2.243178
     53          6           0        3.716347   -1.418433    1.619071
     54          6           0        4.884172   -1.658923   -0.656027
     55          6           0        6.035722   -2.405322   -0.441715
     56          6           0        7.135997   -2.209425   -1.284648
     57          6           0        7.075816   -1.276315   -2.325335
     58          6           0        5.919170   -0.523707   -2.542256
     59          6           0        4.819607   -0.717672   -1.702685
     60          1           0       -0.309619    1.692945    1.758781
     61          1           0       -1.822255    2.541174    1.460641
     62          1           0       -1.693789    1.435108    2.838445
     63          1           0       -3.139557   -0.367301    2.469957
     64          1           0       -5.576150   -0.936334    1.761575
     65          1           0       -7.318447   -2.410033    2.725686
     66          1           0       -6.968885   -4.875594    2.765063
     67          1           0       -1.956707   -3.914872    0.654332
     68          1           0       -2.927705   -5.199389   -0.045010
     69          1           0       -1.919624   -5.004323    2.830513
     70          1           0       -1.390953   -6.152218    1.613859
     71          1           0       -3.447719   -6.556297    3.546979
     72          1           0       -3.110854   -7.619558    2.191814
     73          1           0       -4.783732   -6.624894    0.813231
     74          1           0       -5.546561   -6.791616    2.386887
     75          1           0       -3.086706   -2.567686   -1.208467
     76          1           0       -0.309466   -1.393216   -2.600266
     77          1           0       -1.360114   -0.088494   -3.139268
     78          1           0       -1.968928   -1.755686   -3.100760
     79          1           0       -2.889014    1.878132   -1.765397
     80          1           0       -3.735424    4.152078   -2.215828
     81          1           0        0.960105    3.474022   -0.682773
     82          1           0        1.119828    6.107826   -3.176555
     83          1           0        1.916819    7.266580   -2.094972
     84          1           0        2.170878    5.527089   -1.868897
     85          1           0        1.155038    7.478624    0.351372
     86          1           0        1.414421    5.740655    0.580266
     87          1           0       -0.162683    6.459708    0.962864
     88          1           0        0.118568    9.137177   -1.459260
     89          1           0       -1.885486   10.406337   -2.191587
     90          1           0       -3.989214    9.221174   -2.744970
     91          1           0       -4.123124    6.747783   -2.575438
     92          1           0        1.160830    2.057543   -2.891732
     93          1           0        3.470047    1.321561   -3.328268
     94          1           0        0.889951   -0.632750    0.465114
     95          1           0        2.664913   -3.521151   -1.960529
     96          1           0        1.612149   -5.733650   -1.523373
     97          1           0        1.269821   -6.521821    0.800310
     98          1           0        1.959776   -5.110645    2.723756
     99          1           0        2.857329   -3.270048    4.366805
    100          1           0        3.833958   -1.278561    5.483882
    101          1           0        4.727377    0.602378    4.142689
    102          1           0        4.657097    0.521846    1.656218
    103          1           0        6.083372   -3.130209    0.366741
    104          1           0        8.043313   -2.786691   -1.128723
    105          1           0        7.938036   -1.134706   -2.971760
    106          1           0        5.879798    0.200663   -3.351975
 ---------------------------------------------------------------------

 SCF Done:  E(RB3LYP) =  -2293.32184952     A.U. after   16 cycles

 Excitation energies and oscillator strengths:

 Excited state symmetry could not be determined.
 Excited State   1:      Triplet-?Sym    2.6079 eV  475.42 nm  f=0.0000  <S**2>=2.000
     199 ->204        -0.11883
     200 ->204        -0.11122
     200 ->207         0.10341
     201 ->202         0.63576
 This state for optimization and/or second-order correction.
 Total Energy, E(TD-HF/TD-DFT) =  -2293.22601098
 Copying the excited state density for this state as the 1-particle RhoCI density.

 Excited state symmetry could not be determined.
 Excited State   2:      Triplet-?Sym    2.8542 eV  434.39 nm  f=0.0000  <S**2>=2.000
     199 ->202        -0.23650
     200 ->202        -0.23199
     201 ->204         0.52190
     201 ->207        -0.20125

 Excited state symmetry could not be determined.
 Excited State   3:      Singlet-?Sym    3.3933 eV  365.38 nm  f=0.8120  <S**2>=0.000
     201 ->202         0.70042

 Excited state symmetry could not be determined.
 Excited State   4:      Singlet-?Sym    3.5066 eV  353.58 nm  f=0.0037  <S**2>=0.000
     201 ->203         0.70113

 Alpha  occ. eigenvalues --  -14.36194 -10.23029 -10.22845 -10.21826 -10.21262
 Alpha  occ. eigenvalues --  -10.20446 -10.19597 -10.19560 -10.19386 -10.19345
 Alpha  occ. eigenvalues --  -10.19299 -10.19293 -10.19270 -10.19231 -10.19100
 Alpha  occ. eigenvalues --  -10.19080 -10.19049 -10.19043 -10.19034 -10.18988
 Alpha  occ. eigenvalues --  -10.18970 -10.18921 -10.18902 -10.18845 -10.18840
 Alpha  occ. eigenvalues --  -10.18823 -10.18787 -10.18714 -10.18697 -10.18697
 Alpha  occ. eigenvalues --  -10.18694 -10.18660 -10.18606 -10.18603 -10.18597
 Alpha  occ. eigenvalues --  -10.18532 -10.18496 -10.18478 -10.18441 -10.18429
 Alpha  occ. eigenvalues --  -10.18422 -10.18415 -10.18395 -10.18394 -10.18382
 Alpha  occ. eigenvalues --  -10.18357 -10.18288 -10.18195 -10.18136 -10.18074
 Alpha  occ. eigenvalues --  -10.18021 -10.17965 -10.17949 -10.17864 -10.17822
 Alpha  occ. eigenvalues --  -10.17807 -10.17794 -10.17783 -10.17688  -0.96083
 Alpha  occ. eigenvalues --   -0.89884  -0.88256  -0.86948  -0.86506  -0.84926
 Alpha  occ. eigenvalues --   -0.84161  -0.84144  -0.83083  -0.80785  -0.80494
 Alpha  occ. eigenvalues --   -0.80160  -0.78261  -0.77950  -0.77700  -0.76859
 Alpha  occ. eigenvalues --   -0.76005  -0.74404  -0.74162  -0.74047  -0.73920
 Alpha  occ. eigenvalues --   -0.73638  -0.72920  -0.72742  -0.71634  -0.71209
 Alpha  occ. eigenvalues --   -0.70587  -0.70293  -0.68480  -0.68026  -0.67663
 Alpha  occ. eigenvalues --   -0.67509  -0.64396  -0.63731  -0.63454  -0.62784
 Alpha  occ. eigenvalues --   -0.62277  -0.61000  -0.59849  -0.59610  -0.58705
 Alpha  occ. eigenvalues --   -0.58214  -0.58039  -0.57636  -0.57330  -0.57179
 Alpha  occ. eigenvalues --   -0.56959  -0.56190  -0.55863  -0.54493  -0.53549
 Alpha  occ. eigenvalues --   -0.52378  -0.51374  -0.50896  -0.50562  -0.50328
 Alpha  occ. eigenvalues --   -0.49548  -0.49171  -0.48570  -0.47913  -0.47489
 Alpha  occ. eigenvalues --   -0.46906  -0.46430  -0.46207  -0.45450  -0.45369
 Alpha  occ. eigenvalues --   -0.44997  -0.44455  -0.44336  -0.44027  -0.43997
 Alpha  occ. eigenvalues --   -0.43534  -0.43180  -0.43009  -0.42952  -0.42740
 Alpha  occ. eigenvalues --   -0.42659  -0.42455  -0.42073  -0.41903  -0.41768
 Alpha  occ. eigenvalues --   -0.41634  -0.41467  -0.41238  -0.41171  -0.40881
 Alpha  occ. eigenvalues --   -0.40695  -0.40221  -0.40057  -0.39710  -0.39645
 Alpha  occ. eigenvalues --   -0.38963  -0.38857  -0.38624  -0.38278  -0.38174
 Alpha  occ. eigenvalues --   -0.37899  -0.37553  -0.37209  -0.37009  -0.36782
 Alpha  occ. eigenvalues --   -0.36561  -0.36473  -0.36125  -0.35906  -0.35459
 Alpha  occ. eigenvalues --   -0.35121  -0.34957  -0.34671  -0.34568  -0.34397
 Alpha  occ. eigenvalues --   -0.34036  -0.33877  -0.33667  -0.33559  -0.33472
 Alpha  occ. eigenvalues --   -0.33328  -0.33234  -0.33012  -0.32305  -0.32006
 Alpha  occ. eigenvalues --   -0.31580  -0.31485  -0.30680  -0.30529  -0.30049
 Alpha  occ. eigenvalues --   -0.28005  -0.27968  -0.26263  -0.25906  -0.24721
 Alpha  occ. eigenvalues --   -0.24426  -0.24304  -0.24221  -0.23955  -0.23617
 Alpha  occ. eigenvalues --   -0.23546  -0.22961  -0.22130  -0.21596  -0.20890
 Alpha  occ. eigenvalues --   -0.17507
 Alpha virt. eigenvalues --   -0.03343  -0.02961  -0.02571  -0.01528  -0.01254
 Alpha virt. eigenvalues --   -0.00870  -0.00457   0.00190   0.00395   0.00943
 Alpha virt. eigenvalues --    0.01287   0.01838   0.02413   0.03818   0.04469

 Mulliken charges:
               1
     1  C   -0.534901
     2  C    0.195828
     3  C   -0.268248
     4  C    0.108040
     5  C    0.005994
     6  C   -0.169816
     7  C   -0.133167
     8  C   -0.191646
     9  C    0.126240
    10  C    0.090222
    11  C   -0.356801
    12  C   -0.266443
    13  C   -0.259538
    14  C   -0.353364
    15  C   -0.265633
    16  C    0.196112
    17  C   -0.534382
    18  C    0.092975
    19  N   -0.668493
    20  C    0.314367
    21  C   -0.191562
    22  C   -0.206315
    23  C    0.083918
    24  C    0.096570
    25  C   -0.260113
    26  C   -0.061409
    27  C   -0.438168
    28  C   -0.437350
    29  C    0.101198
    30  C   -0.204072
    31  C   -0.133134
    32  C   -0.136353
    33  C   -0.194479
    34  C    0.080465
    35  C    0.321158
    36  C   -0.187634
    37  C   -0.204987
    38  C    0.068318
    39  C    0.124438
    40  C   -0.259372
    41  C   -0.274082
    42  C    0.129137
    43  C   -0.188590
    44  C   -0.136488
    45  C   -0.136820
    46  C   -0.189793
    47  C    0.066107
    48  C    0.065813
    49  C   -0.190049
    50  C   -0.135089
    51  C   -0.136378
    52  C   -0.187584
    53  C    0.125885
    54  C    0.123067
    55  C   -0.189709
    56  C   -0.137455
    57  C   -0.135101
    58  C   -0.194113
    59  C    0.069094
    60  H    0.167605
    61  H    0.175623
    62  H    0.153226
    63  H    0.128088
    64  H    0.128289
    65  H    0.124841
    66  H    0.119017
    67  H    0.162937
    68  H    0.140093
    69  H    0.142752
    70  H    0.134612
    71  H    0.140615
    72  H    0.131843
    73  H    0.147747
    74  H    0.138737
    75  H    0.129033
    76  H    0.175916
    77  H    0.165717
    78  H    0.152074
    79  H    0.143117
    80  H    0.130524
    81  H    0.140989
    82  H    0.155669
    83  H    0.143941
    84  H    0.145381
    85  H    0.143704
    86  H    0.144868
    87  H    0.156770
    88  H    0.122338
    89  H    0.124820
    90  H    0.125826
    91  H    0.126430
    92  H    0.145288
    93  H    0.130733
    94  H    0.153494
    95  H    0.139070
    96  H    0.128552
    97  H    0.129324
    98  H    0.129992
    99  H    0.129226
   100  H    0.128562
   101  H    0.128850
   102  H    0.138417
   103  H    0.137598
   104  H    0.127549
   105  H    0.127001
   106  H    0.126885
 Sum of Mulliken charges =  -0.00000

 Dipole moment (field-independent basis, Debye):
    X=              0.2439    Y=             -0.6035    Z=              0.3073  Tot=              0.7198
 Quadrupole moment (field-independent basis, Debye-Ang):
   XX=           -331.5979   YY=           -318.7235   ZZ=           -329.5884
   XY=              7.5460   XZ=             -1.5058   YZ=             -2.6461

 Normal termination of Gaussian 16 at Sat Nov  5 12:16:23 2022.
