 Gaussian 16, Revision B.01,
 Gaussian 16:  ES64L-G16RevB.01 20-Dec-2017

 -----------------------------
 #p b3lyp/6-31g(d) opt SCF=XQC
 -----------------------------

 ------------------------------
 Gaussian input prepared by ASE
 ------------------------------
 Symbolic Z-matrix:
 Charge =  0 Multiplicity = 1

 SCF Done:  E(RB3LYP) =  -1137.02579354     A.U. after   15 cycles
 SCF Done:  E(RB3LYP) =  -1137.03211915     A.U. after   12 cycles
 SCF Done:  E(RB3LYP) =  -1137.03251546     A.U. after   11 cycles
 SCF Done:  E(RB3LYP) =  -1137.03257972     A.U. after   11 cycles
 SCF Done:  E(RB3LYP) =  -1137.03259676     A.U. after   10 cycles
 SCF Done:  E(RB3LYP) =  -1137.03260904     A.U. after   10 cycles
 SCF Done:  E(RB3LYP) =  -1137.03261688     A.U. after    9 cycles
 SCF Done:  E(RB3LYP) =  -1137.03262118     A.U. after    9 cycles
 SCF Done:  E(RB3LYP) =  -1137.03262243     A.U. after    8 cycles
 SCF Done:  E(RB3LYP) =  -1137.03262283     A.U. after    7 cycles
 SCF Done:  E(RB3LYP) =  -1137.03262986     A.U. after    9 cycles
 SCF Done:  E(RB3LYP) =  -1137.03263110     A.U. after    9 cycles
 SCF Done:  E(RB3LYP) =  -1137.03263402     A.U. after    9 cycles
 SCF Done:  E(RB3LYP) =  -1137.03263650     A.U. after   10 cycles
 SCF Done:  E(RB3LYP) =  -1137.03263742     A.U. after    9 cycles
 SCF Done:  E(RB3LYP) =  -1137.03263770     A.U. after    9 cycles
 SCF Done:  E(RB3LYP) =  -1137.03263779     A.U. after    7 cycles
 SCF Done:  E(RB3LYP) =  -1137.03263786     A.U. after    7 cycles
 SCF Done:  E(RB3LYP) =  -1137.03263788     A.U. after    6 cycles
 SCF Done:  E(RB3LYP) =  -1137.03263788     A.U. after    6 cycles
 Optimization completed.
    -- Stationary point found.

                         Standard orientation:
 ---------------------------------------------------------------------
 Center     Atomic      Atomic             Coordinates (Angstroms)
 Number     Number       Type             X           Y           Z
 ---------------------------------------------------------------------
      1          6           0       -4.698987    3.658908   -0.556929
      2          6           0       -4.285776    2.222082   -0.329230
      3          6           0       -2.943464    1.875679   -0.187097
      4          6           0       -2.557968    0.540460    0.017852
      5          6           0       -1.126662    0.151498    0.158944
      6          6           0       -0.095605    0.954952   -0.347726
      7          6           0        1.223231    0.523666   -0.165502
      8          6           0        2.541077    0.994078   -0.499006
      9          6           0        3.426123    0.066372   -0.027250
     10          6           0        4.896420   -0.022543   -0.068662
     11          6           0        5.683808    1.051938    0.408780
     12          6           0        5.078710    2.313801    0.984809
     13          6           0        7.077856    0.938696    0.355291
     14          6           0        7.688535   -0.200716   -0.159100
     15          6           0        6.905896   -1.251486   -0.632006
     16          6           0        5.510551   -1.185691   -0.595532
     17          6           0        4.702380   -2.341576   -1.142380
     18          8           0        2.759182   -0.980155    0.590165
     19          6           0        1.425466   -0.695649    0.499121
     20          6           0        0.358787   -1.456664    0.958024
     21          7           0       -0.890493   -1.029409    0.787281
     22          6           0       -3.553384   -0.439478    0.094535
     23          6           0       -4.914217   -0.127791   -0.043815
     24          6           0       -5.963004   -1.252845    0.047284
     25          6           0       -5.865306   -1.933879    1.433103
     26          6           0       -7.402151   -0.733138   -0.130930
     27          6           0       -5.690563   -2.300904   -1.057746
     28          6           0       -5.256851    1.211528   -0.258771
     29          1           0       -3.854411    4.343520   -0.427947
     30          1           0       -5.488472    3.965590    0.139680
     31          1           0       -5.091899    3.806400   -1.571506
     32          1           0       -2.194203    2.662512   -0.208032
     33          1           0       -0.313595    1.871730   -0.884241
     34          1           0        2.799885    1.896934   -1.033360
     35          1           0        4.205835    2.105428    1.610400
     36          1           0        4.749686    3.004271    0.197699
     37          1           0        5.817079    2.846411    1.592088
     38          1           0        7.687422    1.756919    0.730481
     39          1           0        8.772603   -0.270512   -0.192184
     40          1           0        7.381190   -2.138551   -1.043099
     41          1           0        4.227491   -2.918834   -0.342133
     42          1           0        3.899953   -1.996747   -1.804250
     43          1           0        5.344012   -3.019285   -1.713528
     44          1           0        0.506025   -2.408668    1.464379
     45          1           0       -3.235078   -1.460476    0.271206
     46          1           0       -6.597887   -2.746906    1.511462
     47          1           0       -4.872082   -2.359463    1.607989
     48          1           0       -6.066739   -1.216135    2.236645
     49          1           0       -7.672714   -0.006051    0.643307
     50          1           0       -7.548041   -0.261316   -1.109472
     51          1           0       -8.107606   -1.568812   -0.059192
     52          1           0       -4.693605   -2.742750   -0.962018
     53          1           0       -6.424398   -3.114553   -1.001450
     54          1           0       -5.761293   -1.847786   -2.053380
     55          1           0       -6.298584    1.496441   -0.368219
 ---------------------------------------------------------------------

 The electronic state is 1-A.
 Alpha  occ. eigenvalues --  -19.21792 -14.32366 -10.26083 -10.24479 -10.22434
 Alpha  occ. eigenvalues --  -10.22356 -10.20802 -10.20763 -10.20683 -10.20634
 Alpha  occ. eigenvalues --  -10.19780 -10.19564 -10.19559 -10.19486 -10.19011
 Alpha  occ. eigenvalues --  -10.18969 -10.18769 -10.18745 -10.18609 -10.18304
 Alpha  occ. eigenvalues --  -10.18301 -10.17863 -10.17656 -10.17369 -10.16936
 Alpha  occ. eigenvalues --  -10.16793 -10.16626 -10.16533  -1.11284  -0.93610
 Alpha  occ. eigenvalues --   -0.86823  -0.85167  -0.82448  -0.80877  -0.79322
 Alpha  occ. eigenvalues --   -0.78657  -0.77767  -0.74781  -0.74537  -0.71775
 Alpha  occ. eigenvalues --   -0.70292  -0.68450  -0.68186  -0.67500  -0.67089
 Alpha  occ. eigenvalues --   -0.64931  -0.62532  -0.60863  -0.59648  -0.58297
 Alpha  occ. eigenvalues --   -0.57643  -0.56216  -0.53152  -0.52691  -0.50702
 Alpha  occ. eigenvalues --   -0.50001  -0.48523  -0.47965  -0.47351  -0.45458
 Alpha  occ. eigenvalues --   -0.45353  -0.44831  -0.44436  -0.43981  -0.43016
 Alpha  occ. eigenvalues --   -0.42730  -0.42070  -0.41649  -0.41466  -0.41255
 Alpha  occ. eigenvalues --   -0.40676  -0.40610  -0.40370  -0.40061  -0.39237
 Alpha  occ. eigenvalues --   -0.38707  -0.38206  -0.37845  -0.37490  -0.36745
 Alpha  occ. eigenvalues --   -0.36423  -0.35782  -0.35744  -0.34868  -0.34559
 Alpha  occ. eigenvalues --   -0.34112  -0.33926  -0.33804  -0.31999  -0.31167
 Alpha  occ. eigenvalues --   -0.30826  -0.30577  -0.27040  -0.25936  -0.25094
 Alpha  occ. eigenvalues --   -0.24293  -0.22828  -0.22515  -0.21252
 Alpha virt. eigenvalues --   -0.04475  -0.02422  -0.00551  -0.00183   0.01253
 Alpha virt. eigenvalues --    0.04109   0.05754   0.09046   0.09408   0.10091
 Alpha virt. eigenvalues --    0.10934   0.12173   0.12568   0.12708   0.13421

 Mulliken charges:
               1
     1  C   -0.530861
     2  C    0.184031
     3  C   -0.249534
     4  C    0.125170
     5  C    0.231048
     6  C   -0.249854
     7  C    0.149769
     8  C   -0.240457
     9  C    0.232311
    10  C   -0.030832
    11  C    0.167290
    12  C   -0.532852
    13  C   -0.202353
    14  C   -0.105404
    15  C   -0.202337
    16  C    0.166416
    17  C   -0.528009
    18  O   -0.515235
    19  C    0.306245
    20  C   -0.003178
    21  N   -0.496522
    22  C   -0.243333
    23  C    0.183982
    24  C    0.020520
    25  C   -0.440328
    26  C   -0.455893
    27  C   -0.439501
    28  C   -0.251081
    29  H    0.151536
    30  H    0.158694
    31  H    0.160993
    32  H    0.115364
    33  H    0.140566
    34  H    0.150137
    35  H    0.171310
    36  H    0.162319
    37  H    0.157049
    38  H    0.125968
    39  H    0.132530
    40  H    0.127016
    41  H    0.179800
    42  H    0.164196
    43  H    0.152227
    44  H    0.149392
    45  H    0.149625
    46  H    0.134505
    47  H    0.152386
    48  H    0.144994
    49  H    0.143614
    50  H    0.143038
    51  H    0.139267
    52  H    0.148446
    53  H    0.135199
    54  H    0.143987
    55  H    0.116623
 Sum of Mulliken charges =  -0.00000

 Dipole moment (field-independent basis, Debye):
    X=              2.2029    Y=              1.4185    Z=             -1.0223  Tot=              2.8125
 Quadrupole moment (field-independent basis, Debye-Ang):
   XX=           -144.3036   YY=           -154.3939   ZZ=           -168.4210
   XY=             -0.1824   XZ=              0.2308   YZ=              0.4323

 Normal termination of Gaussian 16 at Sat Nov  5 00:55:14 2022.
