 Gaussian 16, Revision B.01,
 Gaussian 16:  ES64L-G16RevB.01 20-Dec-2017

 -------------------------------------------------------------------
 #p b3lyp/6-31g(d) 6D 10F nosymm GFInput td=(50-50,nstate=2) SCF=XQC
 -------------------------------------------------------------------

 ------------------------------
 Gaussian input prepared by ASE
 ------------------------------
 Symbolic Z-matrix:
 Charge =  0 Multiplicity = 1

                          Input orientation:
 ---------------------------------------------------------------------
 Center     Atomic      Atomic             Coordinates (Angstroms)
 Number     Number       Type             X           Y           Z
 ---------------------------------------------------------------------
      1          6           0        4.269920   -0.346335   -3.666378
      2          6           0        3.848400   -0.209320   -2.220484
      3          6           0        2.506158   -0.287830   -1.854123
      4          6           0        2.112808   -0.154111   -0.512179
      5          6           0        0.681187   -0.222717   -0.105252
      6          6           0       -0.352597    0.039756   -1.015049
      7          6           0       -1.671326   -0.055365   -0.556304
      8          6           0       -2.991339    0.118302   -1.100947
      9          6           0       -3.875020   -0.120704   -0.086806
     10          6           0       -5.346600   -0.090201   -0.016682
     11          6           0       -6.114387   -0.842838   -0.936727
     12          6           0       -5.486334   -1.708049   -2.007806
     13          6           0       -7.510200   -0.792790   -0.845887
     14          6           0       -8.141474   -0.018495    0.122488
     15          6           0       -7.378128    0.723610    1.020745
     16          6           0       -5.981792    0.702131    0.971448
     17          6           0       -5.195371    1.543066    1.952582
     18          8           0       -3.205222   -0.436261    1.084956
     19          6           0       -1.871101   -0.391553    0.791443
     20          6           0       -0.802287   -0.617884    1.648152
     21          7           0        0.447100   -0.534358    1.195981
     22          6           0        3.100651    0.043296    0.458495
     23          6           0        4.461172    0.127403    0.126734
     24          6           0        5.501349    0.349025    1.241594
     25          6           0        5.425571   -0.819261    2.253133
     26          6           0        6.941242    0.420368    0.698807
     27          6           0        5.197097    1.678432    1.972245
     28          6           0        4.811506    0.001374   -1.221881
     29          1           0        3.434368   -0.663995   -4.298504
     30          1           0        5.076099   -1.080643   -3.782448
     31          1           0        4.643524    0.605501   -4.066289
     32          1           0        1.763789   -0.484527   -2.622976
     33          1           0       -0.137218    0.329546   -2.037538
     34          1           0       -3.252723    0.399113   -2.111139
     35          1           0       -4.602893   -2.240610   -1.643660
     36          1           0       -5.167076   -1.115893   -2.874970
     37          1           0       -6.207396   -2.447031   -2.370612
     38          1           0       -8.104603   -1.377374   -1.543579
     39          1           0       -9.226577    0.007540    0.177638
     40          1           0       -7.869670    1.336695    1.771944
     41          1           0       -4.709622    0.926959    2.716521
     42          1           0       -4.403421    2.112603    1.453270
     43          1           0       -5.854553    2.253884    2.459936
     44          1           0       -0.947861   -0.867991    2.697266
     45          1           0        2.776749    0.125743    1.489640
     46          1           0        6.152190   -0.671768    3.061896
     47          1           0        4.432276   -0.901612    2.705665
     48          1           0        5.649734   -1.774582    1.764742
     49          1           0        7.234009   -0.507489    0.194160
     50          1           0        7.071554    1.249302   -0.006410
     51          1           0        7.640403    0.579441    1.527683
     52          1           0        4.198318    1.676669    2.420303
     53          1           0        5.924518    1.847441    2.775988
     54          1           0        5.251751    2.527011    1.280484
     55          1           0        5.853348    0.057377   -1.521532
 ---------------------------------------------------------------------

 SCF Done:  E(RB3LYP) =  -1137.03263884     A.U. after   15 cycles

 Excitation energies and oscillator strengths:

 Excited state symmetry could not be determined.
 Excited State   1:      Triplet-?Sym    3.0350 eV  408.52 nm  f=0.0000  <S**2>=2.000
      94 ->102        -0.10514
      97 ->100        -0.33071
      97 ->104        -0.10032
      98 ->100         0.38673
      99 ->101         0.40144
 This state for optimization and/or second-order correction.
 Total Energy, E(TD-HF/TD-DFT) =  -1136.92110545
 Copying the excited state density for this state as the 1-particle RhoCI density.

 Excited state symmetry could not be determined.
 Excited State   2:      Triplet-?Sym    3.3059 eV  375.04 nm  f=0.0000  <S**2>=2.000
      96 ->103        -0.16130
      97 ->100         0.30883
      97 ->104        -0.13845
      98 ->100        -0.25112
      98 ->102        -0.10744
      98 ->104        -0.14601
      99 ->100        -0.10276
      99 ->101         0.44711

 Excited state symmetry could not be determined.
 Excited State   3:      Singlet-?Sym    4.0452 eV  306.50 nm  f=0.0157  <S**2>=0.000
      98 ->101        -0.12159
      99 ->100         0.68319

 Excited state symmetry could not be determined.
 Excited State   4:      Singlet-?Sym    4.4359 eV  279.50 nm  f=0.1631  <S**2>=0.000
      95 ->100        -0.16327
      97 ->100         0.16318
      98 ->100         0.65644

 Alpha  occ. eigenvalues --  -19.21792 -14.32366 -10.26083 -10.24479 -10.22434
 Alpha  occ. eigenvalues --  -10.22356 -10.20802 -10.20763 -10.20683 -10.20634
 Alpha  occ. eigenvalues --  -10.19780 -10.19564 -10.19559 -10.19486 -10.19011
 Alpha  occ. eigenvalues --  -10.18969 -10.18769 -10.18745 -10.18610 -10.18304
 Alpha  occ. eigenvalues --  -10.18301 -10.17863 -10.17656 -10.17369 -10.16936
 Alpha  occ. eigenvalues --  -10.16793 -10.16626 -10.16533  -1.11284  -0.93610
 Alpha  occ. eigenvalues --   -0.86823  -0.85167  -0.82448  -0.80877  -0.79322
 Alpha  occ. eigenvalues --   -0.78657  -0.77767  -0.74781  -0.74537  -0.71775
 Alpha  occ. eigenvalues --   -0.70292  -0.68450  -0.68186  -0.67500  -0.67089
 Alpha  occ. eigenvalues --   -0.64931  -0.62532  -0.60863  -0.59648  -0.58297
 Alpha  occ. eigenvalues --   -0.57643  -0.56216  -0.53152  -0.52691  -0.50702
 Alpha  occ. eigenvalues --   -0.50001  -0.48523  -0.47965  -0.47351  -0.45458
 Alpha  occ. eigenvalues --   -0.45353  -0.44831  -0.44436  -0.43981  -0.43016
 Alpha  occ. eigenvalues --   -0.42730  -0.42070  -0.41649  -0.41466  -0.41255
 Alpha  occ. eigenvalues --   -0.40676  -0.40610  -0.40370  -0.40061  -0.39237
 Alpha  occ. eigenvalues --   -0.38707  -0.38206  -0.37845  -0.37490  -0.36745
 Alpha  occ. eigenvalues --   -0.36423  -0.35782  -0.35744  -0.34868  -0.34559
 Alpha  occ. eigenvalues --   -0.34112  -0.33926  -0.33804  -0.31999  -0.31167
 Alpha  occ. eigenvalues --   -0.30826  -0.30577  -0.27040  -0.25936  -0.25094
 Alpha  occ. eigenvalues --   -0.24293  -0.22828  -0.22515  -0.21252
 Alpha virt. eigenvalues --   -0.04475  -0.02422  -0.00551  -0.00183   0.01253
 Alpha virt. eigenvalues --    0.04109   0.05754   0.09046   0.09408   0.10091
 Alpha virt. eigenvalues --    0.10934   0.12173   0.12568   0.12708   0.13421

 Mulliken charges:
               1
     1  C   -0.530858
     2  C    0.184026
     3  C   -0.249546
     4  C    0.125166
     5  C    0.231067
     6  C   -0.249868
     7  C    0.149760
     8  C   -0.240449
     9  C    0.232307
    10  C   -0.030829
    11  C    0.167293
    12  C   -0.532853
    13  C   -0.202355
    14  C   -0.105407
    15  C   -0.202329
    16  C    0.166404
    17  C   -0.528011
    18  O   -0.515236
    19  C    0.306248
    20  C   -0.003169
    21  N   -0.496530
    22  C   -0.243311
    23  C    0.183964
    24  C    0.020509
    25  C   -0.440327
    26  C   -0.455893
    27  C   -0.439506
    28  C   -0.251062
    29  H    0.151536
    30  H    0.158694
    31  H    0.160993
    32  H    0.115365
    33  H    0.140568
    34  H    0.150137
    35  H    0.171311
    36  H    0.162319
    37  H    0.157049
    38  H    0.125968
    39  H    0.132530
    40  H    0.127015
    41  H    0.179802
    42  H    0.164197
    43  H    0.152228
    44  H    0.149390
    45  H    0.149626
    46  H    0.134505
    47  H    0.152386
    48  H    0.144994
    49  H    0.143614
    50  H    0.143040
    51  H    0.139267
    52  H    0.148447
    53  H    0.135200
    54  H    0.143988
    55  H    0.116623
 Sum of Mulliken charges =  -0.00000

 Dipole moment (field-independent basis, Debye):
    X=             -2.2102    Y=              0.5786    Z=             -1.6402  Tot=              2.8124
 Quadrupole moment (field-independent basis, Debye-Ang):
   XX=           -142.3315   YY=           -167.3414   ZZ=           -155.5097
   XY=              0.5275   XZ=              0.4665   YZ=              3.9185

 Normal termination of Gaussian 16 at Sat Nov  5 10:22:20 2022.
