 Gaussian 16, Revision B.01,
 Gaussian 16:  ES64L-G16RevB.01 20-Dec-2017

 -------------------------------------------------------------------
 #p b3lyp/6-31g(d) 6D 10F nosymm GFInput td=(50-50,nstate=2) SCF=XQC
 -------------------------------------------------------------------

 ------------------------------
 Gaussian input prepared by ASE
 ------------------------------
 Symbolic Z-matrix:
 Charge =  0 Multiplicity = 1

                          Input orientation:
 ---------------------------------------------------------------------
 Center     Atomic      Atomic             Coordinates (Angstroms)
 Number     Number       Type             X           Y           Z
 ---------------------------------------------------------------------
      1          6           0        1.902989    2.324787   -3.062348
      2          6           0        1.311536    1.301816   -2.085248
      3          6           0        2.132737    1.000214   -0.843425
      4          6           0        3.202296    1.836102   -0.490341
      5          6           0        4.004719    1.602766    0.621135
      6          6           0        3.754416    0.505590    1.454272
      7          6           0        4.582115    0.238530    2.658344
      8          6           0        4.893780   -1.075197    3.048429
      9          6           0        5.671215   -1.323977    4.178646
     10          6           0        6.158531   -0.263723    4.944999
     11          6           0        5.858877    1.047308    4.570129
     12          6           0        5.079050    1.294717    3.441395
     13          6           0        2.673792   -0.321864    1.121932
     14          6           0        1.861818   -0.116541   -0.005817
     15          7           0        0.771750   -1.031771   -0.243741
     16          6           0       -0.557368   -0.489622   -0.232603
     17          6           0       -1.328065   -0.428442   -1.407676
     18          6           0       -2.621395    0.086434   -1.388414
     19          6           0       -3.164723    0.582115   -0.193372
     20          6           0       -2.417225    0.525631    0.974288
     21          6           0       -1.124524   -0.025475    0.989202
     22          6           0       -0.367442   -0.165970    2.296950
     23          6           0       -1.191459   -0.017761    3.580876
     24          6           0       -4.578262    1.119265   -0.413517
     25          6           0       -5.616968    0.341019    0.424959
     26          6           0       -4.665685    2.627751   -0.090097
     27          6           0       -4.761481    0.858027   -1.909663
     28          6           0       -5.860949    1.132743   -2.714792
     29          6           0       -5.811443    0.805283   -4.075526
     30          6           0       -4.670296    0.208034   -4.620259
     31          6           0       -3.562064   -0.071178   -3.816665
     32          6           0       -3.611329    0.255958   -2.460254
     33          6           0        1.054587   -2.395340   -0.819945
     34          6           0        2.170509   -3.103744   -0.019190
     35          6           0       -0.199599   -3.283170   -0.706180
     36          6           0        1.520883   -2.325041   -2.293045
     37          1           0        2.905296    2.035917   -3.399353
     38          1           0        1.970789    3.326473   -2.623636
     39          1           0        1.261719    2.402188   -3.947071
     40          1           0        1.140033    0.365076   -2.624108
     41          1           0        0.312789    1.641810   -1.783818
     42          1           0        3.433835    2.688797   -1.119557
     43          1           0        4.842471    2.263265    0.826611
     44          1           0        4.542641   -1.908047    2.445353
     45          1           0        5.904565   -2.348932    4.455524
     46          1           0        6.765370   -0.457123    5.825466
     47          1           0        6.225342    1.881115    5.163501
     48          1           0        4.829629    2.318183    3.175319
     49          1           0        2.421293   -1.138557    1.786057
     50          1           0       -0.899637   -0.772437   -2.342042
     51          1           0       -2.846810    0.887085    1.903749
     52          1           0        0.117939   -1.149664    2.293879
     53          1           0        0.460193    0.554648    2.326606
     54          1           0       -1.587748    0.996468    3.704536
     55          1           0       -2.037315   -0.714636    3.604779
     56          1           0       -0.560185   -0.225958    4.451636
     57          1           0       -6.632710    0.693002    0.209519
     58          1           0       -5.432893    0.481722    1.496520
     59          1           0       -5.573662   -0.731235    0.208744
     60          1           0       -5.666448    3.015817   -0.313631
     61          1           0       -3.938769    3.198950   -0.676370
     62          1           0       -4.464855    2.807563    0.972545
     63          1           0       -6.753331    1.596721   -2.300519
     64          1           0       -6.666230    1.016748   -4.712545
     65          1           0       -4.645272   -0.041385   -5.677888
     66          1           0       -2.678054   -0.536620   -4.245879
     67          1           0        1.890394   -3.219875    1.032900
     68          1           0        2.329798   -4.103629   -0.437766
     69          1           0        3.121917   -2.568787   -0.071565
     70          1           0       -1.024452   -2.943317   -1.334899
     71          1           0        0.057217   -4.302081   -1.015047
     72          1           0       -0.556780   -3.320779    0.328544
     73          1           0        2.400141   -1.678924   -2.389748
     74          1           0        0.737804   -1.942611   -2.954707
     75          1           0        1.798655   -3.322224   -2.655068
 ---------------------------------------------------------------------

 SCF Done:  E(RB3LYP) =  -1411.99331070     A.U. after   14 cycles

 Excitation energies and oscillator strengths:

 Excited state symmetry could not be determined.
 Excited State   1:      Triplet-?Sym    2.9893 eV  414.76 nm  f=0.0000  <S**2>=2.000
     120 ->136         0.12605
     125 ->134        -0.10582
     127 ->129         0.40609
     127 ->130         0.19729
     128 ->129        -0.39498
     128 ->131         0.22503
 This state for optimization and/or second-order correction.
 Total Energy, E(TD-HF/TD-DFT) =  -1411.88345665
 Copying the excited state density for this state as the 1-particle RhoCI density.

 Excited state symmetry could not be determined.
 Excited State   2:      Triplet-?Sym    3.2030 eV  387.09 nm  f=0.0000  <S**2>=2.000
     121 ->135        -0.15038
     123 ->132         0.14833
     126 ->129        -0.24108
     126 ->130         0.45043
     128 ->130        -0.30445
     128 ->131        -0.11919

 Excited state symmetry could not be determined.
 Excited State   3:      Singlet-?Sym    3.9568 eV  313.35 nm  f=0.1027  <S**2>=0.000
     127 ->129         0.13396
     128 ->129         0.55319
     128 ->130         0.33772
     128 ->131         0.19906

 Excited state symmetry could not be determined.
 Excited State   4:      Singlet-?Sym    3.9864 eV  311.02 nm  f=0.0255  <S**2>=0.000
     128 ->129        -0.36299
     128 ->130         0.57041

 Alpha  occ. eigenvalues --  -14.33048 -10.23159 -10.21657 -10.21476 -10.20223
 Alpha  occ. eigenvalues --  -10.19542 -10.19123 -10.19121 -10.18774 -10.18757
 Alpha  occ. eigenvalues --  -10.18740 -10.18661 -10.18649 -10.18580 -10.18566
 Alpha  occ. eigenvalues --  -10.18518 -10.18489 -10.18460 -10.18422 -10.18326
 Alpha  occ. eigenvalues --  -10.18271 -10.18213 -10.18005 -10.18003 -10.17938
 Alpha  occ. eigenvalues --  -10.17927 -10.17894 -10.17795 -10.17715 -10.17619
 Alpha  occ. eigenvalues --  -10.17618 -10.17385 -10.17232 -10.17189 -10.17158
 Alpha  occ. eigenvalues --  -10.17092  -0.92761  -0.88026  -0.85955  -0.84042
 Alpha  occ. eigenvalues --   -0.83342  -0.80848  -0.79082  -0.78378  -0.77893
 Alpha  occ. eigenvalues --   -0.75229  -0.74662  -0.74163  -0.73567  -0.72958
 Alpha  occ. eigenvalues --   -0.71213  -0.70252  -0.69239  -0.68582  -0.68295
 Alpha  occ. eigenvalues --   -0.68165  -0.64303  -0.63808  -0.62448  -0.61002
 Alpha  occ. eigenvalues --   -0.59660  -0.59329  -0.58615  -0.58174  -0.56528
 Alpha  occ. eigenvalues --   -0.56374  -0.54644  -0.53913  -0.52159  -0.49739
 Alpha  occ. eigenvalues --   -0.48237  -0.48109  -0.47600  -0.47311  -0.46253
 Alpha  occ. eigenvalues --   -0.45761  -0.45137  -0.44612  -0.44134  -0.43972
 Alpha  occ. eigenvalues --   -0.43802  -0.43382  -0.43296  -0.42657  -0.42558
 Alpha  occ. eigenvalues --   -0.42436  -0.42010  -0.41814  -0.41565  -0.41521
 Alpha  occ. eigenvalues --   -0.41182  -0.40473  -0.39006  -0.38724  -0.38389
 Alpha  occ. eigenvalues --   -0.38074  -0.37880  -0.37808  -0.37066  -0.36833
 Alpha  occ. eigenvalues --   -0.36478  -0.36397  -0.36097  -0.35809  -0.35339
 Alpha  occ. eigenvalues --   -0.34913  -0.34596  -0.34343  -0.34323  -0.34051
 Alpha  occ. eigenvalues --   -0.33928  -0.33419  -0.33184  -0.32791  -0.32562
 Alpha  occ. eigenvalues --   -0.32385  -0.31874  -0.31274  -0.30762  -0.26886
 Alpha  occ. eigenvalues --   -0.26387  -0.24824  -0.24678  -0.24239  -0.23961
 Alpha  occ. eigenvalues --   -0.21617  -0.20883  -0.19101
 Alpha virt. eigenvalues --   -0.02369  -0.02202  -0.01049   0.00139   0.00479
 Alpha virt. eigenvalues --    0.01926   0.03488   0.04805   0.07277   0.08688
 Alpha virt. eigenvalues --    0.09251   0.09793   0.10109   0.10700   0.10979

 Mulliken charges:
               1
     1  C   -0.455741
     2  C   -0.343104
     3  C    0.165916
     4  C   -0.212913
     5  C   -0.175395
     6  C    0.090400
     7  C    0.089915
     8  C   -0.177464
     9  C   -0.134529
    10  C   -0.127425
    11  C   -0.134074
    12  C   -0.174315
    13  C   -0.214077
    14  C    0.201258
    15  N   -0.611840
    16  C    0.226067
    17  C   -0.256353
    18  C    0.080233
    19  C    0.118177
    20  C   -0.299089
    21  C    0.167647
    22  C   -0.339976
    23  C   -0.452984
    24  C   -0.062049
    25  C   -0.436879
    26  C   -0.436412
    27  C    0.102556
    28  C   -0.204077
    29  C   -0.132738
    30  C   -0.136812
    31  C   -0.193635
    32  C    0.078767
    33  C    0.232901
    34  C   -0.457073
    35  C   -0.462219
    36  C   -0.448500
    37  H    0.148537
    38  H    0.149211
    39  H    0.145842
    40  H    0.151480
    41  H    0.172104
    42  H    0.126037
    43  H    0.128018
    44  H    0.132386
    45  H    0.128805
    46  H    0.128030
    47  H    0.128917
    48  H    0.131035
    49  H    0.136983
    50  H    0.128347
    51  H    0.119640
    52  H    0.150568
    53  H    0.166783
    54  H    0.146668
    55  H    0.147435
    56  H    0.145889
    57  H    0.142204
    58  H    0.143728
    59  H    0.155912
    60  H    0.142180
    61  H    0.155660
    62  H    0.143790
    63  H    0.122671
    64  H    0.124902
    65  H    0.125437
    66  H    0.124260
    67  H    0.144127
    68  H    0.139844
    69  H    0.159918
    70  H    0.157876
    71  H    0.140950
    72  H    0.153397
    73  H    0.154372
    74  H    0.144149
    75  H    0.137743
 Sum of Mulliken charges =  -0.00000

 Dipole moment (field-independent basis, Debye):
    X=             -0.0286    Y=             -0.2533    Z=              0.0293  Tot=              0.2565
 Quadrupole moment (field-independent basis, Debye-Ang):
   XX=           -209.4860   YY=           -207.8557   ZZ=           -205.4282
   XY=             -3.3701   XZ=              2.9137   YZ=              1.2695

 Normal termination of Gaussian 16 at Sat Nov  5 10:32:02 2022.
