 Gaussian 16, Revision B.01,
 Gaussian 16:  ES64L-G16RevB.01 20-Dec-2017

 -----------------------------
 #p b3lyp/6-31g(d) opt SCF=XQC
 -----------------------------

 ------------------------------
 Gaussian input prepared by ASE
 ------------------------------
 Symbolic Z-matrix:
 Charge =  0 Multiplicity = 1

 SCF Done:  E(RB3LYP) =  -1411.98185330     A.U. after   14 cycles
 SCF Done:  E(RB3LYP) =  -1411.99062788     A.U. after   13 cycles
 SCF Done:  E(RB3LYP) =  -1411.99150681     A.U. after   12 cycles
 SCF Done:  E(RB3LYP) =  -1411.99125431     A.U. after   12 cycles
 SCF Done:  E(RB3LYP) =  -1411.99147666     A.U. after   12 cycles
 SCF Done:  E(RB3LYP) =  -1411.99213320     A.U. after    9 cycles
 SCF Done:  E(RB3LYP) =  -1411.99226119     A.U. after   11 cycles
 SCF Done:  E(RB3LYP) =  -1411.99231965     A.U. after   11 cycles
 SCF Done:  E(RB3LYP) =  -1411.99238375     A.U. after   10 cycles
 SCF Done:  E(RB3LYP) =  -1411.99241197     A.U. after   10 cycles
 SCF Done:  E(RB3LYP) =  -1411.95849775     A.U. after   13 cycles
 SCF Done:  E(RB3LYP) =  -1411.99284478     A.U. after   12 cycles
 SCF Done:  E(RB3LYP) =  -1411.99316179     A.U. after   11 cycles
 SCF Done:  E(RB3LYP) =  -1411.99203478     A.U. after   12 cycles
 SCF Done:  E(RB3LYP) =  -1411.99329087     A.U. after   11 cycles
 SCF Done:  E(RB3LYP) =  -1411.99329793     A.U. after   10 cycles
 SCF Done:  E(RB3LYP) =  -1411.99330972     A.U. after   10 cycles
 SCF Done:  E(RB3LYP) =  -1411.99331091     A.U. after    7 cycles
 SCF Done:  E(RB3LYP) =  -1411.99331103     A.U. after    6 cycles
 SCF Done:  E(RB3LYP) =  -1411.99331105     A.U. after    6 cycles
 Optimization completed.
    -- Stationary point found.

                         Standard orientation:
 ---------------------------------------------------------------------
 Center     Atomic      Atomic             Coordinates (Angstroms)
 Number     Number       Type             X           Y           Z
 ---------------------------------------------------------------------
      1          6           0       -0.033040   -3.074963    2.919511
      2          6           0       -0.041426   -2.153126    1.694294
      3          6           0       -1.367960   -1.497481    1.350932
      4          6           0       -2.417653   -1.510240    2.281156
      5          6           0       -3.661776   -0.946718    2.019802
      6          6           0       -3.908032   -0.318191    0.793069
      7          6           0       -5.220189    0.308239    0.489711
      8          6           0       -5.768142    0.255908   -0.803420
      9          6           0       -7.000128    0.844052   -1.086236
     10          6           0       -7.715758    1.496800   -0.080898
     11          6           0       -7.185706    1.556478    1.209299
     12          6           0       -5.952405    0.970441    1.490207
     13          6           0       -2.857754   -0.280742   -0.133425
     14          6           0       -1.599514   -0.859539    0.101317
     15          7           0       -0.591281   -0.752353   -0.925560
     16          6           0        0.610903   -0.040482   -0.596022
     17          6           0        1.845087   -0.706809   -0.489654
     18          6           0        3.010074   -0.009193   -0.182559
     19          6           0        2.961657    1.372743    0.056063
     20          6           0        1.751700    2.043944   -0.048169
     21          6           0        0.568731    1.369461   -0.395545
     22          6           0       -0.721199    2.142394   -0.599924
     23          6           0       -0.588171    3.661411   -0.755903
     24          6           0        4.346364    1.919923    0.399961
     25          6           0        4.813629    2.969100   -0.633727
     26          6           0        4.375456    2.531052    1.818921
     27          6           0        5.191852    0.647312    0.323280
     28          6           0        6.556544    0.492575    0.538221
     29          6           0        7.129041   -0.779368    0.412975
     30          6           0        6.338971   -1.882624    0.074935
     31          6           0        4.966973   -1.734034   -0.142878
     32          6           0        4.396271   -0.466032   -0.017316
     33          6           0       -0.663777   -1.644043   -2.138393
     34          6           0       -2.070780   -1.583819   -2.774822
     35          6           0        0.325761   -1.151021   -3.211663
     36          6           0       -0.378055   -3.125127   -1.796121
     37          1           0       -0.777134   -3.875350    2.833823
     38          1           0       -0.229620   -2.530459    3.849733
     39          1           0        0.952051   -3.543179    3.021111
     40          1           0        0.297925   -2.725840    0.825902
     41          1           0        0.719753   -1.375549    1.835478
     42          1           0       -2.267428   -1.999428    3.237577
     43          1           0       -4.450208   -1.017599    2.763884
     44          1           0       -5.233357   -0.272033   -1.588228
     45          1           0       -7.406111    0.783686   -2.092804
     46          1           0       -8.676533    1.954517   -0.300640
     47          1           0       -7.729362    2.069244    1.998684
     48          1           0       -5.537445    1.047173    2.491412
     49          1           0       -3.003430    0.255238   -1.062570
     50          1           0        1.882759   -1.780562   -0.633036
     51          1           0        1.718551    3.117294    0.112808
     52          1           0       -1.214821    1.732392   -1.489583
     53          1           0       -1.414064    1.934270    0.225770
     54          1           0       -0.227471    4.142363    0.160381
     55          1           0        0.097235    3.929007   -1.568486
     56          1           0       -1.566919    4.096825   -0.985120
     57          1           0        5.833180    3.305833   -0.411991
     58          1           0        4.158358    3.847870   -0.616291
     59          1           0        4.803113    2.555104   -1.647062
     60          1           0        5.388104    2.860917    2.079350
     61          1           0        4.050039    1.802360    2.568256
     62          1           0        3.712315    3.402016    1.878392
     63          1           0        7.179668    1.344522    0.801178
     64          1           0        8.195078   -0.909728    0.579540
     65          1           0        6.796139   -2.864208   -0.019441
     66          1           0        4.358131   -2.595526   -0.406463
     67          1           0       -2.325968   -0.562497   -3.075861
     68          1           0       -2.083440   -2.212593   -3.671946
     69          1           0       -2.846898   -1.954837   -2.100963
     70          1           0        1.370397   -1.262953   -2.916061
     71          1           0        0.174446   -1.731648   -4.127910
     72          1           0        0.151978   -0.095089   -3.445011
     73          1           0       -1.062193   -3.480993   -1.018157
     74          1           0        0.648199   -3.276408   -1.448012
     75          1           0       -0.521374   -3.757370   -2.680609
 ---------------------------------------------------------------------

 The electronic state is 1-A.
 Alpha  occ. eigenvalues --  -14.33048 -10.23159 -10.21657 -10.21476 -10.20223
 Alpha  occ. eigenvalues --  -10.19542 -10.19123 -10.19121 -10.18774 -10.18757
 Alpha  occ. eigenvalues --  -10.18740 -10.18662 -10.18649 -10.18580 -10.18566
 Alpha  occ. eigenvalues --  -10.18518 -10.18489 -10.18460 -10.18422 -10.18326
 Alpha  occ. eigenvalues --  -10.18271 -10.18213 -10.18005 -10.18003 -10.17938
 Alpha  occ. eigenvalues --  -10.17927 -10.17895 -10.17795 -10.17715 -10.17619
 Alpha  occ. eigenvalues --  -10.17618 -10.17385 -10.17232 -10.17189 -10.17158
 Alpha  occ. eigenvalues --  -10.17092  -0.92761  -0.88026  -0.85955  -0.84041
 Alpha  occ. eigenvalues --   -0.83342  -0.80848  -0.79082  -0.78378  -0.77893
 Alpha  occ. eigenvalues --   -0.75229  -0.74662  -0.74163  -0.73568  -0.72958
 Alpha  occ. eigenvalues --   -0.71214  -0.70252  -0.69239  -0.68582  -0.68295
 Alpha  occ. eigenvalues --   -0.68165  -0.64303  -0.63808  -0.62448  -0.61002
 Alpha  occ. eigenvalues --   -0.59660  -0.59329  -0.58615  -0.58174  -0.56527
 Alpha  occ. eigenvalues --   -0.56374  -0.54644  -0.53913  -0.52159  -0.49740
 Alpha  occ. eigenvalues --   -0.48237  -0.48109  -0.47600  -0.47311  -0.46253
 Alpha  occ. eigenvalues --   -0.45761  -0.45137  -0.44612  -0.44134  -0.43972
 Alpha  occ. eigenvalues --   -0.43802  -0.43382  -0.43296  -0.42657  -0.42558
 Alpha  occ. eigenvalues --   -0.42436  -0.42010  -0.41814  -0.41565  -0.41521
 Alpha  occ. eigenvalues --   -0.41182  -0.40473  -0.39006  -0.38724  -0.38389
 Alpha  occ. eigenvalues --   -0.38074  -0.37880  -0.37808  -0.37066  -0.36833
 Alpha  occ. eigenvalues --   -0.36478  -0.36397  -0.36097  -0.35809  -0.35339
 Alpha  occ. eigenvalues --   -0.34913  -0.34596  -0.34343  -0.34323  -0.34051
 Alpha  occ. eigenvalues --   -0.33928  -0.33419  -0.33184  -0.32791  -0.32562
 Alpha  occ. eigenvalues --   -0.32385  -0.31874  -0.31274  -0.30762  -0.26886
 Alpha  occ. eigenvalues --   -0.26387  -0.24824  -0.24678  -0.24239  -0.23961
 Alpha  occ. eigenvalues --   -0.21617  -0.20883  -0.19101
 Alpha virt. eigenvalues --   -0.02369  -0.02202  -0.01049   0.00139   0.00479
 Alpha virt. eigenvalues --    0.01926   0.03488   0.04805   0.07277   0.08688
 Alpha virt. eigenvalues --    0.09251   0.09793   0.10109   0.10700   0.10979

 Mulliken charges:
               1
     1  C   -0.455729
     2  C   -0.343122
     3  C    0.165921
     4  C   -0.212902
     5  C   -0.175423
     6  C    0.090473
     7  C    0.089899
     8  C   -0.177460
     9  C   -0.134528
    10  C   -0.127429
    11  C   -0.134069
    12  C   -0.174315
    13  C   -0.214123
    14  C    0.201295
    15  N   -0.611852
    16  C    0.226035
    17  C   -0.256356
    18  C    0.080235
    19  C    0.118150
    20  C   -0.299070
    21  C    0.167654
    22  C   -0.339962
    23  C   -0.452990
    24  C   -0.062031
    25  C   -0.436885
    26  C   -0.436416
    27  C    0.102553
    28  C   -0.204080
    29  C   -0.132728
    30  C   -0.136820
    31  C   -0.193628
    32  C    0.078757
    33  C    0.232912
    34  C   -0.457060
    35  C   -0.462218
    36  C   -0.448508
    37  H    0.148535
    38  H    0.149208
    39  H    0.145840
    40  H    0.151480
    41  H    0.172102
    42  H    0.126034
    43  H    0.128015
    44  H    0.132384
    45  H    0.128805
    46  H    0.128030
    47  H    0.128917
    48  H    0.131034
    49  H    0.136983
    50  H    0.128345
    51  H    0.119641
    52  H    0.150566
    53  H    0.166781
    54  H    0.146668
    55  H    0.147438
    56  H    0.145890
    57  H    0.142205
    58  H    0.143729
    59  H    0.155913
    60  H    0.142180
    61  H    0.155662
    62  H    0.143790
    63  H    0.122672
    64  H    0.124902
    65  H    0.125438
    66  H    0.124262
    67  H    0.144125
    68  H    0.139840
    69  H    0.159917
    70  H    0.157878
    71  H    0.140950
    72  H    0.153394
    73  H    0.154372
    74  H    0.144150
    75  H    0.137743
 Sum of Mulliken charges =  -0.00000

 Dipole moment (field-independent basis, Debye):
    X=             -0.0060    Y=             -0.0102    Z=             -0.2563  Tot=              0.2565
 Quadrupole moment (field-independent basis, Debye-Ang):
   XX=           -205.8503   YY=           -207.6184   ZZ=           -209.2685
   XY=             -2.6255   XZ=              2.7848   YZ=              2.8174

 1\1\GINC-NODE64\FOpt\RB3LYP\6-31G(d)\C35H39N1\WYKGROUP\05-Nov-2022\0\\
 #p b3lyp/6-31g(d) opt SCF=XQC\\Gaussian input prepared by ASE\\0,1\C,1
 .9029890477,2.3247865113,-3.0623481928\C,1.3115363638,1.301816148,-2.0
 852484315\C,2.1327369452,1.000213635,-0.8434249074\C,3.2022961049,1.83
 61015549,-0.4903411575\C,4.004719092,1.6027662927,0.621134915\C,3.7544
 158433,0.5055904175,1.4542715151\C,4.5821146917,0.2385301255,2.6583439
 458\C,4.893780453,-1.0751967331,3.0484288022\C,5.671214898,-1.32397720
 36,4.1786458305\C,6.1585308173,-0.2637232602,4.9449992529\C,5.85887675

 Normal termination of Gaussian 16 at Sat Nov  5 01:42:51 2022.
