 Gaussian 16, Revision B.01,
 Gaussian 16:  ES64L-G16RevB.01 20-Dec-2017

 -----------------------------
 #p b3lyp/6-31g(d) opt SCF=XQC
 -----------------------------

 ------------------------------
 Gaussian input prepared by ASE
 ------------------------------
 Symbolic Z-matrix:
 Charge =  0 Multiplicity = 1

 SCF Done:  E(RB3LYP) =  -2058.60112547     A.U. after   16 cycles
 SCF Done:  E(RB3LYP) =  -2058.61489191     A.U. after   15 cycles
 SCF Done:  E(RB3LYP) =  -2058.61798655     A.U. after   13 cycles
 SCF Done:  E(RB3LYP) =  -2058.62099906     A.U. after   13 cycles
 SCF Done:  E(RB3LYP) =  -2058.62158286     A.U. after   12 cycles
 SCF Done:  E(RB3LYP) =  -2058.62178609     A.U. after   12 cycles
 SCF Done:  E(RB3LYP) =  -2058.62184668     A.U. after   10 cycles
 SCF Done:  E(RB3LYP) =  -2058.62186599     A.U. after   10 cycles
 SCF Done:  E(RB3LYP) =  -2058.62187216     A.U. after   10 cycles
 SCF Done:  E(RB3LYP) =  -2058.62187520     A.U. after   10 cycles
 SCF Done:  E(RB3LYP) =  -2058.62187666     A.U. after    9 cycles
 SCF Done:  E(RB3LYP) =  -2058.62187710     A.U. after    8 cycles
 SCF Done:  E(RB3LYP) =  -2058.62187718     A.U. after    7 cycles
 SCF Done:  E(RB3LYP) =  -2058.62187722     A.U. after    6 cycles
 Optimization completed.
    -- Stationary point found.

                         Standard orientation:
 ---------------------------------------------------------------------
 Center     Atomic      Atomic             Coordinates (Angstroms)
 Number     Number       Type             X           Y           Z
 ---------------------------------------------------------------------
      1          6           0        9.202071    3.146571   -0.877043
      2          6           0        7.928230    3.114019   -1.447377
      3          6           0        7.221930    1.914302   -1.520838
      4          6           0        7.771295    0.719827   -1.024814
      5          6           0        7.018566   -0.559168   -1.104101
      6          6           0        7.676875   -1.767229   -1.387345
      7          6           0        6.961290   -2.961355   -1.450751
      8          6           0        5.584415   -2.973823   -1.237465
      9          6           0        4.895664   -1.783027   -0.950460
     10          6           0        3.431156   -1.785782   -0.710249
     11          6           0        2.804227   -2.841423   -0.029614
     12          6           0        1.429884   -2.853043    0.190384
     13          6           0        0.626900   -1.791522   -0.252653
     14          7           0       -0.772318   -1.786617   -0.008714
     15          6           0       -1.693772   -1.406571   -1.017607
     16          6           0       -1.400788   -1.581926   -2.381051
     17          6           0       -2.330812   -1.201537   -3.345394
     18          6           0       -3.564391   -0.663976   -2.983311
     19          6           0       -3.884875   -0.495769   -1.626154
     20          6           0       -5.197238    0.068201   -1.217008
     21          6           0       -5.290604    0.957177   -0.105741
     22          6           0       -6.497272    1.484979    0.286087
     23          6           0       -7.697502    1.162793   -0.401988
     24          6           0       -8.961412    1.688484   -0.024604
     25          6           0      -10.101620    1.348660   -0.717968
     26          6           0      -10.028176    0.464681   -1.822971
     27          6           0       -8.817303   -0.060753   -2.213725
     28          6           0       -7.620957    0.272149   -1.521319
     29          6           0       -6.358933   -0.254141   -1.898766
     30          6           0       -2.938363   -0.863198   -0.659083
     31          6           0       -1.265781   -2.393225    1.190571
     32          6           0       -2.090574   -3.522865    1.085790
     33          6           0       -2.566810   -4.172876    2.220629
     34          6           0       -2.202623   -3.707898    3.485152
     35          6           0       -1.383433   -2.586900    3.595851
     36          6           0       -0.911561   -1.895971    2.466616
     37          6           0       -0.077317   -0.678137    2.672503
     38          6           0        1.020440   -0.718757    3.545583
     39          6           0        1.778981    0.427403    3.780031
     40          6           0        1.453501    1.627554    3.153284
     41          6           0        0.358960    1.699353    2.275196
     42          6           0        0.001219    2.976865    1.605064
     43          6           0        0.998462    3.845522    1.130122
     44          6           0        0.665403    5.043808    0.500041
     45          6           0       -0.673438    5.400582    0.329327
     46          6           0       -1.675704    4.548382    0.796331
     47          6           0       -1.341472    3.351349    1.428000
     48          6           0       -0.391653    0.536708    2.047531
     49          6           0        1.244365   -0.722494   -0.922943
     50          6           0        2.614671   -0.730082   -1.152908
     51          6           0        5.632922   -0.590227   -0.887476
     52          6           0        9.054070    0.769081   -0.453181
     53          6           0        9.761852    1.967992   -0.380480
     54          1           0        9.753343    4.081326   -0.820385
     55          1           0        7.485814    4.023631   -1.845398
     56          1           0        6.242573    1.895142   -1.990926
     57          1           0        8.745050   -1.764408   -1.584532
     58          1           0        7.478349   -3.887764   -1.687344
     59          1           0        5.033590   -3.906509   -1.319017
     60          1           0        3.403294   -3.665135    0.348670
     61          1           0        0.975173   -3.685900    0.716822
     62          1           0       -0.451825   -2.013852   -2.678624
     63          1           0       -2.088179   -1.333297   -4.396735
     64          1           0       -4.268332   -0.349859   -3.747689
     65          1           0       -4.382634    1.239987    0.419074
     66          1           0       -6.545046    2.169192    1.130265
     67          1           0       -9.014000    2.365807    0.824797
     68          1           0      -11.063475    1.756678   -0.419318
     69          1           0      -10.934687    0.202916   -2.362110
     70          1           0       -8.758991   -0.739339   -3.061675
     71          1           0       -6.318706   -0.950359   -2.732822
     72          1           0       -3.184444   -0.760195    0.392501
     73          1           0       -2.345883   -3.888001    0.095575
     74          1           0       -3.205518   -5.045594    2.116001
     75          1           0       -2.562783   -4.206894    4.380475
     76          1           0       -1.124410   -2.204822    4.579352
     77          1           0        1.288054   -1.655907    4.025554
     78          1           0        2.627210    0.384314    4.458088
     79          1           0        2.033833    2.521827    3.361796
     80          1           0        2.043003    3.565067    1.234331
     81          1           0        1.454183    5.696068    0.134065
     82          1           0       -0.933429    6.333790   -0.162927
     83          1           0       -2.721371    4.819252    0.675835
     84          1           0       -2.128529    2.709048    1.813804
     85          1           0       -1.227532    0.575848    1.356630
     86          1           0        0.643617    0.113930   -1.264533
     87          1           0        3.060092    0.099267   -1.695212
     88          1           0        5.123429    0.328867   -0.613420
     89          1           0        9.488146   -0.136997   -0.039531
     90          1           0       10.749453    1.982608    0.073335
 ---------------------------------------------------------------------

 The electronic state is 1-A.
 Alpha  occ. eigenvalues --  -14.36284 -10.23063 -10.23019 -10.22625 -10.20278
 Alpha  occ. eigenvalues --  -10.19860 -10.19818 -10.19817 -10.19697 -10.19665
 Alpha  occ. eigenvalues --  -10.19650 -10.19618 -10.19605 -10.19588 -10.19557
 Alpha  occ. eigenvalues --  -10.19365 -10.19269 -10.19189 -10.19179 -10.19139
 Alpha  occ. eigenvalues --  -10.19024 -10.19011 -10.18988 -10.18933 -10.18930
 Alpha  occ. eigenvalues --  -10.18915 -10.18890 -10.18871 -10.18866 -10.18852
 Alpha  occ. eigenvalues --  -10.18847 -10.18810 -10.18806 -10.18776 -10.18766
 Alpha  occ. eigenvalues --  -10.18761 -10.18739 -10.18716 -10.18713 -10.18708
 Alpha  occ. eigenvalues --  -10.18707 -10.18671 -10.18662 -10.18641 -10.18628
 Alpha  occ. eigenvalues --  -10.18551 -10.18529 -10.18481 -10.18459 -10.18439
 Alpha  occ. eigenvalues --  -10.18417 -10.18379 -10.18225  -0.96287  -0.87337
 Alpha  occ. eigenvalues --   -0.86873  -0.86659  -0.85728  -0.85498  -0.84663
 Alpha  occ. eigenvalues --   -0.84028  -0.83337  -0.81763  -0.78327  -0.77997
 Alpha  occ. eigenvalues --   -0.77438  -0.76418  -0.76330  -0.76065  -0.75048
 Alpha  occ. eigenvalues --   -0.74292  -0.74233  -0.74065  -0.73589  -0.72645
 Alpha  occ. eigenvalues --   -0.72479  -0.71720  -0.71361  -0.70951  -0.69648
 Alpha  occ. eigenvalues --   -0.63805  -0.63258  -0.62804  -0.62471  -0.62071
 Alpha  occ. eigenvalues --   -0.61862  -0.61377  -0.60469  -0.60273  -0.59961
 Alpha  occ. eigenvalues --   -0.59454  -0.58827  -0.58228  -0.58010  -0.57136
 Alpha  occ. eigenvalues --   -0.56652  -0.55900  -0.53400  -0.53236  -0.52624
 Alpha  occ. eigenvalues --   -0.51693  -0.51188  -0.50232  -0.49777  -0.49361
 Alpha  occ. eigenvalues --   -0.48814  -0.48205  -0.47731  -0.47594  -0.47296
 Alpha  occ. eigenvalues --   -0.46479  -0.46006  -0.45546  -0.45317  -0.44929
 Alpha  occ. eigenvalues --   -0.44677  -0.44473  -0.43912  -0.43557  -0.43222
 Alpha  occ. eigenvalues --   -0.43111  -0.42937  -0.42806  -0.42511  -0.42172
 Alpha  occ. eigenvalues --   -0.42035  -0.41901  -0.41662  -0.41621  -0.41500
 Alpha  occ. eigenvalues --   -0.41439  -0.41319  -0.41206  -0.40101  -0.38712
 Alpha  occ. eigenvalues --   -0.38256  -0.37898  -0.37676  -0.37357  -0.37032
 Alpha  occ. eigenvalues --   -0.36869  -0.36778  -0.36420  -0.36261  -0.36154
 Alpha  occ. eigenvalues --   -0.35934  -0.35636  -0.35305  -0.34995  -0.34751
 Alpha  occ. eigenvalues --   -0.34512  -0.34401  -0.33938  -0.33441  -0.33245
 Alpha  occ. eigenvalues --   -0.33189  -0.32991  -0.32767  -0.32722  -0.32382
 Alpha  occ. eigenvalues --   -0.30213  -0.28345  -0.27890  -0.27251  -0.26533
 Alpha  occ. eigenvalues --   -0.26143  -0.25999  -0.25674  -0.24810  -0.24805
 Alpha  occ. eigenvalues --   -0.24740  -0.23513  -0.22942  -0.22900  -0.22089
 Alpha  occ. eigenvalues --   -0.21981  -0.20884  -0.18237
 Alpha virt. eigenvalues --   -0.04229  -0.03002  -0.02883  -0.02251  -0.02107
 Alpha virt. eigenvalues --   -0.01631  -0.01148   0.00066   0.00097   0.00534
 Alpha virt. eigenvalues --    0.00836   0.01441   0.01890   0.02716   0.03375

 Mulliken charges:
               1
     1  C   -0.126916
     2  C   -0.134349
     3  C   -0.172087
     4  C    0.088342
     5  C    0.090171
     6  C   -0.175615
     7  C   -0.137038
     8  C   -0.175606
     9  C    0.091601
    10  C    0.097185
    11  C   -0.188170
    12  C   -0.179628
    13  C    0.307854
    14  N   -0.665526
    15  C    0.307905
    16  C   -0.178937
    17  C   -0.142243
    18  C   -0.175563
    19  C    0.089035
    20  C    0.089591
    21  C   -0.176539
    22  C   -0.201104
    23  C    0.140769
    24  C   -0.192579
    25  C   -0.134977
    26  C   -0.137288
    27  C   -0.189144
    28  C    0.139391
    29  C   -0.259422
    30  C   -0.238236
    31  C    0.198298
    32  C   -0.152903
    33  C   -0.138115
    34  C   -0.126117
    35  C   -0.190570
    36  C    0.066641
    37  C    0.073254
    38  C   -0.160969
    39  C   -0.136275
    40  C   -0.172044
    41  C    0.086988
    42  C    0.086247
    43  C   -0.175084
    44  C   -0.133857
    45  C   -0.126761
    46  C   -0.133894
    47  C   -0.174107
    48  C   -0.210126
    49  C   -0.160583
    50  C   -0.187533
    51  C   -0.234224
    52  C   -0.173955
    53  C   -0.133849
    54  H    0.128797
    55  H    0.129369
    56  H    0.130994
    57  H    0.130841
    58  H    0.129486
    59  H    0.130292
    60  H    0.131689
    61  H    0.142216
    62  H    0.146824
    63  H    0.131344
    64  H    0.129160
    65  H    0.134874
    66  H    0.129657
    67  H    0.129401
    68  H    0.129772
    69  H    0.129878
    70  H    0.129493
    71  H    0.132427
    72  H    0.145741
    73  H    0.146275
    74  H    0.134896
    75  H    0.132198
    76  H    0.138744
    77  H    0.132142
    78  H    0.131730
    79  H    0.132356
    80  H    0.132996
    81  H    0.129446
    82  H    0.129473
    83  H    0.131092
    84  H    0.133474
    85  H    0.142466
    86  H    0.149225
    87  H    0.131363
    88  H    0.136845
    89  H    0.131987
    90  H    0.129701
 Sum of Mulliken charges =  -0.00000

 Dipole moment (field-independent basis, Debye):
    X=             -0.2855    Y=             -0.2835    Z=              0.4665  Tot=              0.6160
 Quadrupole moment (field-independent basis, Debye-Ang):
   XX=           -277.9104   YY=           -282.4142   ZZ=           -294.9904
   XY=              2.2876   XZ=              4.3048   YZ=             -2.7642

 1\1\GINC-NODE89\FOpt\RB3LYP\6-31G(d)\C52H37N1\WYKGROUP\05-Nov-2022\0\\
 #p b3lyp/6-31g(d) opt SCF=XQC\\Gaussian input prepared by ASE\\0,1\C,8
 .8556129128,-2.361951395,3.1888413392\C,7.7939867636,-1.4591076511,3.2
 715043599\C,7.2041236839,-0.9602591095,2.1109923667\C,7.6602191471,-1.
 353077733,0.8412357882\C,7.0318817678,-0.8204208861,-0.3957706724\C,7.
 8094851109,-0.509157075,-1.5233591097\C,7.20761398,-0.0181997118,-2.68
 03947773\C,5.8285759635,0.1735529506,-2.7344039453\C,5.0216986047,-0.1
 293196872,-1.6244659877\C,3.550596665,0.0600781511,-1.6742819955\C,2.8

 Normal termination of Gaussian 16 at Sat Nov  5 01:29:34 2022.
