 Gaussian 16, Revision B.01,
 Gaussian 16:  ES64L-G16RevB.01 20-Dec-2017

 -------------------------------------------------------------------
 #p b3lyp/6-31g(d) 6D 10F nosymm GFInput td=(50-50,nstate=2) SCF=XQC
 -------------------------------------------------------------------

 ------------------------------
 Gaussian input prepared by ASE
 ------------------------------
 Symbolic Z-matrix:
 Charge =  0 Multiplicity = 1

                          Input orientation:
 ---------------------------------------------------------------------
 Center     Atomic      Atomic             Coordinates (Angstroms)
 Number     Number       Type             X           Y           Z
 ---------------------------------------------------------------------
      1          6           0        8.855613   -2.361951    3.188841
      2          6           0        7.793987   -1.459108    3.271504
      3          6           0        7.204124   -0.960259    2.110992
      4          6           0        7.660219   -1.353078    0.841236
      5          6           0        7.031882   -0.820421   -0.395771
      6          6           0        7.809485   -0.509157   -1.523359
      7          6           0        7.207614   -0.018200   -2.680395
      8          6           0        5.828576    0.173553   -2.734404
      9          6           0        5.021699   -0.129320   -1.624466
     10          6           0        3.550597    0.060078   -1.674282
     11          6           0        2.819519   -0.199814   -2.844180
     12          6           0        1.440999   -0.015248   -2.898699
     13          6           0        0.734398    0.425050   -1.769654
     14          7           0       -0.675548    0.590992   -1.812744
     15          6           0       -1.300592    1.727163   -1.238449
     16          6           0       -0.631400    2.959120   -1.138298
     17          6           0       -1.277045    4.055784   -0.572553
     18          6           0       -2.590732    3.961755   -0.117382
     19          6           0       -3.284154    2.744861   -0.223267
     20          6           0       -4.687940    2.623848    0.248432
     21          6           0       -5.135644    1.435638    0.897763
     22          6           0       -6.431227    1.307907    1.337420
     23          6           0       -7.373367    2.356051    1.159737
     24          6           0       -8.719726    2.258503    1.600240
     25          6           0       -9.601844    3.298004    1.406295
     26          6           0       -9.175266    4.485010    0.760622
     27          6           0       -7.876079    4.610087    0.323069
     28          6           0       -6.939466    3.556920    0.510390
     29          6           0       -5.594865    3.655176    0.069314
     30          6           0       -2.624177    1.638482   -0.776866
     31          6           0       -1.447690   -0.280122   -2.646244
     32          6           0       -2.146429    0.268280   -3.731771
     33          6           0       -2.881734   -0.538831   -4.594946
     34          6           0       -2.909401   -1.919366   -4.391930
     35          6           0       -2.217194   -2.470086   -3.316050
     36          6           0       -1.489920   -1.674846   -2.413896
     37          6           0       -0.815113   -2.337835   -1.262135
     38          6           0       -0.002287   -3.461317   -1.476827
     39          6           0        0.596001   -4.115983   -0.400957
     40          6           0        0.390591   -3.664786    0.900327
     41          6           0       -0.419506   -2.543483    1.146568
     42          6           0       -0.648146   -2.057202    2.532334
     43          6           0        0.391478   -2.059624    3.477745
     44          6           0        0.179830   -1.602792    4.777871
     45          6           0       -1.076833   -1.131684    5.162299
     46          6           0       -2.119993   -1.123533    4.234601
     47          6           0       -1.907730   -1.582430    2.935385
     48          6           0       -1.011149   -1.894277    0.053186
     49          6           0        1.452779    0.675335   -0.588697
     50          6           0        2.831268    0.504959   -0.551008
     51          6           0        5.644548   -0.625761   -0.468658
     52          6           0        8.729119   -2.262871    0.774673
     53          6           0        9.320659   -2.761271    1.934547
     54          1           0        9.316285   -2.750355    4.093165
     55          1           0        7.429212   -1.134088    4.242509
     56          1           0        6.396364   -0.237558    2.186603
     57          1           0        8.888525   -0.626796   -1.481841
     58          1           0        7.821034    0.235249   -3.541231
     59          1           0        5.375126    0.584828   -3.631731
     60          1           0        3.335205   -0.567092   -3.727162
     61          1           0        0.905415   -0.221673   -3.819616
     62          1           0        0.385498    3.052863   -1.502674
     63          1           0       -0.745198    5.000343   -0.491952
     64          1           0       -3.071329    4.819192    0.343383
     65          1           0       -4.426295    0.631205    1.069615
     66          1           0       -6.749620    0.397021    1.839393
     67          1           0       -9.043798    1.345391    2.094422
     68          1           0      -10.630068    3.211479    1.747037
     69          1           0       -9.880417    5.298460    0.612250
     70          1           0       -7.546848    5.520457   -0.172643
     71          1           0       -5.285849    4.560987   -0.446439
     72          1           0       -3.157789    0.700180   -0.885693
     73          1           0       -2.096053    1.341078   -3.891767
     74          1           0       -3.416425   -0.092479   -5.428857
     75          1           0       -3.475362   -2.563185   -5.059387
     76          1           0       -2.263094   -3.540873   -3.138114
     77          1           0        0.173635   -3.808586   -2.491073
     78          1           0        1.223767   -4.985075   -0.579000
     79          1           0        0.839257   -4.196368    1.734657
     80          1           0        1.380064   -2.399539    3.181542
     81          1           0        1.001393   -1.607139    5.489608
     82          1           0       -1.241814   -0.774274    6.175130
     83          1           0       -3.104603   -0.766159    4.524664
     84          1           0       -2.733702   -1.599112    2.229448
     85          1           0       -1.623285   -1.015854    0.229917
     86          1           0        0.924587    1.006170    0.299418
     87          1           0        3.362542    0.729596    0.369644
     88          1           0        5.028396   -0.915158    0.377529
     89          1           0        9.081360   -2.600895   -0.195982
     90          1           0       10.141096   -3.470143    1.857728
 ---------------------------------------------------------------------

 SCF Done:  E(RB3LYP) =  -2058.62187698     A.U. after   16 cycles

 Excitation energies and oscillator strengths:

 Excited state symmetry could not be determined.
 Excited State   1:      Triplet-?Sym    2.6177 eV  473.65 nm  f=0.0000  <S**2>=2.000
     162 ->194        -0.10861
     173 ->182         0.10303
     173 ->184         0.11687
     177 ->179         0.60593
     177 ->180         0.13562
     178 ->179        -0.16832
 This state for optimization and/or second-order correction.
 Total Energy, E(TD-HF/TD-DFT) =  -2058.52567989
 Copying the excited state density for this state as the 1-particle RhoCI density.

 Excited state symmetry could not be determined.
 Excited State   2:      Triplet-?Sym    2.8733 eV  431.50 nm  f=0.0000  <S**2>=2.000
     171 ->188         0.10370
     176 ->180         0.11141
     176 ->181        -0.12446
     177 ->179        -0.10145
     178 ->179        -0.22479
     178 ->180         0.36922
     178 ->181        -0.31769
     178 ->183         0.23343

 Excited state symmetry could not be determined.
 Excited State   3:      Singlet-?Sym    3.3499 eV  370.11 nm  f=0.0213  <S**2>=0.000
     178 ->179         0.68341

 Excited state symmetry could not be determined.
 Excited State   4:      Singlet-?Sym    3.5601 eV  348.26 nm  f=0.0350  <S**2>=0.000
     178 ->179         0.12792
     178 ->180         0.41525
     178 ->181         0.52348
     178 ->184         0.11358

 Alpha  occ. eigenvalues --  -14.36284 -10.23063 -10.23019 -10.22625 -10.20278
 Alpha  occ. eigenvalues --  -10.19860 -10.19818 -10.19817 -10.19697 -10.19665
 Alpha  occ. eigenvalues --  -10.19650 -10.19618 -10.19605 -10.19588 -10.19557
 Alpha  occ. eigenvalues --  -10.19365 -10.19269 -10.19189 -10.19179 -10.19139
 Alpha  occ. eigenvalues --  -10.19024 -10.19011 -10.18988 -10.18933 -10.18929
 Alpha  occ. eigenvalues --  -10.18915 -10.18890 -10.18871 -10.18866 -10.18852
 Alpha  occ. eigenvalues --  -10.18847 -10.18810 -10.18806 -10.18776 -10.18766
 Alpha  occ. eigenvalues --  -10.18761 -10.18739 -10.18716 -10.18713 -10.18708
 Alpha  occ. eigenvalues --  -10.18707 -10.18671 -10.18662 -10.18641 -10.18628
 Alpha  occ. eigenvalues --  -10.18551 -10.18529 -10.18481 -10.18459 -10.18439
 Alpha  occ. eigenvalues --  -10.18417 -10.18379 -10.18225  -0.96287  -0.87337
 Alpha  occ. eigenvalues --   -0.86873  -0.86659  -0.85728  -0.85498  -0.84663
 Alpha  occ. eigenvalues --   -0.84028  -0.83337  -0.81763  -0.78327  -0.77997
 Alpha  occ. eigenvalues --   -0.77438  -0.76418  -0.76330  -0.76065  -0.75048
 Alpha  occ. eigenvalues --   -0.74292  -0.74233  -0.74065  -0.73589  -0.72645
 Alpha  occ. eigenvalues --   -0.72479  -0.71720  -0.71361  -0.70951  -0.69648
 Alpha  occ. eigenvalues --   -0.63805  -0.63258  -0.62804  -0.62471  -0.62071
 Alpha  occ. eigenvalues --   -0.61862  -0.61377  -0.60469  -0.60273  -0.59961
 Alpha  occ. eigenvalues --   -0.59454  -0.58827  -0.58228  -0.58010  -0.57136
 Alpha  occ. eigenvalues --   -0.56652  -0.55900  -0.53400  -0.53236  -0.52624
 Alpha  occ. eigenvalues --   -0.51693  -0.51188  -0.50232  -0.49777  -0.49361
 Alpha  occ. eigenvalues --   -0.48814  -0.48205  -0.47731  -0.47594  -0.47296
 Alpha  occ. eigenvalues --   -0.46479  -0.46006  -0.45546  -0.45317  -0.44929
 Alpha  occ. eigenvalues --   -0.44677  -0.44473  -0.43912  -0.43557  -0.43222
 Alpha  occ. eigenvalues --   -0.43111  -0.42937  -0.42806  -0.42511  -0.42172
 Alpha  occ. eigenvalues --   -0.42035  -0.41901  -0.41662  -0.41621  -0.41500
 Alpha  occ. eigenvalues --   -0.41439  -0.41319  -0.41206  -0.40101  -0.38712
 Alpha  occ. eigenvalues --   -0.38256  -0.37898  -0.37676  -0.37357  -0.37032
 Alpha  occ. eigenvalues --   -0.36869  -0.36778  -0.36420  -0.36261  -0.36154
 Alpha  occ. eigenvalues --   -0.35934  -0.35636  -0.35305  -0.34995  -0.34751
 Alpha  occ. eigenvalues --   -0.34512  -0.34401  -0.33938  -0.33441  -0.33245
 Alpha  occ. eigenvalues --   -0.33189  -0.32991  -0.32767  -0.32722  -0.32382
 Alpha  occ. eigenvalues --   -0.30213  -0.28345  -0.27890  -0.27251  -0.26533
 Alpha  occ. eigenvalues --   -0.26143  -0.25999  -0.25674  -0.24810  -0.24805
 Alpha  occ. eigenvalues --   -0.24740  -0.23513  -0.22942  -0.22900  -0.22089
 Alpha  occ. eigenvalues --   -0.21981  -0.20884  -0.18237
 Alpha virt. eigenvalues --   -0.04229  -0.03002  -0.02883  -0.02251  -0.02107
 Alpha virt. eigenvalues --   -0.01631  -0.01148   0.00066   0.00097   0.00534
 Alpha virt. eigenvalues --    0.00836   0.01441   0.01890   0.02716   0.03375

 Mulliken charges:
               1
     1  C   -0.126910
     2  C   -0.134359
     3  C   -0.172076
     4  C    0.088334
     5  C    0.090187
     6  C   -0.175621
     7  C   -0.137032
     8  C   -0.175610
     9  C    0.091601
    10  C    0.097191
    11  C   -0.188180
    12  C   -0.179638
    13  C    0.307871
    14  N   -0.665536
    15  C    0.307895
    16  C   -0.178945
    17  C   -0.142237
    18  C   -0.175564
    19  C    0.089037
    20  C    0.089590
    21  C   -0.176548
    22  C   -0.201105
    23  C    0.140770
    24  C   -0.192580
    25  C   -0.134977
    26  C   -0.137288
    27  C   -0.189144
    28  C    0.139390
    29  C   -0.259420
    30  C   -0.238236
    31  C    0.198323
    32  C   -0.152908
    33  C   -0.138115
    34  C   -0.126117
    35  C   -0.190571
    36  C    0.066626
    37  C    0.073247
    38  C   -0.160952
    39  C   -0.136283
    40  C   -0.172035
    41  C    0.086962
    42  C    0.086244
    43  C   -0.175083
    44  C   -0.133857
    45  C   -0.126758
    46  C   -0.133900
    47  C   -0.174098
    48  C   -0.210106
    49  C   -0.160563
    50  C   -0.187546
    51  C   -0.234219
    52  C   -0.173962
    53  C   -0.133850
    54  H    0.128797
    55  H    0.129370
    56  H    0.130989
    57  H    0.130842
    58  H    0.129485
    59  H    0.130293
    60  H    0.131689
    61  H    0.142223
    62  H    0.146825
    63  H    0.131344
    64  H    0.129159
    65  H    0.134883
    66  H    0.129658
    67  H    0.129400
    68  H    0.129772
    69  H    0.129878
    70  H    0.129493
    71  H    0.132426
    72  H    0.145738
    73  H    0.146271
    74  H    0.134896
    75  H    0.132198
    76  H    0.138744
    77  H    0.132144
    78  H    0.131729
    79  H    0.132357
    80  H    0.132994
    81  H    0.129446
    82  H    0.129472
    83  H    0.131093
    84  H    0.133474
    85  H    0.142458
    86  H    0.149227
    87  H    0.131365
    88  H    0.136840
    89  H    0.131989
    90  H    0.129701
 Sum of Mulliken charges =  -0.00000

 Dipole moment (field-independent basis, Debye):
    X=             -0.3874    Y=             -0.3032    Z=             -0.3707  Tot=              0.6160
 Quadrupole moment (field-independent basis, Debye-Ang):
   XX=           -281.8340   YY=           -291.6296   ZZ=           -281.7880
   XY=             -8.7182   XZ=              1.3870   YZ=             -0.2960

 Normal termination of Gaussian 16 at Sat Nov  5 10:47:20 2022.
