 Gaussian 16, Revision B.01,
 Gaussian 16:  ES64L-G16RevB.01 20-Dec-2017

 -------------------------------------------------------------------
 #p b3lyp/6-31g(d) 6D 10F nosymm GFInput td=(50-50,nstate=2) SCF=XQC
 -------------------------------------------------------------------

 ------------------------------
 Gaussian input prepared by ASE
 ------------------------------
 Symbolic Z-matrix:
 Charge =  0 Multiplicity = 1

                          Input orientation:
 ---------------------------------------------------------------------
 Center     Atomic      Atomic             Coordinates (Angstroms)
 Number     Number       Type             X           Y           Z
 ---------------------------------------------------------------------
      1          6           0        7.999255   -2.096522   -0.283997
      2          6           0        7.879118   -0.760544    0.102828
      3          6           0        6.620461   -0.161116    0.172562
      4          6           0        5.461416   -0.886307   -0.143201
      5          6           0        4.110297   -0.243684   -0.068363
      6          6           0        3.449672   -0.130899    1.174738
      7          6           0        4.031148   -0.627947    2.386729
      8          6           0        3.384841   -0.515332    3.588784
      9          6           0        2.107074    0.105620    3.660681
     10          6           0        1.511941    0.591560    2.526928
     11          6           0        2.146642    0.491862    1.246625
     12          6           0        1.531247    0.977277    0.073895
     13          6           0        0.195621    1.652048    0.149782
     14          6           0        0.117826    3.031740    0.274671
     15          6           0       -1.126319    3.675168    0.396828
     16          6           0       -2.299153    2.946620    0.336121
     17          6           0       -2.275937    1.546256    0.147362
     18          6           0       -1.010324    0.889644    0.119403
     19          7           0       -0.884662   -0.475704    0.087018
     20          6           0       -1.949523   -1.228110    0.202050
     21          6           0       -1.686013   -2.698902    0.196062
     22          6           0       -2.420769   -3.591556   -0.600769
     23          6           0       -2.104409   -4.950434   -0.622327
     24          6           0       -1.053726   -5.438364    0.155644
     25          6           0       -0.309120   -4.556538    0.942990
     26          6           0       -0.615731   -3.197787    0.955924
     27          6           0       -3.294495   -0.683798    0.305215
     28          6           0       -4.408197   -1.512908    0.610455
     29          6           0       -5.693744   -1.016846    0.642624
     30          6           0       -5.857625    0.320272    0.276910
     31          8           0       -7.087986    0.899273    0.132669
     32          6           0       -6.857032    2.161034   -0.356628
     33          6           0       -7.862198    3.049261   -0.710945
     34          6           0       -7.461998    4.255833   -1.282020
     35          6           0       -6.102152    4.527535   -1.499161
     36          6           0       -5.110390    3.624139   -1.123316
     37          6           0       -5.477138    2.415668   -0.503849
     38          6           0       -4.808491    1.199600   -0.031807
     39          6           0       -3.468006    0.721776    0.111896
     40          6           0        2.186734    0.858912   -1.169496
     41          6           0        1.590916    1.329070   -2.384677
     42          6           0        2.236911    1.220935   -3.586888
     43          6           0        3.531195    0.634869   -3.654619
     44          6           0        4.136548    0.164636   -2.520077
     45          6           0        3.495219    0.246181   -1.240969
     46          6           0        5.595498   -2.228311   -0.530894
     47          6           0        6.853593   -2.828813   -0.600696
     48          1           0        8.979020   -2.563728   -0.338467
     49          1           0        8.765863   -0.182385    0.349811
     50          1           0        6.529362    0.879379    0.472946
     51          1           0        5.004153   -1.104017    2.336910
     52          1           0        3.847613   -0.901839    4.493060
     53          1           0        1.603255    0.192929    4.619723
     54          1           0        0.538132    1.065159    2.586700
     55          1           0        1.034767    3.613447    0.309301
     56          1           0       -1.164710    4.749158    0.557114
     57          1           0       -3.244205    3.447268    0.496529
     58          1           0       -3.224609   -3.218135   -1.228476
     59          1           0       -2.675355   -5.625487   -1.254420
     60          1           0       -0.811174   -6.497714    0.142652
     61          1           0        0.516150   -4.927528    1.545019
     62          1           0       -0.027976   -2.504042    1.548319
     63          1           0       -4.234240   -2.555416    0.845920
     64          1           0       -6.549427   -1.633007    0.896186
     65          1           0       -8.906286    2.794478   -0.562938
     66          1           0       -8.212105    4.982958   -1.579074
     67          1           0       -5.813966    5.459524   -1.976876
     68          1           0       -4.073263    3.852584   -1.334678
     69          1           0        0.604470    1.777042   -2.338215
     70          1           0        1.761426    1.583609   -4.494378
     71          1           0        4.039429    0.560506   -4.612419
     72          1           0        5.123249   -0.281425   -2.577021
     73          1           0        4.704616   -2.799862   -0.777257
     74          1           0        6.937774   -3.869826   -0.902006
 ---------------------------------------------------------------------

 SCF Done:  E(RB3LYP) =  -1861.08229164     A.U. after   16 cycles

 Excitation energies and oscillator strengths:

 Excited state symmetry could not be determined.
 Excited State   1:      Triplet-?Sym    1.7238 eV  719.24 nm  f=0.0000  <S**2>=2.000
     156 ->158         0.69661
     156 <-158         0.13946
 This state for optimization and/or second-order correction.
 Total Energy, E(TD-HF/TD-DFT) =  -1861.01894212
 Copying the excited state density for this state as the 1-particle RhoCI density.

 Excited state symmetry could not be determined.
 Excited State   2:      Triplet-?Sym    2.6239 eV  472.52 nm  f=0.0000  <S**2>=2.000
     152 ->160         0.10050
     154 ->157        -0.13118
     154 ->159         0.34849
     155 ->157         0.49304
     155 ->159         0.21881

 Excited state symmetry could not be determined.
 Excited State   3:      Singlet-?Sym    2.9379 eV  422.01 nm  f=0.0007  <S**2>=0.000
     156 ->157         0.40984
     156 ->159         0.56930

 Excited state symmetry could not be determined.
 Excited State   4:      Singlet-?Sym    2.9944 eV  414.05 nm  f=0.0004  <S**2>=0.000
     156 ->157         0.57178
     156 ->159        -0.40892

 Alpha  occ. eigenvalues --  -19.21845 -14.32077 -10.25940 -10.25413 -10.23568
 Alpha  occ. eigenvalues --  -10.22306 -10.22288 -10.21275 -10.21069 -10.20901
 Alpha  occ. eigenvalues --  -10.20648 -10.20503 -10.20438 -10.20182 -10.20118
 Alpha  occ. eigenvalues --  -10.20115 -10.19808 -10.19597 -10.19578 -10.19470
 Alpha  occ. eigenvalues --  -10.19397 -10.19361 -10.19329 -10.19302 -10.19196
 Alpha  occ. eigenvalues --  -10.19158 -10.19124 -10.19081 -10.19075 -10.19047
 Alpha  occ. eigenvalues --  -10.18962 -10.18892 -10.18812 -10.18780 -10.18732
 Alpha  occ. eigenvalues --  -10.18683 -10.18629 -10.18589 -10.18475 -10.18256
 Alpha  occ. eigenvalues --  -10.18206 -10.18153 -10.18109 -10.18006 -10.17946
 Alpha  occ. eigenvalues --  -10.17902 -10.17862  -1.11748  -0.94508  -0.87789
 Alpha  occ. eigenvalues --   -0.87070  -0.86297  -0.85894  -0.84948  -0.84319
 Alpha  occ. eigenvalues --   -0.83788  -0.80311  -0.79571  -0.79352  -0.77969
 Alpha  occ. eigenvalues --   -0.77117  -0.75527  -0.74330  -0.74110  -0.73942
 Alpha  occ. eigenvalues --   -0.73932  -0.73593  -0.72924  -0.72810  -0.72427
 Alpha  occ. eigenvalues --   -0.68791  -0.65928  -0.65340  -0.63994  -0.62967
 Alpha  occ. eigenvalues --   -0.62296  -0.60912  -0.60791  -0.60421  -0.60052
 Alpha  occ. eigenvalues --   -0.59978  -0.58809  -0.57953  -0.57796  -0.55652
 Alpha  occ. eigenvalues --   -0.55124  -0.53610  -0.53495  -0.52679  -0.51544
 Alpha  occ. eigenvalues --   -0.51333  -0.51150  -0.50726  -0.49011  -0.48282
 Alpha  occ. eigenvalues --   -0.47570  -0.47082  -0.46887  -0.45568  -0.45548
 Alpha  occ. eigenvalues --   -0.45413  -0.45214  -0.44915  -0.44637  -0.44390
 Alpha  occ. eigenvalues --   -0.44130  -0.43815  -0.43550  -0.43300  -0.42462
 Alpha  occ. eigenvalues --   -0.42296  -0.41764  -0.41644  -0.41588  -0.41229
 Alpha  occ. eigenvalues --   -0.41055  -0.40490  -0.39712  -0.39645  -0.39385
 Alpha  occ. eigenvalues --   -0.38360  -0.38118  -0.37200  -0.36944  -0.36704
 Alpha  occ. eigenvalues --   -0.36466  -0.36189  -0.35745  -0.35691  -0.35228
 Alpha  occ. eigenvalues --   -0.35069  -0.34874  -0.34786  -0.34233  -0.34074
 Alpha  occ. eigenvalues --   -0.33502  -0.33467  -0.32968  -0.32621  -0.30820
 Alpha  occ. eigenvalues --   -0.29788  -0.29118  -0.28181  -0.28074  -0.26253
 Alpha  occ. eigenvalues --   -0.25252  -0.25037  -0.24852  -0.24566  -0.24283
 Alpha  occ. eigenvalues --   -0.24178  -0.23602  -0.23035  -0.22246  -0.21304
 Alpha  occ. eigenvalues --   -0.18236
 Alpha virt. eigenvalues --   -0.05699  -0.05431  -0.05341  -0.01702  -0.00745
 Alpha virt. eigenvalues --    0.00030   0.00124   0.00320   0.00369   0.00703
 Alpha virt. eigenvalues --    0.00966   0.01965   0.03649   0.05140   0.07324

 Mulliken charges:
               1
     1  C   -0.126703
     2  C   -0.132885
     3  C   -0.148415
     4  C    0.004784
     5  C   -0.075392
     6  C    0.101464
     7  C   -0.199861
     8  C   -0.136004
     9  C   -0.139019
    10  C   -0.192465
    11  C    0.118639
    12  C   -0.027825
    13  C   -0.052623
    14  C   -0.161389
    15  C   -0.144153
    16  C   -0.204539
    17  C    0.112281
    18  C    0.215980
    19  N   -0.555635
    20  C    0.159607
    21  C    0.094081
    22  C   -0.173691
    23  C   -0.137285
    24  C   -0.122491
    25  C   -0.139195
    26  C   -0.147020
    27  C    0.093501
    28  C   -0.219865
    29  C   -0.197278
    30  C    0.323927
    31  O   -0.540056
    32  C    0.306790
    33  C   -0.198528
    34  C   -0.136864
    35  C   -0.144975
    36  C   -0.202427
    37  C    0.083708
    38  C   -0.002349
    39  C    0.014623
    40  C    0.111628
    41  C   -0.189233
    42  C   -0.135206
    43  C   -0.134588
    44  C   -0.198849
    45  C    0.102153
    46  C   -0.148690
    47  C   -0.133043
    48  H    0.128951
    49  H    0.130451
    50  H    0.136517
    51  H    0.144837
    52  H    0.126089
    53  H    0.126276
    54  H    0.139215
    55  H    0.142046
    56  H    0.134610
    57  H    0.154300
    58  H    0.140365
    59  H    0.130627
    60  H    0.130120
    61  H    0.133794
    62  H    0.158364
    63  H    0.162690
    64  H    0.153808
    65  H    0.149839
    66  H    0.136961
    67  H    0.133817
    68  H    0.154941
    69  H    0.138213
    70  H    0.125793
    71  H    0.126289
    72  H    0.144737
    73  H    0.141024
    74  H    0.130698
 Sum of Mulliken charges =  -0.00000

 Dipole moment (field-independent basis, Debye):
    X=             -1.5002    Y=              0.3192    Z=             -0.0224  Tot=              1.5339
 Quadrupole moment (field-independent basis, Debye-Ang):
   XX=           -236.0658   YY=           -239.4228   ZZ=           -259.6517
   XY=             -9.0148   XZ=              3.7414   YZ=             -3.5367

 Normal termination of Gaussian 16 at Sat Nov  5 11:00:27 2022.
