 Gaussian 16, Revision B.01,
 Gaussian 16:  ES64L-G16RevB.01 20-Dec-2017

 -----------------------------
 #p b3lyp/6-31g(d) opt SCF=XQC
 -----------------------------

 ------------------------------
 Gaussian input prepared by ASE
 ------------------------------
 Symbolic Z-matrix:
 Charge =  0 Multiplicity = 1

 SCF Done:  E(RB3LYP) =  -1861.06981365     A.U. after   16 cycles
 SCF Done:  E(RB3LYP) =  -1861.08068364     A.U. after   15 cycles
 SCF Done:  E(RB3LYP) =  -1861.08176442     A.U. after   13 cycles
 SCF Done:  E(RB3LYP) =  -1861.08172972     A.U. after   13 cycles
 SCF Done:  E(RB3LYP) =  -1861.08196606     A.U. after   12 cycles
 SCF Done:  E(RB3LYP) =  -1861.08218869     A.U. after   11 cycles
 SCF Done:  E(RB3LYP) =  -1861.08221684     A.U. after   11 cycles
 SCF Done:  E(RB3LYP) =  -1861.08223814     A.U. after   10 cycles
 SCF Done:  E(RB3LYP) =  -1861.08224940     A.U. after   11 cycles
 SCF Done:  E(RB3LYP) =  -1861.08225413     A.U. after   11 cycles
 SCF Done:  E(RB3LYP) =  -1861.08225898     A.U. after   11 cycles
 SCF Done:  E(RB3LYP) =  -1861.08226925     A.U. after   11 cycles
 SCF Done:  E(RB3LYP) =  -1861.08227987     A.U. after   11 cycles
 SCF Done:  E(RB3LYP) =  -1861.08228685     A.U. after   11 cycles
 SCF Done:  E(RB3LYP) =  -1861.08228702     A.U. after   11 cycles
 SCF Done:  E(RB3LYP) =  -1861.08229048     A.U. after   11 cycles
 SCF Done:  E(RB3LYP) =  -1861.08229064     A.U. after    7 cycles
 SCF Done:  E(RB3LYP) =  -1861.08229126     A.U. after   10 cycles
 SCF Done:  E(RB3LYP) =  -1861.08229026     A.U. after   11 cycles
 SCF Done:  E(RB3LYP) =  -1861.08229135     A.U. after   10 cycles
 Optimization completed on the basis of negligible forces.
    -- Stationary point found.

                         Standard orientation:
 ---------------------------------------------------------------------
 Center     Atomic      Atomic             Coordinates (Angstroms)
 Number     Number       Type             X           Y           Z
 ---------------------------------------------------------------------
      1          6           0       -8.493584   -0.014876   -0.476357
      2          6           0       -8.061660   -1.166006    0.184888
      3          6           0       -6.697157   -1.410869    0.347880
      4          6           0       -5.741945   -0.510051   -0.147188
      5          6           0       -4.277408   -0.772112    0.027581
      6          6           0       -3.643035   -0.450767    1.247726
      7          6           0       -4.360697    0.137611    2.339910
      8          6           0       -3.739138    0.446813    3.520328
      9          6           0       -2.350917    0.186721    3.689540
     10          6           0       -1.624837   -0.371026    2.670991
     11          6           0       -2.229882   -0.706409    1.416638
     12          6           0       -1.483236   -1.267083    0.359378
     13          6           0       -0.025904   -1.563101    0.542487
     14          6           0        0.382707   -2.822129    0.958520
     15          6           0        1.742462   -3.100891    1.182529
     16          6           0        2.703336   -2.138785    0.935385
     17          6           0        2.344314   -0.860602    0.451093
     18          6           0        0.957991   -0.554388    0.316796
     19          7           0        0.503977    0.699253   -0.004560
     20          6           0        1.349617    1.695305   -0.082352
     21          6           0        0.735537    3.020703   -0.396874
     22          6           0        1.251572    3.873120   -1.386182
     23          6           0        0.613980    5.076443   -1.690462
     24          6           0       -0.544597    5.448564   -1.007472
     25          6           0       -1.072567    4.601949   -0.029484
     26          6           0       -0.444223    3.394515    0.266611
     27          6           0        2.783447    1.530800    0.099131
     28          6           0        3.652587    2.652138    0.189265
     29          6           0        5.018957    2.503528    0.292671
     30          6           0        5.513882    1.200454    0.218271
     31          8           0        6.851748    0.922075    0.168730
     32          6           0        6.948867   -0.432585   -0.031908
     33          6           0        8.149532   -1.103441   -0.214122
     34          6           0        8.071326   -2.464752   -0.501909
     35          6           0        6.825216   -3.100071   -0.619089
     36          6           0        5.633263   -2.406978   -0.419472
     37          6           0        5.677270   -1.041644   -0.083950
     38          6           0        4.719678    0.046630    0.133790
     39          6           0        3.299752    0.202341    0.207481
     40          6           0       -2.113982   -1.581959   -0.862387
     41          6           0       -1.388890   -2.142092   -1.963842
     42          6           0       -2.009050   -2.455488   -3.143461
     43          6           0       -3.404885   -2.231525   -3.300673
     44          6           0       -4.137062   -1.690956   -2.277707
     45          6           0       -3.529988   -1.337045   -1.028595
     46          6           0       -6.188835    0.643189   -0.810200
     47          6           0       -7.553053    0.889189   -0.973505
     48          1           0       -9.555884    0.176256   -0.603546
     49          1           0       -8.786911   -1.876104    0.573935
     50          1           0       -6.363130   -2.308190    0.862078
     51          1           0       -5.418731    0.339774    2.215178
     52          1           0       -4.306453    0.893555    4.332631
     53          1           0       -1.867100    0.432929    4.631093
     54          1           0       -0.566895   -0.568518    2.804888
     55          1           0       -0.365218   -3.588532    1.141815
     56          1           0        2.037345   -4.072822    1.568551
     57          1           0        3.737282   -2.347273    1.174113
     58          1           0        2.138865    3.581330   -1.940428
     59          1           0        1.019850    5.718467   -2.467825
     60          1           0       -1.037802    6.388459   -1.241066
     61          1           0       -1.979348    4.880700    0.500788
     62          1           0       -0.860758    2.722192    1.009679
     63          1           0        3.223280    3.646174    0.200018
     64          1           0        5.691314    3.349433    0.384990
     65          1           0        9.095536   -0.575996   -0.152333
     66          1           0        8.983887   -3.033182   -0.655957
     67          1           0        6.786094   -4.154332   -0.877679
     68          1           0        4.689292   -2.921416   -0.548957
     69          1           0       -0.324590   -2.315123   -1.848780
     70          1           0       -1.435137   -2.877279   -3.964358
     71          1           0       -3.889857   -2.490786   -4.238114
     72          1           0       -5.200860   -1.522044   -2.402585
     73          1           0       -5.457977    1.348180   -1.197332
     74          1           0       -7.880474    1.788491   -1.488902
 ---------------------------------------------------------------------

 The electronic state is 1-A.
 Alpha  occ. eigenvalues --  -19.21845 -14.32077 -10.25940 -10.25412 -10.23568
 Alpha  occ. eigenvalues --  -10.22306 -10.22288 -10.21275 -10.21069 -10.20901
 Alpha  occ. eigenvalues --  -10.20648 -10.20503 -10.20438 -10.20182 -10.20118
 Alpha  occ. eigenvalues --  -10.20115 -10.19808 -10.19597 -10.19578 -10.19470
 Alpha  occ. eigenvalues --  -10.19397 -10.19361 -10.19329 -10.19302 -10.19196
 Alpha  occ. eigenvalues --  -10.19158 -10.19124 -10.19081 -10.19075 -10.19047
 Alpha  occ. eigenvalues --  -10.18962 -10.18892 -10.18812 -10.18780 -10.18732
 Alpha  occ. eigenvalues --  -10.18683 -10.18629 -10.18589 -10.18475 -10.18256
 Alpha  occ. eigenvalues --  -10.18206 -10.18153 -10.18109 -10.18006 -10.17946
 Alpha  occ. eigenvalues --  -10.17902 -10.17862  -1.11748  -0.94508  -0.87789
 Alpha  occ. eigenvalues --   -0.87070  -0.86297  -0.85894  -0.84948  -0.84319
 Alpha  occ. eigenvalues --   -0.83788  -0.80311  -0.79571  -0.79352  -0.77969
 Alpha  occ. eigenvalues --   -0.77117  -0.75527  -0.74330  -0.74110  -0.73942
 Alpha  occ. eigenvalues --   -0.73932  -0.73593  -0.72924  -0.72810  -0.72427
 Alpha  occ. eigenvalues --   -0.68791  -0.65928  -0.65340  -0.63994  -0.62967
 Alpha  occ. eigenvalues --   -0.62296  -0.60912  -0.60791  -0.60421  -0.60052
 Alpha  occ. eigenvalues --   -0.59978  -0.58809  -0.57953  -0.57796  -0.55652
 Alpha  occ. eigenvalues --   -0.55124  -0.53610  -0.53496  -0.52679  -0.51544
 Alpha  occ. eigenvalues --   -0.51333  -0.51150  -0.50726  -0.49011  -0.48282
 Alpha  occ. eigenvalues --   -0.47570  -0.47082  -0.46887  -0.45568  -0.45548
 Alpha  occ. eigenvalues --   -0.45413  -0.45214  -0.44915  -0.44637  -0.44390
 Alpha  occ. eigenvalues --   -0.44130  -0.43815  -0.43550  -0.43300  -0.42462
 Alpha  occ. eigenvalues --   -0.42296  -0.41764  -0.41644  -0.41588  -0.41229
 Alpha  occ. eigenvalues --   -0.41055  -0.40490  -0.39712  -0.39645  -0.39385
 Alpha  occ. eigenvalues --   -0.38360  -0.38118  -0.37200  -0.36944  -0.36704
 Alpha  occ. eigenvalues --   -0.36466  -0.36189  -0.35745  -0.35691  -0.35228
 Alpha  occ. eigenvalues --   -0.35069  -0.34874  -0.34786  -0.34233  -0.34074
 Alpha  occ. eigenvalues --   -0.33502  -0.33467  -0.32968  -0.32622  -0.30820
 Alpha  occ. eigenvalues --   -0.29788  -0.29119  -0.28181  -0.28074  -0.26253
 Alpha  occ. eigenvalues --   -0.25252  -0.25037  -0.24852  -0.24566  -0.24283
 Alpha  occ. eigenvalues --   -0.24178  -0.23602  -0.23035  -0.22246  -0.21304
 Alpha  occ. eigenvalues --   -0.18236
 Alpha virt. eigenvalues --   -0.05699  -0.05431  -0.05341  -0.01702  -0.00745
 Alpha virt. eigenvalues --    0.00030   0.00124   0.00320   0.00369   0.00703
 Alpha virt. eigenvalues --    0.00966   0.01965   0.03649   0.05140   0.07324

 Mulliken charges:
               1
     1  C   -0.126700
     2  C   -0.132891
     3  C   -0.148411
     4  C    0.004781
     5  C   -0.075376
     6  C    0.101467
     7  C   -0.199860
     8  C   -0.136002
     9  C   -0.139019
    10  C   -0.192465
    11  C    0.118642
    12  C   -0.027856
    13  C   -0.052608
    14  C   -0.161391
    15  C   -0.144149
    16  C   -0.204539
    17  C    0.112248
    18  C    0.215982
    19  N   -0.555631
    20  C    0.159622
    21  C    0.094061
    22  C   -0.173673
    23  C   -0.137297
    24  C   -0.122488
    25  C   -0.139194
    26  C   -0.147020
    27  C    0.093493
    28  C   -0.219866
    29  C   -0.197273
    30  C    0.323926
    31  O   -0.540061
    32  C    0.306795
    33  C   -0.198520
    34  C   -0.136873
    35  C   -0.144974
    36  C   -0.202416
    37  C    0.083713
    38  C   -0.002349
    39  C    0.014625
    40  C    0.111639
    41  C   -0.189233
    42  C   -0.135204
    43  C   -0.134586
    44  C   -0.198847
    45  C    0.102133
    46  C   -0.148696
    47  C   -0.133040
    48  H    0.128951
    49  H    0.130451
    50  H    0.136517
    51  H    0.144836
    52  H    0.126089
    53  H    0.126276
    54  H    0.139217
    55  H    0.142047
    56  H    0.134609
    57  H    0.154301
    58  H    0.140364
    59  H    0.130628
    60  H    0.130120
    61  H    0.133794
    62  H    0.158370
    63  H    0.162690
    64  H    0.153808
    65  H    0.149838
    66  H    0.136961
    67  H    0.133817
    68  H    0.154941
    69  H    0.138212
    70  H    0.125793
    71  H    0.126289
    72  H    0.144737
    73  H    0.141027
    74  H    0.130698
 Sum of Mulliken charges =  -0.00000

 Dipole moment (field-independent basis, Debye):
    X=              1.5327    Y=              0.0594    Z=              0.0064  Tot=              1.5339
 Quadrupole moment (field-independent basis, Debye-Ang):
   XX=           -232.4976   YY=           -243.2691   ZZ=           -260.0922
   XY=             -7.8376   XZ=             -2.0485   YZ=             -1.3254

 Normal termination of Gaussian 16 at Sat Nov  5 01:43:52 2022.
