 Gaussian 16, Revision B.01,
 Gaussian 16:  ES64L-G16RevB.01 20-Dec-2017

 -------------------------------------------------------------------
 #p b3lyp/6-31g(d) 6D 10F nosymm GFInput td=(50-50,nstate=2) SCF=XQC
 -------------------------------------------------------------------

 ------------------------------
 Gaussian input prepared by ASE
 ------------------------------
 Symbolic Z-matrix:
 Charge =  0 Multiplicity = 1

                          Input orientation:
 ---------------------------------------------------------------------
 Center     Atomic      Atomic             Coordinates (Angstroms)
 Number     Number       Type             X           Y           Z
 ---------------------------------------------------------------------
      1          6           0       12.674593    1.699368    2.195111
      2          6           0       11.778344    2.765761    2.101585
      3          6           0       10.435544    2.530921    1.810912
      4          6           0        9.957866    1.224536    1.608540
      5          6           0        8.528228    0.974716    1.299853
      6          6           0        7.797719    1.854415    0.480720
      7          6           0        6.458550    1.622993    0.190635
      8          6           0        5.799998    0.497800    0.710875
      9          6           0        4.373571    0.250578    0.402002
     10          7           0        3.804786   -0.861741    0.890667
     11          6           0        2.508293   -1.038465    0.590700
     12          6           0        1.819912   -2.233133    1.132668
     13          6           0        2.525307   -3.178174    1.894375
     14          6           0        1.872265   -4.298120    2.402586
     15          6           0        0.509053   -4.486015    2.159390
     16          6           0       -0.199368   -3.548232    1.403919
     17          6           0        0.450386   -2.428103    0.891367
     18          7           0        1.788795   -0.192415   -0.165798
     19          6           0        2.445727    0.881534   -0.619329
     20          6           0        1.686804    1.877868   -1.424788
     21          6           0        1.969782    3.236366   -1.212551
     22          6           0        1.242134    4.232374   -1.856558
     23          6           0        0.222263    3.876916   -2.740298
     24          6           0       -0.045547    2.530597   -2.983217
     25          6           0        0.674720    1.511623   -2.341158
     26          6           0        0.412284    0.100781   -2.755663
     27          6           0        1.377004   -0.601650   -3.488650
     28          6           0        1.143502   -1.895844   -3.974659
     29          6           0       -0.070842   -2.544677   -3.751466
     30          6           0       -1.018923   -1.841807   -3.023251
     31          8           0       -2.261695   -2.330109   -2.690086
     32          6           0       -2.872026   -1.347304   -1.947614
     33          6           0       -4.144681   -1.456277   -1.398911
     34          6           0       -4.580872   -0.362629   -0.662571
     35          6           0       -3.772361    0.786866   -0.487061
     36          6           0       -2.498994    0.875768   -1.048359
     37          6           0       -2.039605   -0.215390   -1.798607
     38          6           0       -0.817652   -0.541800   -2.519402
     39          6           0       -4.513795    1.752193    0.337742
     40          6           0       -4.161722    3.025991    0.791020
     41          6           0       -5.072737    3.738831    1.573342
     42          6           0       -6.317864    3.189176    1.899361
     43          6           0       -6.671098    1.913600    1.446487
     44          6           0       -5.766047    1.202647    0.668026
     45          6           0       -5.928399   -0.201759    0.063669
     46          6           0       -6.095861   -1.264267    1.154086
     47          6           0       -5.162298   -1.374905    2.196541
     48          6           0       -5.287178   -2.339579    3.189789
     49          6           0       -6.368180   -3.228362    3.159732
     50          6           0       -7.307123   -3.140227    2.140790
     51          6           0       -7.166031   -2.162879    1.148113
     52          8           0       -8.147379   -2.159792    0.187030
     53          6           0       -8.112390   -1.213262   -0.807808
     54          6           0       -9.174777   -1.266090   -1.718251
     55          6           0       -9.233784   -0.352921   -2.762385
     56          6           0       -8.232418    0.615589   -2.898244
     57          6           0       -7.184843    0.654276   -1.985229
     58          6           0       -7.099436   -0.257277   -0.921296
     59          7           0        3.730920    1.157223   -0.355027
     60          6           0        6.521043   -0.386515    1.528026
     61          6           0        7.859616   -0.149857    1.816441
     62          6           0       10.872186    0.161436    1.706663
     63          6           0       12.215327    0.396069    1.995920
     64          1           0       13.721552    1.882351    2.421172
     65          1           0       12.123328    3.783627    2.263343
     66          1           0        9.741905    3.365869    1.766620
     67          1           0        8.296082    2.715149    0.044091
     68          1           0        5.908010    2.301734   -0.451075
     69          1           0        3.582277   -3.021030    2.077257
     70          1           0        2.426255   -5.025708    2.989687
     71          1           0        0.000735   -5.360413    2.557578
     72          1           0       -1.259739   -3.689103    1.213246
     73          1           0       -0.088577   -1.693417    0.304292
     74          1           0        2.763133    3.494378   -0.519023
     75          1           0        1.467802    5.278237   -1.667955
     76          1           0       -0.352874    4.643243   -3.253102
     77          1           0       -0.812837    2.252336   -3.700252
     78          1           0        2.328813   -0.120214   -3.694615
     79          1           0        1.921905   -2.399210   -4.540885
     80          1           0       -0.271708   -3.545333   -4.118542
     81          1           0       -4.747718   -2.347456   -1.540409
     82          1           0       -1.880882    1.756206   -0.909656
     83          1           0       -3.195820    3.458004    0.542001
     84          1           0       -4.811518    4.730580    1.933011
     85          1           0       -7.015440    3.756874    2.509139
     86          1           0       -7.637941    1.486627    1.700233
     87          1           0       -4.324450   -0.683740    2.219276
     88          1           0       -4.548283   -2.399054    3.983521
     89          1           0       -6.478552   -3.986668    3.929923
     90          1           0       -8.158656   -3.811241    2.087146
     91          1           0       -9.934418   -2.029272   -1.581409
     92          1           0      -10.058310   -0.394556   -3.468623
     93          1           0       -8.270126    1.334696   -3.711247
     94          1           0       -6.407012    1.405640   -2.088624
     95          1           0        6.014099   -1.252025    1.939356
     96          1           0        8.391101   -0.831213    2.474564
     97          1           0       10.531225   -0.854353    1.527403
     98          1           0       12.906041   -0.440779    2.057730
 ---------------------------------------------------------------------

 SCF Done:  E(RB3LYP) =  -2546.03816260     A.U. after   16 cycles

 Excitation energies and oscillator strengths:

 Excited state symmetry could not be determined.
 Excited State   1:      Triplet-?Sym    2.8374 eV  436.96 nm  f=0.0000  <S**2>=2.000
     193 -> 211       -0.14378
     203 -> 212        0.10577
     207 -> 211        0.57879
     207 -> 215        0.16006
 This state for optimization and/or second-order correction.
 Total Energy, E(TD-HF/TD-DFT) =  -2545.93388944
 Copying the excited state density for this state as the 1-particle RhoCI density.

 Excited state symmetry could not be determined.
 Excited State   2:      Triplet-?Sym    2.9374 eV  422.08 nm  f=0.0000  <S**2>=2.000
     206 -> 213        0.16178
     208 -> 212        0.11006
     208 -> 213       -0.31317
     210 -> 212        0.20563
     210 -> 213       -0.19414
     210 -> 214       -0.38000
     210 -> 215       -0.21353

 Excited state symmetry could not be determined.
 Excited State   3:      Singlet-?Sym    3.2788 eV  378.14 nm  f=0.0098  <S**2>=0.000
     210 -> 211        0.69471

 Excited state symmetry could not be determined.
 Excited State   4:      Singlet-?Sym    3.3084 eV  374.75 nm  f=0.0449  <S**2>=0.000
     210 -> 212        0.69196

 Alpha  occ. eigenvalues --  -19.20702 -19.19471 -14.33524 -14.33509 -14.33348
 Alpha  occ. eigenvalues --  -10.27392 -10.27348 -10.27227 -10.25013 -10.25009
 Alpha  occ. eigenvalues --  -10.24793 -10.24602 -10.22263 -10.21085 -10.20713
 Alpha  occ. eigenvalues --  -10.20656 -10.20592 -10.20256 -10.20033 -10.20018
 Alpha  occ. eigenvalues --  -10.20012 -10.20006 -10.19958 -10.19910 -10.19830
 Alpha  occ. eigenvalues --  -10.19761 -10.19702 -10.19688 -10.19638 -10.19550
 Alpha  occ. eigenvalues --  -10.19542 -10.19461 -10.19415 -10.19394 -10.19367
 Alpha  occ. eigenvalues --  -10.19355 -10.19344 -10.19331 -10.19323 -10.19307
 Alpha  occ. eigenvalues --  -10.19298 -10.19275 -10.19265 -10.19256 -10.19245
 Alpha  occ. eigenvalues --  -10.19178 -10.19126 -10.19119 -10.19014 -10.18998
 Alpha  occ. eigenvalues --  -10.18962 -10.18947 -10.18937 -10.18932 -10.18902
 Alpha  occ. eigenvalues --  -10.18847 -10.18828 -10.18796 -10.18788 -10.18765
 Alpha  occ. eigenvalues --  -10.18720 -10.18501 -10.18494  -1.10360  -1.08729
 Alpha  occ. eigenvalues --   -1.01791  -0.90496  -0.90332  -0.89536  -0.87132
 Alpha  occ. eigenvalues --   -0.86839  -0.85969  -0.85285  -0.85055  -0.84956
 Alpha  occ. eigenvalues --   -0.84670  -0.84601  -0.81232  -0.78588  -0.78355
 Alpha  occ. eigenvalues --   -0.77708  -0.77369  -0.76449  -0.76394  -0.75835
 Alpha  occ. eigenvalues --   -0.75122  -0.74536  -0.74376  -0.74342  -0.74319
 Alpha  occ. eigenvalues --   -0.73388  -0.73199  -0.73025  -0.72500  -0.71034
 Alpha  occ. eigenvalues --   -0.67866  -0.67418  -0.67358  -0.65114  -0.63720
 Alpha  occ. eigenvalues --   -0.63206  -0.62611  -0.62395  -0.62152  -0.61204
 Alpha  occ. eigenvalues --   -0.60685  -0.59860  -0.59601  -0.59453  -0.59424
 Alpha  occ. eigenvalues --   -0.58447  -0.57946  -0.57817  -0.57438  -0.56634
 Alpha  occ. eigenvalues --   -0.55391  -0.54841  -0.54011  -0.53941  -0.52792
 Alpha  occ. eigenvalues --   -0.52287  -0.51779  -0.51404  -0.50541  -0.49841
 Alpha  occ. eigenvalues --   -0.49388  -0.47918  -0.47903  -0.47765  -0.46821
 Alpha  occ. eigenvalues --   -0.46683  -0.46593  -0.46271  -0.46145  -0.46006
 Alpha  occ. eigenvalues --   -0.45847  -0.45516  -0.45456  -0.44834  -0.44540
 Alpha  occ. eigenvalues --   -0.44435  -0.44364  -0.44097  -0.43910  -0.43503
 Alpha  occ. eigenvalues --   -0.43305  -0.43281  -0.42912  -0.42838  -0.42649
 Alpha  occ. eigenvalues --   -0.42497  -0.42055  -0.41830  -0.41657  -0.41544
 Alpha  occ. eigenvalues --   -0.41511  -0.41223  -0.41107  -0.39244  -0.38511
 Alpha  occ. eigenvalues --   -0.38283  -0.38110  -0.37912  -0.37721  -0.37706
 Alpha  occ. eigenvalues --   -0.37474  -0.37245  -0.37173  -0.37138  -0.36811
 Alpha  occ. eigenvalues --   -0.36648  -0.36110  -0.35956  -0.35458  -0.35444
 Alpha  occ. eigenvalues --   -0.35310  -0.35056  -0.34819  -0.34484  -0.34386
 Alpha  occ. eigenvalues --   -0.34089  -0.33997  -0.33987  -0.33812  -0.33622
 Alpha  occ. eigenvalues --   -0.33221  -0.32755  -0.32538  -0.32363  -0.31662
 Alpha  occ. eigenvalues --   -0.29002  -0.27679  -0.27161  -0.26523  -0.26251
 Alpha  occ. eigenvalues --   -0.25897  -0.25500  -0.25449  -0.25394  -0.25303
 Alpha  occ. eigenvalues --   -0.25149  -0.24873  -0.24325  -0.24312  -0.23913
 Alpha  occ. eigenvalues --   -0.23328  -0.22520  -0.21933  -0.20842  -0.20297
 Alpha virt. eigenvalues --   -0.06835  -0.06420  -0.03893  -0.02683  -0.02395
 Alpha virt. eigenvalues --   -0.01366  -0.01141  -0.01102  -0.00583  -0.00138
 Alpha virt. eigenvalues --   -0.00031   0.00423   0.00473   0.00698   0.01342

 Mulliken charges:
               1
     1  C   -0.125397
     2  C   -0.133832
     3  C   -0.172100
     4  C    0.087615
     5  C    0.104130
     6  C   -0.185963
     7  C   -0.167521
     8  C    0.083668
     9  C    0.445009
    10  N   -0.540710
    11  C    0.444504
    12  C    0.074372
    13  C   -0.157570
    14  C   -0.140198
    15  C   -0.116509
    16  C   -0.144301
    17  C   -0.159282
    18  N   -0.503724
    19  C    0.373259
    20  C    0.092667
    21  C   -0.164533
    22  C   -0.133823
    23  C   -0.123849
    24  C   -0.172618
    25  C    0.029160
    26  C    0.029278
    27  C   -0.180905
    28  C   -0.138701
    29  C   -0.198520
    30  C    0.319764
    31  O   -0.555282
    32  C    0.316343
    33  C   -0.267235
    34  C    0.111920
    35  C    0.061569
    36  C   -0.268442
    37  C    0.089076
    38  C    0.037771
    39  C    0.071532
    40  C   -0.194008
    41  C   -0.134524
    42  C   -0.136324
    43  C   -0.184806
    44  C    0.108145
    45  C   -0.229744
    46  C    0.144890
    47  C   -0.195074
    48  C   -0.136201
    49  C   -0.134149
    50  C   -0.184236
    51  C    0.288467
    52  O   -0.573415
    53  C    0.288249
    54  C   -0.184098
    55  C   -0.133738
    56  C   -0.134495
    57  C   -0.192964
    58  C    0.145027
    59  N   -0.519224
    60  C   -0.165578
    61  C   -0.187078
    62  C   -0.172186
    63  C   -0.133844
    64  H    0.131790
    65  H    0.132464
    66  H    0.134544
    67  H    0.136011
    68  H    0.161164
    69  H    0.158059
    70  H    0.131883
    71  H    0.132928
    72  H    0.141294
    73  H    0.175134
    74  H    0.156744
    75  H    0.136103
    76  H    0.137584
    77  H    0.146584
    78  H    0.135629
    79  H    0.135506
    80  H    0.146930
    81  H    0.153554
    82  H    0.153575
    83  H    0.133564
    84  H    0.129107
    85  H    0.129770
    86  H    0.136620
    87  H    0.146486
    88  H    0.131328
    89  H    0.132129
    90  H    0.141431
    91  H    0.141494
    92  H    0.132365
    93  H    0.129640
    94  H    0.143517
    95  H    0.161657
    96  H    0.136148
    97  H    0.134937
    98  H    0.132612
 Sum of Mulliken charges =  -0.00000

 Dipole moment (field-independent basis, Debye):
    X=              1.4755    Y=              1.1511    Z=              0.2708  Tot=              1.8909
 Quadrupole moment (field-independent basis, Debye-Ang):
   XX=           -321.6865   YY=           -324.3738   ZZ=           -345.6160
   XY=              1.3486   XZ=              6.3550   YZ=             -7.8819

 Normal termination of Gaussian 16 at Sat Nov  5 11:24:10 2022.
