 Gaussian 16, Revision B.01,
 Gaussian 16:  ES64L-G16RevB.01 20-Dec-2017

 -----------------------------
 #p b3lyp/6-31g(d) opt SCF=XQC
 -----------------------------

 ------------------------------
 Gaussian input prepared by ASE
 ------------------------------
 Symbolic Z-matrix:
 Charge =  0 Multiplicity = 1

 SCF Done:  E(RB3LYP) =  -2024.10796789     A.U. after   16 cycles
 SCF Done:  E(RB3LYP) =  -2024.12336315     A.U. after   14 cycles
 SCF Done:  E(RB3LYP) =  -2024.12492826     A.U. after   11 cycles
 SCF Done:  E(RB3LYP) =  -2024.12534984     A.U. after   12 cycles
 SCF Done:  E(RB3LYP) =  -2024.12548894     A.U. after   11 cycles
 SCF Done:  E(RB3LYP) =  -2024.12554681     A.U. after   11 cycles
 SCF Done:  E(RB3LYP) =  -2024.12555648     A.U. after   10 cycles
 SCF Done:  E(RB3LYP) =  -2024.12555851     A.U. after    9 cycles
 SCF Done:  E(RB3LYP) =  -2024.12555936     A.U. after    8 cycles
 SCF Done:  E(RB3LYP) =  -2024.12555948     A.U. after    7 cycles
 SCF Done:  E(RB3LYP) =  -2024.12555951     A.U. after    6 cycles
 SCF Done:  E(RB3LYP) =  -2024.12555952     A.U. after    6 cycles
 Optimization completed.
    -- Stationary point found.

                         Standard orientation:
 ---------------------------------------------------------------------
 Center     Atomic      Atomic             Coordinates (Angstroms)
 Number     Number       Type             X           Y           Z
 ---------------------------------------------------------------------
      1          6           0       -5.679655   -1.610048   -2.509090
      2          6           0       -5.565947   -1.791917   -0.979007
      3          6           0       -6.509884   -0.802486   -0.259604
      4          6           0       -5.851943   -3.236231   -0.565861
      5          6           0       -7.016590   -3.976132   -0.733286
      6          6           0       -7.059305   -5.298225   -0.272981
      7          6           0       -5.943329   -5.869206    0.347130
      8          6           0       -4.769293   -5.131717    0.517677
      9          6           0       -4.727062   -3.812861    0.059532
     10          6           0       -3.654533   -2.813882    0.097704
     11          6           0       -2.352751   -2.870961    0.598736
     12          6           0       -1.530034   -1.749670    0.506539
     13          6           0       -1.988435   -0.566739   -0.103280
     14          7           0       -1.158232    0.582823   -0.201859
     15          6           0        0.246850    0.460494   -0.364873
     16          6           0        1.129830    1.319198    0.308030
     17          6           0        2.505452    1.210818    0.116904
     18          6           0        3.057582    0.240863   -0.731027
     19          6           0        4.557886    0.117766   -0.938769
     20          6           0        5.188055    1.421106   -1.463633
     21          6           0        6.647356    1.188131   -1.857097
     22          6           0        7.447655    0.540418   -0.744341
     23          6           0        8.843536    0.680391   -0.727151
     24          6           0        9.619287    0.110888    0.277478
     25          6           0        8.995328   -0.611575    1.297057
     26          6           0        7.611706   -0.759180    1.288374
     27          6           0        6.818317   -0.196702    0.274828
     28          6           0        5.293397   -0.358605    0.353359
     29          6           0        4.871276   -1.777884    0.721621
     30          6           0        5.318776   -2.879643   -0.023016
     31          6           0        4.902991   -4.172854    0.290244
     32          6           0        4.031556   -4.391302    1.360396
     33          6           0        3.582033   -3.305515    2.111168
     34          6           0        3.999368   -2.011217    1.791493
     35          6           0        2.165847   -0.612003   -1.394781
     36          6           0        0.787985   -0.504980   -1.230187
     37          6           0       -1.718200    1.854019    0.139542
     38          6           0       -2.324709    2.026554    1.369689
     39          6           0       -2.889386    3.256582    1.755884
     40          6           0       -2.836208    4.356239    0.898399
     41          6           0       -2.236676    4.208234   -0.399454
     42          6           0       -2.198304    5.269566   -1.347016
     43          6           0       -1.649267    5.101156   -2.598119
     44          6           0       -1.115129    3.850036   -2.979212
     45          6           0       -1.132958    2.796717   -2.094391
     46          6           0       -1.678656    2.942010   -0.790246
     47          6           0       -3.408910    5.626440    1.364326
     48          6           0       -4.241799    5.686598    2.416837
     49          6           0       -4.626005    4.439550    3.172537
     50          6           0       -3.474045    3.426525    3.145176
     51          6           0       -3.301384   -0.515648   -0.611973
     52          6           0       -4.122146   -1.627351   -0.502153
     53          1           0       -5.409782   -0.587975   -2.799312
     54          1           0       -5.016958   -2.302331   -3.038156
     55          1           0       -6.706489   -1.795129   -2.845479
     56          1           0       -6.250345    0.232601   -0.510377
     57          1           0       -6.446394   -0.917515    0.827231
     58          1           0       -7.550258   -0.971599   -0.561015
     59          1           0       -7.889422   -3.540737   -1.214855
     60          1           0       -7.965853   -5.884249   -0.398909
     61          1           0       -5.989507   -6.896479    0.699298
     62          1           0       -3.904719   -5.581808    0.999364
     63          1           0       -1.976423   -3.773507    1.073992
     64          1           0       -0.522604   -1.784720    0.907473
     65          1           0        0.735088    2.073406    0.980822
     66          1           0        3.157131    1.896540    0.653647
     67          1           0        4.720492   -0.651389   -1.707129
     68          1           0        4.615396    1.787423   -2.323688
     69          1           0        5.131995    2.200112   -0.691138
     70          1           0        7.120793    2.134428   -2.147704
     71          1           0        6.678644    0.549232   -2.753525
     72          1           0        9.321944    1.253797   -1.518983
     73          1           0       10.699046    0.235229    0.270802
     74          1           0        9.583421   -1.058039    2.094641
     75          1           0        7.129538   -1.327863    2.078942
     76          1           0        4.949689    0.296998    1.166914
     77          1           0        6.011344   -2.722340   -0.846397
     78          1           0        5.263781   -5.012489   -0.298567
     79          1           0        3.710007   -5.399684    1.607352
     80          1           0        2.906459   -3.462341    2.948323
     81          1           0        3.637773   -1.169208    2.376905
     82          1           0        2.557521   -1.375484   -2.062949
     83          1           0        0.124590   -1.173874   -1.769184
     84          1           0       -2.356291    1.187193    2.059491
     85          1           0       -2.625720    6.231826   -1.088657
     86          1           0       -1.636775    5.931461   -3.299246
     87          1           0       -0.696747    3.718238   -3.973333
     88          1           0       -0.732329    1.833296   -2.387396
     89          1           0       -3.161212    6.538907    0.831520
     90          1           0       -4.676953    6.637687    2.715127
     91          1           0       -4.891589    4.677360    4.209069
     92          1           0       -5.529054    3.999566    2.717466
     93          1           0       -2.677170    3.784217    3.816994
     94          1           0       -3.801359    2.457759    3.539414
     95          1           0       -3.650238    0.397153   -1.086427
 ---------------------------------------------------------------------

 The electronic state is 1-A.
 Alpha  occ. eigenvalues --  -14.35986 -10.22595 -10.22494 -10.22386 -10.20299
 Alpha  occ. eigenvalues --  -10.19888 -10.19609 -10.19601 -10.19503 -10.19424
 Alpha  occ. eigenvalues --  -10.19221 -10.19002 -10.18981 -10.18910 -10.18867
 Alpha  occ. eigenvalues --  -10.18813 -10.18812 -10.18810 -10.18698 -10.18677
 Alpha  occ. eigenvalues --  -10.18643 -10.18618 -10.18600 -10.18533 -10.18508
 Alpha  occ. eigenvalues --  -10.18467 -10.18461 -10.18442 -10.18431 -10.18416
 Alpha  occ. eigenvalues --  -10.18408 -10.18401 -10.18380 -10.18354 -10.18322
 Alpha  occ. eigenvalues --  -10.18314 -10.18304 -10.18273 -10.18270 -10.18262
 Alpha  occ. eigenvalues --  -10.18239 -10.18166 -10.18164 -10.18158 -10.18147
 Alpha  occ. eigenvalues --  -10.18128 -10.18106 -10.18033 -10.17983 -10.17830
 Alpha  occ. eigenvalues --  -10.17646 -10.17625  -0.95953  -0.88153  -0.87304
 Alpha  occ. eigenvalues --   -0.86631  -0.84695  -0.84410  -0.83797  -0.83340
 Alpha  occ. eigenvalues --   -0.81094  -0.80708  -0.79571  -0.77614  -0.77053
 Alpha  occ. eigenvalues --   -0.76729  -0.75435  -0.74736  -0.73970  -0.73705
 Alpha  occ. eigenvalues --   -0.73690  -0.73201  -0.72682  -0.72123  -0.72046
 Alpha  occ. eigenvalues --   -0.71407  -0.70222  -0.68565  -0.68322  -0.64313
 Alpha  occ. eigenvalues --   -0.63800  -0.63509  -0.62729  -0.61927  -0.61235
 Alpha  occ. eigenvalues --   -0.60599  -0.59898  -0.59630  -0.59304  -0.58658
 Alpha  occ. eigenvalues --   -0.58427  -0.57294  -0.57235  -0.56543  -0.55182
 Alpha  occ. eigenvalues --   -0.54128  -0.53412  -0.52745  -0.51217  -0.50935
 Alpha  occ. eigenvalues --   -0.50421  -0.50127  -0.49395  -0.49149  -0.47712
 Alpha  occ. eigenvalues --   -0.47474  -0.46948  -0.46598  -0.45776  -0.45464
 Alpha  occ. eigenvalues --   -0.45066  -0.44979  -0.44608  -0.44276  -0.44240
 Alpha  occ. eigenvalues --   -0.43851  -0.43222  -0.43098  -0.42810  -0.42565
 Alpha  occ. eigenvalues --   -0.42477  -0.42324  -0.42247  -0.41904  -0.41815
 Alpha  occ. eigenvalues --   -0.41373  -0.41287  -0.41151  -0.40715  -0.40573
 Alpha  occ. eigenvalues --   -0.39998  -0.39872  -0.38906  -0.38781  -0.38633
 Alpha  occ. eigenvalues --   -0.38472  -0.38194  -0.37868  -0.37754  -0.37160
 Alpha  occ. eigenvalues --   -0.37079  -0.36917  -0.36088  -0.35854  -0.35361
 Alpha  occ. eigenvalues --   -0.35121  -0.35013  -0.34761  -0.34556  -0.34319
 Alpha  occ. eigenvalues --   -0.33915  -0.33855  -0.33747  -0.33665  -0.33180
 Alpha  occ. eigenvalues --   -0.32761  -0.32296  -0.32146  -0.31724  -0.31372
 Alpha  occ. eigenvalues --   -0.31361  -0.30940  -0.30497  -0.30389  -0.29187
 Alpha  occ. eigenvalues --   -0.26366  -0.25062  -0.24736  -0.24540  -0.24243
 Alpha  occ. eigenvalues --   -0.24106  -0.23862  -0.23712  -0.23360  -0.22610
 Alpha  occ. eigenvalues --   -0.22146  -0.20367  -0.17327
 Alpha virt. eigenvalues --   -0.04841  -0.02548  -0.01314  -0.00199  -0.00026
 Alpha virt. eigenvalues --    0.00031   0.00359   0.00509   0.00805   0.01116
 Alpha virt. eigenvalues --    0.01525   0.01720   0.04733   0.06873   0.08814

 Mulliken charges:
               1
     1  C   -0.437484
     2  C   -0.061893
     3  C   -0.437387
     4  C    0.100776
     5  C   -0.203884
     6  C   -0.133238
     7  C   -0.136422
     8  C   -0.194730
     9  C    0.080659
    10  C    0.084058
    11  C   -0.206455
    12  C   -0.191320
    13  C    0.300150
    14  N   -0.663855
    15  C    0.297574
    16  C   -0.179352
    17  C   -0.203198
    18  C    0.196611
    19  C   -0.193972
    20  C   -0.269748
    21  C   -0.346953
    22  C    0.110576
    23  C   -0.191013
    24  C   -0.126954
    25  C   -0.134408
    26  C   -0.182344
    27  C    0.109873
    28  C   -0.243183
    29  C    0.176706
    30  C   -0.177811
    31  C   -0.131503
    32  C   -0.130810
    33  C   -0.129050
    34  C   -0.191431
    35  C   -0.200693
    36  C   -0.165375
    37  C    0.191845
    38  C   -0.237312
    39  C    0.099405
    40  C    0.058040
    41  C    0.045999
    42  C   -0.192728
    43  C   -0.134351
    44  C   -0.136002
    45  C   -0.190896
    46  C    0.124336
    47  C   -0.146903
    48  C   -0.135500
    49  C   -0.299674
    50  C   -0.348060
    51  C   -0.254617
    52  C    0.098799
    53  H    0.146217
    54  H    0.156546
    55  H    0.143012
    56  H    0.147045
    57  H    0.154928
    58  H    0.142986
    59  H    0.122245
    60  H    0.124427
    61  H    0.125287
    62  H    0.125906
    63  H    0.129632
    64  H    0.146736
    65  H    0.141286
    66  H    0.126100
    67  H    0.130649
    68  H    0.141141
    69  H    0.138781
    70  H    0.145017
    71  H    0.149163
    72  H    0.118492
    73  H    0.124672
    74  H    0.125648
    75  H    0.133695
    76  H    0.144478
    77  H    0.130068
    78  H    0.127292
    79  H    0.125916
    80  H    0.126109
    81  H    0.127175
    82  H    0.128479
    83  H    0.143009
    84  H    0.135560
    85  H    0.131157
    86  H    0.128013
    87  H    0.129330
    88  H    0.150548
    89  H    0.130804
    90  H    0.129008
    91  H    0.143018
    92  H    0.154051
    93  H    0.156643
    94  H    0.146215
    95  H    0.138617
 Sum of Mulliken charges =  -0.00000

 Dipole moment (field-independent basis, Debye):
    X=             -0.7235    Y=              1.0722    Z=              0.1717  Tot=              1.3048
 Quadrupole moment (field-independent basis, Debye-Ang):
   XX=           -289.8561   YY=           -285.1814   ZZ=           -289.2089
   XY=             -3.7872   XZ=             -6.8400   YZ=             -1.3233

 Normal termination of Gaussian 16 at Sat Nov  5 01:45:51 2022.
