 Gaussian 16, Revision B.01,
 Gaussian 16:  ES64L-G16RevB.01 20-Dec-2017

 -----------------------------
 #p b3lyp/6-31g(d) opt SCF=XQC
 -----------------------------

 ------------------------------
 Gaussian input prepared by ASE
 ------------------------------
 Symbolic Z-matrix:
 Charge =  0 Multiplicity = 1

 SCF Done:  E(RB3LYP) =  -2546.01794009     A.U. after   16 cycles
 SCF Done:  E(RB3LYP) =  -2546.03255895     A.U. after   15 cycles
 SCF Done:  E(RB3LYP) =  -2546.03669319     A.U. after   13 cycles
 SCF Done:  E(RB3LYP) =  -2546.03772097     A.U. after   12 cycles
 SCF Done:  E(RB3LYP) =  -2546.03807494     A.U. after   12 cycles
 SCF Done:  E(RB3LYP) =  -2546.03811487     A.U. after   10 cycles
 SCF Done:  E(RB3LYP) =  -2546.03813243     A.U. after   10 cycles
 SCF Done:  E(RB3LYP) =  -2546.03813916     A.U. after   10 cycles
 SCF Done:  E(RB3LYP) =  -2546.03814362     A.U. after   10 cycles
 SCF Done:  E(RB3LYP) =  -2546.03814857     A.U. after   10 cycles
 SCF Done:  E(RB3LYP) =  -2546.03815784     A.U. after   10 cycles
 SCF Done:  E(RB3LYP) =  -2546.03815899     A.U. after    9 cycles
 SCF Done:  E(RB3LYP) =  -2546.03815944     A.U. after    9 cycles
 SCF Done:  E(RB3LYP) =  -2546.03815961     A.U. after    7 cycles
 SCF Done:  E(RB3LYP) =  -2546.03815971     A.U. after    7 cycles
 SCF Done:  E(RB3LYP) =  -2546.03815983     A.U. after    7 cycles
 SCF Done:  E(RB3LYP) =  -2546.03815990     A.U. after    7 cycles
 SCF Done:  E(RB3LYP) =  -2546.03815993     A.U. after    7 cycles
 SCF Done:  E(RB3LYP) =  -2546.03815995     A.U. after    6 cycles
 SCF Done:  E(RB3LYP) =  -2546.03815995     A.U. after    6 cycles
 Optimization completed.
    -- Stationary point found.

                         Standard orientation:
 ---------------------------------------------------------------------
 Center     Atomic      Atomic             Coordinates (Angstroms)
 Number     Number       Type             X           Y           Z
 ---------------------------------------------------------------------
      1          6           0      -13.100704   -0.116262   -1.242211
      2          6           0      -12.302129    0.863785   -1.834655
      3          6           0      -10.922995    0.862227   -1.632815
      4          6           0      -10.310627   -0.119974   -0.835281
      5          6           0       -8.842393   -0.121874   -0.621157
      6          6           0       -8.126972    1.081412   -0.484163
      7          6           0       -6.751806    1.082317   -0.284165
      8          6           0       -6.040502   -0.125704   -0.212530
      9          6           0       -4.575678   -0.125410    0.000783
     10          7           0       -3.951811   -1.308557    0.103348
     11          6           0       -2.623158   -1.257467    0.288212
     12          6           0       -1.877763   -2.534884    0.374362
     13          6           0       -2.557174   -3.762070    0.316928
     14          6           0       -1.850759   -4.959420    0.396615
     15          6           0       -0.459906   -4.945908    0.531298
     16          6           0        0.222627   -3.728087    0.586919
     17          6           0       -0.480160   -2.528166    0.510383
     18          7           0       -1.921068   -0.116342    0.391519
     19          6           0       -2.631909    1.012863    0.290447
     20          6           0       -1.900294    2.308419    0.351138
     21          6           0       -2.325243    3.335580   -0.506181
     22          6           0       -1.638850    4.543904   -0.577362
     23          6           0       -0.516564    4.745947    0.227085
     24          6           0       -0.105078    3.744948    1.105713
     25          6           0       -0.781856    2.518468    1.189686
     26          6           0       -0.354608    1.554090    2.247323
     27          6           0       -1.181871    1.319851    3.352824
     28          6           0       -0.787800    0.491303    4.412957
     29          6           0        0.456897   -0.138105    4.415598
     30          6           0        1.268036    0.098522    3.315943
     31          8           0        2.516393   -0.452764    3.138152
     32          6           0        2.965416    0.002415    1.921244
     33          6           0        4.189343   -0.341844    1.359027
     34          6           0        4.455947    0.204870    0.110608
     35          6           0        3.532328    1.058246   -0.540936
     36          6           0        2.310660    1.392213    0.042517
     37          6           0        2.022044    0.854278    1.304207
     38          6           0        0.903822    0.923502    2.233748
     39          6           0        4.105737    1.458932   -1.834201
     40          6           0        3.598837    2.283920   -2.841386
     41          6           0        4.367522    2.499003   -3.987239
     42          6           0        5.624516    1.899699   -4.127075
     43          6           0        6.132697    1.073029   -3.119438
     44          6           0        5.369411    0.857675   -1.978566
     45          6           0        5.713537   -0.003318   -0.752095
     46          6           0        5.881711   -1.477400   -1.132593
     47          6           0        4.874119   -2.155486   -1.836473
     48          6           0        4.999583   -3.496414   -2.181296
     49          6           0        6.156537   -4.198134   -1.822896
     50          6           0        7.169473   -3.551432   -1.127653
     51          6           0        7.026708   -2.200599   -0.787963
     52          8           0        8.084462   -1.655308   -0.101998
     53          6           0        8.049970   -0.326048    0.242566
     54          6           0        9.188804    0.147534    0.905244
     55          6           0        9.254967    1.477786    1.297197
     56          6           0        8.184254    2.337799    1.026729
     57          6           0        7.061191    1.851353    0.367481
     58          6           0        6.966949    0.511093   -0.038720
     59          7           0       -3.955359    1.064831    0.082216
     60          6           0       -6.745937   -1.331541   -0.346603
     61          6           0       -8.120847   -1.327109   -0.548020
     62          6           0      -11.127834   -1.100251   -0.246200
     63          6           0      -12.507163   -1.098125   -0.446696
     64          1           0      -14.175931   -0.114842   -1.399038
     65          1           0      -12.752639    1.627747   -2.462853
     66          1           0      -10.308316    1.613906   -2.120035
     67          1           0       -8.662323    2.026264   -0.507082
     68          1           0       -6.211944    2.015477   -0.168679
     69          1           0       -3.636134   -3.759829    0.211264
     70          1           0       -2.384713   -5.904928    0.353190
     71          1           0        0.089972   -5.881535    0.592523
     72          1           0        1.304144   -3.712308    0.690171
     73          1           0        0.038231   -1.577142    0.551918
     74          1           0       -3.197088    3.159533   -1.127350
     75          1           0       -1.975976    5.321011   -1.257639
     76          1           0        0.028233    5.685326    0.184995
     77          1           0        0.744864    3.915563    1.760535
     78          1           0       -2.152228    1.806764    3.391121
     79          1           0       -1.463375    0.342515    5.250430
     80          1           0        0.780979   -0.782721    5.225440
     81          1           0        4.882295   -1.001307    1.871670
     82          1           0        1.603996    2.043603   -0.460265
     83          1           0        2.622867    2.751511   -2.739136
     84          1           0        3.985057    3.138127   -4.778695
     85          1           0        6.210140    2.077166   -5.025001
     86          1           0        7.108718    0.607215   -3.228432
     87          1           0        3.977239   -1.609363   -2.114992
     88          1           0        4.202262   -3.992650   -2.726770
     89          1           0        6.268201   -5.246187   -2.086560
     90          1           0        8.080788   -4.063620   -0.835395
     91          1           0       10.000706   -0.546941    1.096941
     92          1           0       10.138851    1.844606    1.811534
     93          1           0        8.226855    3.380159    1.328695
     94          1           0        6.229393    2.517448    0.156088
     95          1           0       -6.199402   -2.266692   -0.300939
     96          1           0       -8.643016   -2.270621   -0.678307
     97          1           0      -10.679964   -1.853264    0.396139
     98          1           0      -13.120309   -1.860648    0.026412
 ---------------------------------------------------------------------

 The electronic state is 1-A.
 Alpha  occ. eigenvalues --  -19.20702 -19.19471 -14.33524 -14.33510 -14.33348
 Alpha  occ. eigenvalues --  -10.27392 -10.27348 -10.27227 -10.25013 -10.25009
 Alpha  occ. eigenvalues --  -10.24793 -10.24602 -10.22263 -10.21085 -10.20713
 Alpha  occ. eigenvalues --  -10.20656 -10.20592 -10.20256 -10.20033 -10.20018
 Alpha  occ. eigenvalues --  -10.20012 -10.20006 -10.19958 -10.19910 -10.19830
 Alpha  occ. eigenvalues --  -10.19761 -10.19702 -10.19688 -10.19638 -10.19550
 Alpha  occ. eigenvalues --  -10.19542 -10.19461 -10.19415 -10.19394 -10.19367
 Alpha  occ. eigenvalues --  -10.19355 -10.19344 -10.19331 -10.19323 -10.19307
 Alpha  occ. eigenvalues --  -10.19298 -10.19275 -10.19265 -10.19256 -10.19245
 Alpha  occ. eigenvalues --  -10.19178 -10.19126 -10.19119 -10.19015 -10.18998
 Alpha  occ. eigenvalues --  -10.18962 -10.18947 -10.18937 -10.18932 -10.18903
 Alpha  occ. eigenvalues --  -10.18847 -10.18828 -10.18796 -10.18788 -10.18765
 Alpha  occ. eigenvalues --  -10.18719 -10.18501 -10.18494  -1.10360  -1.08729
 Alpha  occ. eigenvalues --   -1.01791  -0.90496  -0.90332  -0.89536  -0.87132
 Alpha  occ. eigenvalues --   -0.86840  -0.85969  -0.85285  -0.85055  -0.84956
 Alpha  occ. eigenvalues --   -0.84670  -0.84601  -0.81232  -0.78588  -0.78355
 Alpha  occ. eigenvalues --   -0.77708  -0.77369  -0.76449  -0.76394  -0.75835
 Alpha  occ. eigenvalues --   -0.75122  -0.74536  -0.74376  -0.74342  -0.74319
 Alpha  occ. eigenvalues --   -0.73388  -0.73199  -0.73025  -0.72501  -0.71034
 Alpha  occ. eigenvalues --   -0.67866  -0.67418  -0.67358  -0.65114  -0.63720
 Alpha  occ. eigenvalues --   -0.63206  -0.62611  -0.62395  -0.62152  -0.61204
 Alpha  occ. eigenvalues --   -0.60685  -0.59860  -0.59601  -0.59453  -0.59424
 Alpha  occ. eigenvalues --   -0.58447  -0.57946  -0.57817  -0.57438  -0.56634
 Alpha  occ. eigenvalues --   -0.55391  -0.54841  -0.54011  -0.53941  -0.52792
 Alpha  occ. eigenvalues --   -0.52287  -0.51779  -0.51404  -0.50541  -0.49841
 Alpha  occ. eigenvalues --   -0.49388  -0.47918  -0.47903  -0.47765  -0.46821
 Alpha  occ. eigenvalues --   -0.46683  -0.46593  -0.46271  -0.46145  -0.46006
 Alpha  occ. eigenvalues --   -0.45847  -0.45516  -0.45456  -0.44834  -0.44540
 Alpha  occ. eigenvalues --   -0.44435  -0.44364  -0.44097  -0.43910  -0.43503
 Alpha  occ. eigenvalues --   -0.43305  -0.43281  -0.42912  -0.42838  -0.42649
 Alpha  occ. eigenvalues --   -0.42497  -0.42055  -0.41830  -0.41657  -0.41544
 Alpha  occ. eigenvalues --   -0.41511  -0.41223  -0.41107  -0.39244  -0.38511
 Alpha  occ. eigenvalues --   -0.38283  -0.38110  -0.37912  -0.37721  -0.37706
 Alpha  occ. eigenvalues --   -0.37474  -0.37245  -0.37173  -0.37138  -0.36811
 Alpha  occ. eigenvalues --   -0.36648  -0.36110  -0.35956  -0.35458  -0.35444
 Alpha  occ. eigenvalues --   -0.35310  -0.35056  -0.34819  -0.34484  -0.34386
 Alpha  occ. eigenvalues --   -0.34089  -0.33997  -0.33987  -0.33812  -0.33622
 Alpha  occ. eigenvalues --   -0.33221  -0.32755  -0.32538  -0.32363  -0.31662
 Alpha  occ. eigenvalues --   -0.29002  -0.27679  -0.27161  -0.26523  -0.26251
 Alpha  occ. eigenvalues --   -0.25897  -0.25500  -0.25449  -0.25394  -0.25303
 Alpha  occ. eigenvalues --   -0.25149  -0.24873  -0.24325  -0.24312  -0.23913
 Alpha  occ. eigenvalues --   -0.23328  -0.22520  -0.21933  -0.20842  -0.20297
 Alpha virt. eigenvalues --   -0.06835  -0.06420  -0.03892  -0.02683  -0.02395
 Alpha virt. eigenvalues --   -0.01365  -0.01141  -0.01102  -0.00583  -0.00138
 Alpha virt. eigenvalues --   -0.00031   0.00423   0.00473   0.00698   0.01342

 Mulliken charges:
               1
     1  C   -0.125403
     2  C   -0.133835
     3  C   -0.172085
     4  C    0.087604
     5  C    0.104124
     6  C   -0.185967
     7  C   -0.167509
     8  C    0.083653
     9  C    0.445042
    10  N   -0.540719
    11  C    0.444495
    12  C    0.074360
    13  C   -0.157564
    14  C   -0.140204
    15  C   -0.116506
    16  C   -0.144308
    17  C   -0.159280
    18  N   -0.503723
    19  C    0.373265
    20  C    0.092668
    21  C   -0.164530
    22  C   -0.133824
    23  C   -0.123852
    24  C   -0.172622
    25  C    0.029172
    26  C    0.029266
    27  C   -0.180927
    28  C   -0.138686
    29  C   -0.198537
    30  C    0.319778
    31  O   -0.555278
    32  C    0.316320
    33  C   -0.267213
    34  C    0.111922
    35  C    0.061541
    36  C   -0.268403
    37  C    0.089049
    38  C    0.037817
    39  C    0.071509
    40  C   -0.194011
    41  C   -0.134514
    42  C   -0.136344
    43  C   -0.184792
    44  C    0.108166
    45  C   -0.229824
    46  C    0.144931
    47  C   -0.195066
    48  C   -0.136202
    49  C   -0.134142
    50  C   -0.184247
    51  C    0.288470
    52  O   -0.573423
    53  C    0.288242
    54  C   -0.184111
    55  C   -0.133730
    56  C   -0.134500
    57  C   -0.192961
    58  C    0.145082
    59  N   -0.519247
    60  C   -0.165577
    61  C   -0.187079
    62  C   -0.172176
    63  C   -0.133843
    64  H    0.131792
    65  H    0.132464
    66  H    0.134543
    67  H    0.136011
    68  H    0.161164
    69  H    0.158059
    70  H    0.131883
    71  H    0.132928
    72  H    0.141307
    73  H    0.175132
    74  H    0.156743
    75  H    0.136103
    76  H    0.137585
    77  H    0.146584
    78  H    0.135629
    79  H    0.135505
    80  H    0.146929
    81  H    0.153554
    82  H    0.153575
    83  H    0.133576
    84  H    0.129107
    85  H    0.129771
    86  H    0.136618
    87  H    0.146478
    88  H    0.131326
    89  H    0.132127
    90  H    0.141431
    91  H    0.141493
    92  H    0.132364
    93  H    0.129639
    94  H    0.143515
    95  H    0.161657
    96  H    0.136148
    97  H    0.134937
    98  H    0.132612
 Sum of Mulliken charges =  -0.00000

 Dipole moment (field-independent basis, Debye):
    X=             -1.5937    Y=              0.7830    Z=             -0.6501  Tot=              1.8909
 Quadrupole moment (field-independent basis, Debye-Ang):
   XX=           -320.0935   YY=           -323.1303   ZZ=           -347.7668
   XY=              1.3693   XZ=              3.2681   YZ=             -6.2768

 Normal termination of Gaussian 16 at Sat Nov  5 02:36:35 2022.
