 Gaussian 16, Revision B.01,
 Gaussian 16:  ES64L-G16RevB.01 20-Dec-2017

 -------------------------------------------------------------------
 #p b3lyp/6-31g(d) 6D 10F nosymm GFInput td=(50-50,nstate=2) SCF=XQC
 -------------------------------------------------------------------

 ------------------------------
 Gaussian input prepared by ASE
 ------------------------------
 Symbolic Z-matrix:
 Charge =  0 Multiplicity = 1

                          Input orientation:
 ---------------------------------------------------------------------
 Center     Atomic      Atomic             Coordinates (Angstroms)
 Number     Number       Type             X           Y           Z
 ---------------------------------------------------------------------
      1          6           0        6.034295   -2.041824    0.480174
      2          6           0        5.622821   -1.543250   -0.923134
      3          6           0        6.403295   -0.256840   -1.274619
      4          6           0        5.827441   -2.626851   -1.982598
      5          6           0        7.005031   -3.255321   -2.370146
      6          6           0        6.961393   -4.231198   -3.373835
      7          6           0        5.747460   -4.571384   -3.979309
      8          6           0        4.560058   -3.944558   -3.593946
      9          6           0        4.603759   -2.970582   -2.593685
     10          6           0        3.540922   -2.158837   -1.992699
     11          6           0        2.166289   -2.108890   -2.231062
     12          6           0        1.373553   -1.222208   -1.504411
     13          6           0        1.938433   -0.390565   -0.519212
     14          7           0        1.139506    0.517905    0.227011
     15          6           0       -0.205684    0.208648    0.559606
     16          6           0       -1.206870    1.190893    0.508197
     17          6           0       -2.517703    0.884459    0.866566
     18          6           0       -2.888828   -0.405155    1.271295
     19          6           0       -4.318591   -0.743428    1.659333
     20          6           0       -4.838193    0.133685    2.813446
     21          6           0       -6.190848   -0.380571    3.307933
     22          6           0       -7.191780   -0.544293    2.181182
     23          6           0       -8.564337   -0.539151    2.471758
     24          6           0       -9.520244   -0.678174    1.470602
     25          6           0       -9.106109   -0.819493    0.144201
     26          6           0       -7.747216   -0.828843   -0.155123
     27          6           0       -6.772236   -0.698402    0.847634
     28          6           0       -5.291885   -0.669347    0.440846
     29          6           0       -4.945068   -1.737833   -0.591730
     30          6           0       -5.233409   -3.090373   -0.354860
     31          6           0       -4.882467   -4.070887   -1.281595
     32          6           0       -4.237499   -3.716868   -2.469463
     33          6           0       -3.948320   -2.375728   -2.719224
     34          6           0       -4.299526   -1.397199   -1.786108
     35          6           0       -1.880876   -1.377367    1.315776
     36          6           0       -0.562630   -1.083587    0.979671
     37          6           0        1.616726    1.855202    0.400080
     38          6           0        1.969038    2.604732   -0.706701
     39          6           0        2.442227    3.925319   -0.592182
     40          6           0        2.554483    4.527092    0.661860
     41          6           0        2.222225    3.770412    1.837789
     42          6           0        2.366841    4.299745    3.151053
     43          6           0        2.074983    3.549956    4.268058
     44          6           0        1.630813    2.215543    4.134295
     45          6           0        1.478354    1.663960    2.883208
     46          6           0        1.756601    2.416059    1.709915
     47          6           0        3.019724    5.919316    0.723084
     48          6           0        3.629325    6.511113   -0.317716
     49          6           0        3.862192    5.763159   -1.606189
     50          6           0        2.741853    4.740382   -1.835861
     51          6           0        3.325543   -0.448207   -0.278760
     52          6           0        4.112863   -1.318763   -1.016225
     53          1           0        5.822903   -1.280235    1.239773
     54          1           0        5.491067   -2.953387    0.749039
     55          1           0        7.107894   -2.261093    0.513468
     56          1           0        6.194235    0.534639   -0.545573
     57          1           0        6.127908    0.111534   -2.268066
     58          1           0        7.483236   -0.445248   -1.267192
     59          1           0        7.953846   -2.997742   -1.904615
     60          1           0        7.877190   -4.727487   -3.683876
     61          1           0        5.727366   -5.330869   -4.756627
     62          1           0        3.619373   -4.214467   -4.067604
     63          1           0        1.707278   -2.741460   -2.986868
     64          1           0        0.307118   -1.169609   -1.696354
     65          1           0       -0.954844    2.196411    0.187701
     66          1           0       -3.264699    1.673451    0.816748
     67          1           0       -4.324173   -1.783043    2.016527
     68          1           0       -4.109067    0.135981    3.632098
     69          1           0       -4.937927    1.174186    2.475583
     70          1           0       -6.601475    0.294516    4.069323
     71          1           0       -6.042994   -1.347963    3.812955
     72          1           0       -8.879956   -0.417820    3.506326
     73          1           0      -10.578096   -0.668601    1.720086
     74          1           0       -9.837794   -0.922259   -0.652919
     75          1           0       -7.427679   -0.946163   -1.187118
     76          1           0       -5.117189    0.305146   -0.038392
     77          1           0       -5.751261   -3.374403    0.558106
     78          1           0       -5.117387   -5.112807   -1.078937
     79          1           0       -3.966989   -4.480486   -3.193981
     80          1           0       -3.449839   -2.086780   -3.641096
     81          1           0       -4.063157   -0.354576   -1.984861
     82          1           0       -2.130769   -2.388864    1.627527
     83          1           0        0.196235   -1.857455    1.036971
     84          1           0        1.867587    2.160067   -1.693278
     85          1           0        2.731564    5.312333    3.281510
     86          1           0        2.197410    3.983298    5.257181
     87          1           0        1.416428    1.623203    5.019656
     88          1           0        1.146707    0.637575    2.777947
     89          1           0        2.878151    6.478489    1.642386
     90          1           0        3.993830    7.531947   -0.228625
     91          1           0        3.918030    6.454917   -2.454624
     92          1           0        4.838690    5.252638   -1.561564
     93          1           0        1.827173    5.282170   -2.125894
     94          1           0        2.988928    4.077343   -2.672758
     95          1           0        3.757420    0.191373    0.485721
 ---------------------------------------------------------------------

 SCF Done:  E(RB3LYP) =  -2024.12555719     A.U. after   16 cycles

 Excitation energies and oscillator strengths:

 Excited state symmetry could not be determined.
 Excited State   1:      Triplet-?Sym    2.0663 eV  600.04 nm  f=0.0000  <S**2>=2.000
     177 ->179        -0.39113
     178 ->179         0.56255
 This state for optimization and/or second-order correction.
 Total Energy, E(TD-HF/TD-DFT) =  -2024.04962302
 Copying the excited state density for this state as the 1-particle RhoCI density.

 Excited state symmetry could not be determined.
 Excited State   2:      Triplet-?Sym    2.7190 eV  455.98 nm  f=0.0000  <S**2>=2.000
     176 ->180        -0.16895
     177 ->179         0.20756
     177 ->180         0.17533
     178 ->179         0.15001
     178 ->180         0.56311

 Excited state symmetry could not be determined.
 Excited State   3:      Singlet-?Sym    2.8814 eV  430.29 nm  f=0.2047  <S**2>=0.000
     178 ->179         0.69881

 Excited state symmetry could not be determined.
 Excited State   4:      Singlet-?Sym    3.5703 eV  347.27 nm  f=0.5300  <S**2>=0.000
     177 ->179        -0.13588
     178 ->180         0.68408

 Alpha  occ. eigenvalues --  -14.35986 -10.22595 -10.22494 -10.22386 -10.20299
 Alpha  occ. eigenvalues --  -10.19888 -10.19609 -10.19601 -10.19503 -10.19424
 Alpha  occ. eigenvalues --  -10.19221 -10.19002 -10.18981 -10.18910 -10.18867
 Alpha  occ. eigenvalues --  -10.18813 -10.18812 -10.18810 -10.18698 -10.18677
 Alpha  occ. eigenvalues --  -10.18643 -10.18618 -10.18600 -10.18533 -10.18508
 Alpha  occ. eigenvalues --  -10.18467 -10.18461 -10.18441 -10.18430 -10.18416
 Alpha  occ. eigenvalues --  -10.18408 -10.18401 -10.18380 -10.18354 -10.18322
 Alpha  occ. eigenvalues --  -10.18314 -10.18304 -10.18273 -10.18270 -10.18262
 Alpha  occ. eigenvalues --  -10.18239 -10.18166 -10.18164 -10.18158 -10.18147
 Alpha  occ. eigenvalues --  -10.18128 -10.18106 -10.18033 -10.17983 -10.17830
 Alpha  occ. eigenvalues --  -10.17646 -10.17625  -0.95953  -0.88153  -0.87304
 Alpha  occ. eigenvalues --   -0.86631  -0.84695  -0.84410  -0.83797  -0.83340
 Alpha  occ. eigenvalues --   -0.81094  -0.80708  -0.79571  -0.77614  -0.77053
 Alpha  occ. eigenvalues --   -0.76729  -0.75435  -0.74736  -0.73970  -0.73705
 Alpha  occ. eigenvalues --   -0.73690  -0.73201  -0.72682  -0.72123  -0.72046
 Alpha  occ. eigenvalues --   -0.71407  -0.70222  -0.68565  -0.68322  -0.64313
 Alpha  occ. eigenvalues --   -0.63800  -0.63509  -0.62729  -0.61927  -0.61235
 Alpha  occ. eigenvalues --   -0.60599  -0.59898  -0.59630  -0.59304  -0.58658
 Alpha  occ. eigenvalues --   -0.58427  -0.57294  -0.57235  -0.56543  -0.55182
 Alpha  occ. eigenvalues --   -0.54128  -0.53412  -0.52745  -0.51217  -0.50935
 Alpha  occ. eigenvalues --   -0.50421  -0.50127  -0.49395  -0.49149  -0.47712
 Alpha  occ. eigenvalues --   -0.47474  -0.46948  -0.46598  -0.45776  -0.45464
 Alpha  occ. eigenvalues --   -0.45066  -0.44979  -0.44608  -0.44276  -0.44240
 Alpha  occ. eigenvalues --   -0.43851  -0.43222  -0.43098  -0.42810  -0.42565
 Alpha  occ. eigenvalues --   -0.42477  -0.42324  -0.42247  -0.41904  -0.41815
 Alpha  occ. eigenvalues --   -0.41373  -0.41287  -0.41151  -0.40715  -0.40573
 Alpha  occ. eigenvalues --   -0.39998  -0.39872  -0.38906  -0.38781  -0.38633
 Alpha  occ. eigenvalues --   -0.38472  -0.38194  -0.37868  -0.37754  -0.37160
 Alpha  occ. eigenvalues --   -0.37079  -0.36917  -0.36088  -0.35854  -0.35361
 Alpha  occ. eigenvalues --   -0.35121  -0.35013  -0.34761  -0.34556  -0.34319
 Alpha  occ. eigenvalues --   -0.33915  -0.33855  -0.33747  -0.33665  -0.33180
 Alpha  occ. eigenvalues --   -0.32761  -0.32296  -0.32146  -0.31724  -0.31372
 Alpha  occ. eigenvalues --   -0.31361  -0.30940  -0.30497  -0.30389  -0.29187
 Alpha  occ. eigenvalues --   -0.26366  -0.25062  -0.24736  -0.24540  -0.24243
 Alpha  occ. eigenvalues --   -0.24106  -0.23862  -0.23712  -0.23360  -0.22610
 Alpha  occ. eigenvalues --   -0.22146  -0.20367  -0.17327
 Alpha virt. eigenvalues --   -0.04841  -0.02548  -0.01314  -0.00199  -0.00025
 Alpha virt. eigenvalues --    0.00031   0.00359   0.00509   0.00805   0.01116
 Alpha virt. eigenvalues --    0.01525   0.01720   0.04733   0.06873   0.08815

 Mulliken charges:
               1
     1  C   -0.437487
     2  C   -0.061915
     3  C   -0.437377
     4  C    0.100784
     5  C   -0.203888
     6  C   -0.133242
     7  C   -0.136420
     8  C   -0.194732
     9  C    0.080653
    10  C    0.084051
    11  C   -0.206456
    12  C   -0.191329
    13  C    0.300163
    14  N   -0.663844
    15  C    0.297568
    16  C   -0.179345
    17  C   -0.203208
    18  C    0.196633
    19  C   -0.193973
    20  C   -0.269773
    21  C   -0.346943
    22  C    0.110582
    23  C   -0.191009
    24  C   -0.126953
    25  C   -0.134411
    26  C   -0.182340
    27  C    0.109851
    28  C   -0.243142
    29  C    0.176686
    30  C   -0.177799
    31  C   -0.131496
    32  C   -0.130817
    33  C   -0.129043
    34  C   -0.191443
    35  C   -0.200714
    36  C   -0.165366
    37  C    0.191845
    38  C   -0.237314
    39  C    0.099397
    40  C    0.058051
    41  C    0.046005
    42  C   -0.192730
    43  C   -0.134354
    44  C   -0.135999
    45  C   -0.190895
    46  C    0.124311
    47  C   -0.146903
    48  C   -0.135493
    49  C   -0.299679
    50  C   -0.348059
    51  C   -0.254629
    52  C    0.098836
    53  H    0.146218
    54  H    0.156548
    55  H    0.143014
    56  H    0.147046
    57  H    0.154925
    58  H    0.142985
    59  H    0.122245
    60  H    0.124427
    61  H    0.125287
    62  H    0.125906
    63  H    0.129632
    64  H    0.146739
    65  H    0.141286
    66  H    0.126099
    67  H    0.130646
    68  H    0.141145
    69  H    0.138784
    70  H    0.145017
    71  H    0.149162
    72  H    0.118491
    73  H    0.124671
    74  H    0.125648
    75  H    0.133695
    76  H    0.144475
    77  H    0.130068
    78  H    0.127291
    79  H    0.125916
    80  H    0.126110
    81  H    0.127175
    82  H    0.128479
    83  H    0.143007
    84  H    0.135561
    85  H    0.131158
    86  H    0.128014
    87  H    0.129330
    88  H    0.150548
    89  H    0.130804
    90  H    0.129008
    91  H    0.143019
    92  H    0.154050
    93  H    0.156644
    94  H    0.146215
    95  H    0.138617
 Sum of Mulliken charges =  -0.00000

 Dipole moment (field-independent basis, Debye):
    X=              0.6717    Y=              1.0999    Z=              0.2042  Tot=              1.3049
 Quadrupole moment (field-independent basis, Debye-Ang):
   XX=           -292.5419   YY=           -285.9117   ZZ=           -285.8861
   XY=              6.2514   XZ=             -3.7768   YZ=              0.8819

 Normal termination of Gaussian 16 at Sat Nov  5 10:44:04 2022.
