 Gaussian 16, Revision B.01,
 Gaussian 16:  ES64L-G16RevB.01 20-Dec-2017

 -----------------------------
 #p b3lyp/6-31g(d) opt SCF=XQC
 -----------------------------

 ------------------------------
 Gaussian input prepared by ASE
 ------------------------------
 Symbolic Z-matrix:
 Charge =  0 Multiplicity = 1

 SCF Done:  E(RB3LYP) =  -2177.68854755     A.U. after   16 cycles
 SCF Done:  E(RB3LYP) =  -2177.69517070     A.U. after   12 cycles
 SCF Done:  E(RB3LYP) =  -2177.69533137     A.U. after   11 cycles
 SCF Done:  E(RB3LYP) =  -2177.69536680     A.U. after   11 cycles
 SCF Done:  E(RB3LYP) =  -2177.69539957     A.U. after   10 cycles
 SCF Done:  E(RB3LYP) =  -2177.69540936     A.U. after    9 cycles
 SCF Done:  E(RB3LYP) =  -2177.69541089     A.U. after    8 cycles
 SCF Done:  E(RB3LYP) =  -2177.69541128     A.U. after    8 cycles
 SCF Done:  E(RB3LYP) =  -2177.69541148     A.U. after    7 cycles
 SCF Done:  E(RB3LYP) =  -2177.69541158     A.U. after    7 cycles
 SCF Done:  E(RB3LYP) =  -2177.69541160     A.U. after    7 cycles
 Optimization completed.
    -- Stationary point found.

                         Standard orientation:
 ---------------------------------------------------------------------
 Center     Atomic      Atomic             Coordinates (Angstroms)
 Number     Number       Type             X           Y           Z
 ---------------------------------------------------------------------
      1          6           0       -6.078555   -3.305114   -0.233434
      2          6           0       -6.550933   -2.113835    0.328373
      3          6           0       -5.713171   -1.007540    0.392543
      4          6           0       -4.382016   -1.029569   -0.088874
      5          6           0       -3.920849   -2.271488   -0.586584
      6          6           0       -4.765816   -3.388771   -0.680500
      7         16           0       -2.260429   -2.537418   -1.148464
      8          6           0       -1.327691   -1.210142   -0.435523
      9          6           0        0.053034   -1.417607   -0.413944
     10          6           0        0.891532   -0.425139    0.101735
     11          7           0        2.291769   -0.632287    0.151536
     12          6           0        2.987760   -1.839738    0.395741
     13          6           0        2.538041   -3.105524    0.760677
     14          6           0        3.493114   -4.107826    0.965658
     15          6           0        4.860984   -3.855221    0.822256
     16          6           0        5.323689   -2.579832    0.484003
     17          6           0        4.376979   -1.584438    0.280839
     18          7           0        4.498031   -0.229346   -0.014349
     19          6           0        5.407098    0.798337   -0.260541
     20          6           0        6.795783    0.849430   -0.334119
     21          6           0        7.366716    2.093284   -0.607616
     22          6           0        6.569837    3.235495   -0.799129
     23          6           0        5.179001    3.176525   -0.724528
     24          6           0        4.580392    1.943497   -0.452174
     25          7           0        3.222318    1.633885   -0.326317
     26          6           0        3.242808    0.352865   -0.075278
     27          6           0        0.357761    0.784392    0.551740
     28          6           0       -1.023389    0.985598    0.494623
     29          6           0       -1.924375   -0.004213    0.017550
     30          5           0       -3.450379    0.218132   -0.015658
     31          6           0       -3.993274    1.676508    0.026080
     32          6           0       -5.265547    2.024044   -0.489984
     33          6           0       -5.758017    3.321996   -0.455995
     34          6           0       -4.981030    4.339784    0.109281
     35          6           0       -3.709621    4.056419    0.590926
     36          6           0       -3.211478    2.744622    0.528371
     37         16           0       -1.558646    2.546555    1.132807
     38          1           0       -6.724520   -4.176801   -0.297120
     39          1           0       -7.565016   -2.054593    0.713587
     40          1           0       -6.085682   -0.093230    0.843143
     41          1           0       -4.383724   -4.325757   -1.077191
     42          1           0        0.472475   -2.335042   -0.809556
     43          1           0        1.484046   -3.312542    0.900609
     44          1           0        3.157227   -5.101289    1.247083
     45          1           0        5.577084   -4.654870    0.985126
     46          1           0        6.384172   -2.370825    0.392481
     47          1           0        7.412171   -0.032083   -0.187422
     48          1           0        8.447601    2.177423   -0.673760
     49          1           0        7.051082    4.186317   -1.010870
     50          1           0        4.563399    4.058099   -0.873316
     51          1           0        1.020639    1.567108    0.900867
     52          1           0       -5.869896    1.245918   -0.944952
     53          1           0       -6.737930    3.546089   -0.868070
     54          1           0       -5.355537    5.359271    0.148708
     55          1           0       -3.087889    4.853389    0.990340
 ---------------------------------------------------------------------

 The electronic state is 1-A.
 Alpha  occ. eigenvalues --  -88.90060 -88.89862 -14.41107 -14.40470 -14.31618
 Alpha  occ. eigenvalues --  -10.29094 -10.25660 -10.25072 -10.24966 -10.24143
 Alpha  occ. eigenvalues --  -10.23977 -10.23354 -10.23204 -10.22810 -10.21279
 Alpha  occ. eigenvalues --  -10.20973 -10.20842 -10.20527 -10.20240 -10.20233
 Alpha  occ. eigenvalues --  -10.20179 -10.20108 -10.20071 -10.19999 -10.19896
 Alpha  occ. eigenvalues --  -10.19656 -10.19550 -10.19547 -10.19382 -10.19249
 Alpha  occ. eigenvalues --  -10.18786 -10.18580 -10.18366 -10.18306 -10.18224
 Alpha  occ. eigenvalues --  -10.18108  -7.96206  -7.96005  -6.73203  -5.92692
 Alpha  occ. eigenvalues --   -5.92490  -5.92280  -5.92072  -5.91773  -5.91577
 Alpha  occ. eigenvalues --   -1.06677  -0.97534  -0.91938  -0.88478  -0.86718
 Alpha  occ. eigenvalues --   -0.86183  -0.85578  -0.83993  -0.82024  -0.80338
 Alpha  occ. eigenvalues --   -0.77383  -0.76983  -0.76083  -0.75828  -0.74723
 Alpha  occ. eigenvalues --   -0.74394  -0.73397  -0.72604  -0.70916  -0.69570
 Alpha  occ. eigenvalues --   -0.66587  -0.65070  -0.63394  -0.61760  -0.61642
 Alpha  occ. eigenvalues --   -0.60865  -0.60150  -0.59284  -0.58647  -0.58152
 Alpha  occ. eigenvalues --   -0.56315  -0.54591  -0.53833  -0.52415  -0.51922
 Alpha  occ. eigenvalues --   -0.51305  -0.49924  -0.49544  -0.48670  -0.47691
 Alpha  occ. eigenvalues --   -0.46962  -0.46491  -0.46460  -0.45954  -0.45680
 Alpha  occ. eigenvalues --   -0.45585  -0.44438  -0.43778  -0.43664  -0.43298
 Alpha  occ. eigenvalues --   -0.42845  -0.42457  -0.41491  -0.41193  -0.40104
 Alpha  occ. eigenvalues --   -0.39699  -0.39284  -0.39040  -0.38446  -0.38013
 Alpha  occ. eigenvalues --   -0.37969  -0.37325  -0.36996  -0.36291  -0.36228
 Alpha  occ. eigenvalues --   -0.35207  -0.34981  -0.34328  -0.34018  -0.32787
 Alpha  occ. eigenvalues --   -0.32586  -0.31786  -0.31201  -0.30895  -0.29627
 Alpha  occ. eigenvalues --   -0.28017  -0.27691  -0.26743  -0.26568  -0.26092
 Alpha  occ. eigenvalues --   -0.25354  -0.24366  -0.22459  -0.21713  -0.20336
 Alpha  occ. eigenvalues --   -0.20033
 Alpha virt. eigenvalues --   -0.07248  -0.02568  -0.02462  -0.02219  -0.01132
 Alpha virt. eigenvalues --   -0.01105  -0.00279   0.00124   0.01329   0.02348
 Alpha virt. eigenvalues --    0.03152   0.04571   0.06271   0.06982   0.07334

 Mulliken charges:
               1
     1  C   -0.123272
     2  C   -0.123824
     3  C   -0.206500
     4  C    0.107378
     5  C   -0.161992
     6  C   -0.151939
     7  S    0.192125
     8  C   -0.167091
     9  C   -0.204782
    10  C    0.323619
    11  N   -0.765371
    12  C    0.316274
    13  C   -0.183882
    14  C   -0.141058
    15  C   -0.147474
    16  C   -0.160712
    17  C    0.320224
    18  N   -0.738029
    19  C    0.320388
    20  C   -0.154138
    21  C   -0.156876
    22  C   -0.136064
    23  C   -0.196162
    24  C    0.236880
    25  N   -0.602157
    26  C    0.789598
    27  C   -0.183394
    28  C   -0.170116
    29  C    0.101030
    30  B    0.020522
    31  C    0.107928
    32  C   -0.205841
    33  C   -0.124016
    34  C   -0.122844
    35  C   -0.151787
    36  C   -0.163192
    37  S    0.209738
    38  H    0.138591
    39  H    0.133893
    40  H    0.145027
    41  H    0.145004
    42  H    0.162293
    43  H    0.160173
    44  H    0.138027
    45  H    0.137442
    46  H    0.150965
    47  H    0.135485
    48  H    0.127148
    49  H    0.126820
    50  H    0.141135
    51  H    0.190879
    52  H    0.144148
    53  H    0.133492
    54  H    0.138989
    55  H    0.147298
 Sum of Mulliken charges =  -0.00000

 Dipole moment (field-independent basis, Debye):
    X=             -0.7857    Y=             -2.3902    Z=              0.6714  Tot=              2.6041
 Quadrupole moment (field-independent basis, Debye-Ang):
   XX=           -184.2050   YY=           -201.3866   ZZ=           -230.5168
   XY=            -10.3817   XZ=              1.9071   YZ=             -0.8063

 Normal termination of Gaussian 16 at Sat Nov  5 00:47:16 2022.
