 Gaussian 16, Revision B.01,
 Gaussian 16:  ES64L-G16RevB.01 20-Dec-2017

 -------------------------------------------------------------------
 #p b3lyp/6-31g(d) 6D 10F nosymm GFInput td=(50-50,nstate=2) SCF=XQC
 -------------------------------------------------------------------

 ------------------------------
 Gaussian input prepared by ASE
 ------------------------------
 Symbolic Z-matrix:
 Charge =  0 Multiplicity = 1

                          Input orientation:
 ---------------------------------------------------------------------
 Center     Atomic      Atomic             Coordinates (Angstroms)
 Number     Number       Type             X           Y           Z
 ---------------------------------------------------------------------
      1          6           0       -6.182272   -2.582618   -1.861866
      2          6           0       -6.664383   -1.749517   -0.846275
      3          6           0       -5.812744   -0.822244   -0.259139
      4          6           0       -4.457833   -0.679856   -0.644058
      5          6           0       -3.991276   -1.586389   -1.625526
      6          6           0       -4.848669   -2.509927   -2.244448
      7         16           0       -2.307378   -1.639201   -2.177900
      8          6           0       -1.392629   -0.807604   -0.908401
      9          6           0       -0.018863   -1.057408   -0.924973
     10          6           0        0.806904   -0.433395    0.014555
     11          7           0        2.198613   -0.696281    0.024140
     12          6           0        2.859646   -1.912342   -0.269476
     13          6           0        2.369258   -3.189046   -0.528676
     14          6           0        3.294570   -4.214453   -0.754798
     15          6           0        4.672319   -3.978805   -0.713329
     16          6           0        5.174376   -2.705934   -0.425459
     17          6           0        4.257196   -1.687847   -0.200461
     18          7           0        4.417158   -0.349400    0.147446
     19          6           0        5.355615    0.643249    0.425101
     20          6           0        6.746912    0.666755    0.439597
     21          6           0        7.352946    1.878249    0.775664
     22          6           0        6.587205    3.016467    1.082978
     23          6           0        5.193571    2.985547    1.065781
     24          6           0        4.560152    1.785338    0.732397
     25          7           0        3.192176    1.506163    0.650141
     26          6           0        3.177193    0.248034    0.301801
     27          6           0        0.269921    0.468341    0.935913
     28          6           0       -1.102433    0.728423    0.917921
     29          6           0       -1.992650    0.092036    0.011486
     30          5           0       -3.510570    0.366086    0.018333
     31          6           0       -4.030130    1.672835    0.686016
     32          6           0       -5.266222    2.264214    0.328063
     33          6           0       -5.737737    3.428996    0.919097
     34          6           0       -4.975661    4.055951    1.911722
     35          6           0       -3.737462    3.537337    2.267619
     36          6           0       -3.258958    2.372698    1.645106
     37         16           0       -1.645226    1.860447    2.164622
     38          1           0       -6.838477   -3.307951   -2.335629
     39          1           0       -7.696853   -1.828268   -0.517538
     40          1           0       -6.193770   -0.191104    0.537258
     41          1           0       -4.461409   -3.185775   -3.002446
     42          1           0        0.405958   -1.717736   -1.671713
     43          1           0        1.305832   -3.394821   -0.539876
     44          1           0        2.927009   -5.214932   -0.961992
     45          1           0        5.364786   -4.794772   -0.896221
     46          1           0        6.241667   -2.520238   -0.369858
     47          1           0        7.339327   -0.211238    0.201495
     48          1           0        8.437101    1.940175    0.798882
     49          1           0        7.095355    3.941971    1.339334
     50          1           0        4.602055    3.864496    1.302075
     51          1           0        0.925903    0.986095    1.625521
     52          1           0       -5.857907    1.795472   -0.451617
     53          1           0       -6.689723    3.852030    0.610849
     54          1           0       -5.334424    4.964671    2.387832
     55          1           0       -3.125066    4.047026    3.006828
 ---------------------------------------------------------------------

 SCF Done:  E(RB3LYP) =  -2177.69541400     A.U. after   16 cycles

 Excitation energies and oscillator strengths:

 Excited state symmetry could not be determined.
 Excited State   1:      Triplet-?Sym    2.5733 eV  481.81 nm  f=0.0000  <S**2>=2.000
     130 ->132         0.69447
 This state for optimization and/or second-order correction.
 Total Energy, E(TD-HF/TD-DFT) =  -2177.60084703
 Copying the excited state density for this state as the 1-particle RhoCI density.

 Excited state symmetry could not be determined.
 Excited State   2:      Triplet-?Sym    2.8175 eV  440.05 nm  f=0.0000  <S**2>=2.000
     127 ->132        -0.13569
     128 ->132        -0.22206
     130 ->133         0.10214
     131 ->132         0.59502

 Excited state symmetry could not be determined.
 Excited State   3:      Singlet-?Sym    3.0254 eV  409.81 nm  f=0.1003  <S**2>=0.000
     130 ->132         0.68394
     131 ->132        -0.14488

 Excited state symmetry could not be determined.
 Excited State   4:      Singlet-?Sym    3.0662 eV  404.35 nm  f=0.2040  <S**2>=0.000
     130 ->132         0.14430
     131 ->132         0.68811

 Alpha  occ. eigenvalues --  -88.90061 -88.89862 -14.41107 -14.40470 -14.31618
 Alpha  occ. eigenvalues --  -10.29094 -10.25660 -10.25072 -10.24966 -10.24143
 Alpha  occ. eigenvalues --  -10.23977 -10.23354 -10.23204 -10.22810 -10.21279
 Alpha  occ. eigenvalues --  -10.20973 -10.20842 -10.20527 -10.20240 -10.20233
 Alpha  occ. eigenvalues --  -10.20179 -10.20108 -10.20071 -10.19999 -10.19896
 Alpha  occ. eigenvalues --  -10.19656 -10.19550 -10.19547 -10.19383 -10.19249
 Alpha  occ. eigenvalues --  -10.18786 -10.18580 -10.18366 -10.18307 -10.18224
 Alpha  occ. eigenvalues --  -10.18108  -7.96206  -7.96005  -6.73203  -5.92692
 Alpha  occ. eigenvalues --   -5.92490  -5.92280  -5.92072  -5.91773  -5.91577
 Alpha  occ. eigenvalues --   -1.06677  -0.97534  -0.91938  -0.88478  -0.86718
 Alpha  occ. eigenvalues --   -0.86183  -0.85578  -0.83993  -0.82024  -0.80338
 Alpha  occ. eigenvalues --   -0.77383  -0.76983  -0.76083  -0.75828  -0.74723
 Alpha  occ. eigenvalues --   -0.74394  -0.73397  -0.72604  -0.70916  -0.69570
 Alpha  occ. eigenvalues --   -0.66587  -0.65070  -0.63394  -0.61760  -0.61642
 Alpha  occ. eigenvalues --   -0.60865  -0.60150  -0.59284  -0.58647  -0.58152
 Alpha  occ. eigenvalues --   -0.56315  -0.54591  -0.53833  -0.52415  -0.51922
 Alpha  occ. eigenvalues --   -0.51305  -0.49924  -0.49544  -0.48670  -0.47691
 Alpha  occ. eigenvalues --   -0.46962  -0.46491  -0.46460  -0.45954  -0.45680
 Alpha  occ. eigenvalues --   -0.45585  -0.44438  -0.43778  -0.43664  -0.43298
 Alpha  occ. eigenvalues --   -0.42845  -0.42457  -0.41491  -0.41193  -0.40104
 Alpha  occ. eigenvalues --   -0.39699  -0.39284  -0.39040  -0.38446  -0.38013
 Alpha  occ. eigenvalues --   -0.37969  -0.37325  -0.36996  -0.36291  -0.36228
 Alpha  occ. eigenvalues --   -0.35207  -0.34981  -0.34328  -0.34018  -0.32787
 Alpha  occ. eigenvalues --   -0.32586  -0.31786  -0.31201  -0.30895  -0.29627
 Alpha  occ. eigenvalues --   -0.28017  -0.27691  -0.26743  -0.26568  -0.26092
 Alpha  occ. eigenvalues --   -0.25354  -0.24366  -0.22459  -0.21713  -0.20336
 Alpha  occ. eigenvalues --   -0.20033
 Alpha virt. eigenvalues --   -0.07248  -0.02568  -0.02462  -0.02219  -0.01132
 Alpha virt. eigenvalues --   -0.01105  -0.00279   0.00124   0.01329   0.02348
 Alpha virt. eigenvalues --    0.03152   0.04571   0.06271   0.06981   0.07334

 Mulliken charges:
               1
     1  C   -0.123272
     2  C   -0.123826
     3  C   -0.206506
     4  C    0.107410
     5  C   -0.162005
     6  C   -0.151932
     7  S    0.192120
     8  C   -0.167102
     9  C   -0.204763
    10  C    0.323599
    11  N   -0.765382
    12  C    0.316276
    13  C   -0.183878
    14  C   -0.141057
    15  C   -0.147477
    16  C   -0.160711
    17  C    0.320222
    18  N   -0.738032
    19  C    0.320389
    20  C   -0.154133
    21  C   -0.156878
    22  C   -0.136062
    23  C   -0.196166
    24  C    0.236885
    25  N   -0.602162
    26  C    0.789600
    27  C   -0.183380
    28  C   -0.170122
    29  C    0.101040
    30  B    0.020492
    31  C    0.107925
    32  C   -0.205825
    33  C   -0.124024
    34  C   -0.122842
    35  C   -0.151780
    36  C   -0.163207
    37  S    0.209756
    38  H    0.138591
    39  H    0.133894
    40  H    0.145028
    41  H    0.145003
    42  H    0.162293
    43  H    0.160174
    44  H    0.138028
    45  H    0.137442
    46  H    0.150965
    47  H    0.135484
    48  H    0.127148
    49  H    0.126821
    50  H    0.141135
    51  H    0.190879
    52  H    0.144146
    53  H    0.133491
    54  H    0.138988
    55  H    0.147297
 Sum of Mulliken charges =  -0.00000

 Dipole moment (field-independent basis, Debye):
    X=             -0.8616    Y=             -2.4055    Z=             -0.5026  Tot=              2.6041
 Quadrupole moment (field-independent basis, Debye-Ang):
   XX=           -184.7851   YY=           -205.8453   ZZ=           -225.5662
   XY=            -11.3033   XZ=             -0.8436   YZ=             10.5984

 Normal termination of Gaussian 16 at Sat Nov  5 10:22:08 2022.
