 Gaussian 16, Revision B.01,
 Gaussian 16:  ES64L-G16RevB.01 20-Dec-2017

 -----------------------------
 #p b3lyp/6-31g(d) opt SCF=XQC
 -----------------------------

 ------------------------------
 Gaussian input prepared by ASE
 ------------------------------
 Symbolic Z-matrix:
 Charge =  0 Multiplicity = 1

 SCF Done:  E(RB3LYP) =  -2111.10294107     A.U. after   15 cycles
 SCF Done:  E(RB3LYP) =  -2111.11203094     A.U. after   12 cycles
 SCF Done:  E(RB3LYP) =  -2111.11239326     A.U. after   12 cycles
 SCF Done:  E(RB3LYP) =  -2111.11285497     A.U. after   11 cycles
 SCF Done:  E(RB3LYP) =  -2111.11289858     A.U. after   11 cycles
 SCF Done:  E(RB3LYP) =  -2111.11291271     A.U. after   10 cycles
 SCF Done:  E(RB3LYP) =  -2111.11291588     A.U. after    9 cycles
 SCF Done:  E(RB3LYP) =  -2111.11291662     A.U. after    9 cycles
 SCF Done:  E(RB3LYP) =  -2111.11291684     A.U. after    7 cycles
 SCF Done:  E(RB3LYP) =  -2111.11291691     A.U. after    7 cycles
 SCF Done:  E(RB3LYP) =  -2111.11291693     A.U. after    6 cycles
 SCF Done:  E(RB3LYP) =  -2111.11291693     A.U. after    6 cycles
 Optimization completed.
    -- Stationary point found.

                         Standard orientation:
 ---------------------------------------------------------------------
 Center     Atomic      Atomic             Coordinates (Angstroms)
 Number     Number       Type             X           Y           Z
 ---------------------------------------------------------------------
      1          6           0        5.754749    2.354658    1.850623
      2         14           0        5.438551    1.498207    0.195089
      3          6           0        5.813026    2.681124   -1.231408
      4          6           0        3.742191    0.684086    0.076737
      5          6           0        2.462646    1.234136    0.110681
      6          6           0        1.321142    0.420929    0.005610
      7          6           0       -0.034902    1.011594    0.045788
      8          7           0       -0.138861    2.350169    0.116669
      9          6           0       -1.387458    2.833835    0.149788
     10          6           0       -1.566235    4.303578    0.240667
     11          6           0       -2.850847    4.854244    0.374944
     12          6           0       -3.017396    6.234468    0.460096
     13          6           0       -1.906646    7.080348    0.410612
     14          6           0       -0.625567    6.538742    0.277645
     15          6           0       -0.454443    5.159175    0.194953
     16          7           0       -2.495953    2.074681    0.109946
     17          6           0       -2.299187    0.749932    0.035378
     18          6           0       -3.470652   -0.168632    0.041049
     19          6           0       -3.283472   -1.401831    0.644401
     20          6           0       -4.322861   -2.340050    0.748379
     21          6           0       -5.581954   -2.081994    0.235946
     22          6           0       -6.627426   -3.138288    0.353347
     23          6           0       -7.257864   -3.678384   -0.780624
     24          6           0       -8.191068   -4.707130   -0.656049
     25          6           0       -8.514504   -5.215208    0.603794
     26          6           0       -7.893737   -4.690062    1.738059
     27          6           0       -6.956990   -3.663853    1.613105
     28          6           0       -5.826284   -0.815693   -0.396480
     29          6           0       -7.113815   -0.476989   -0.900039
     30          6           0       -7.344238    0.719381   -1.538228
     31          6           0       -6.287588    1.639205   -1.706424
     32          6           0       -5.036552    1.365129   -1.200900
     33          6           0       -4.762020    0.150775   -0.510659
     34          7           0       -1.084063    0.176177    0.004621
     35          6           0        1.487455   -0.967333   -0.138176
     36          6           0        2.756626   -1.532088   -0.176106
     37          6           0        3.895519   -0.720526   -0.068959
     38          6           0        5.296777   -1.208103   -0.094386
     39          6           0        5.680593   -2.527670   -0.226630
     40          6           0        7.052639   -2.893149   -0.238867
     41          6           0        7.472511   -4.244000   -0.373354
     42          6           0        8.810465   -4.570846   -0.381756
     43          6           0        9.794397   -3.560219   -0.255921
     44          6           0        9.419329   -2.240951   -0.124051
     45          6           0        8.049508   -1.870915   -0.111610
     46          6           0        7.626751   -0.517804    0.023183
     47          6           0        6.294077   -0.174954    0.033897
     48          1           0        5.119374    3.241468    1.964021
     49          1           0        5.546006    1.681769    2.689094
     50          1           0        6.797892    2.683417    1.933383
     51          1           0        5.637029    2.200006   -2.199361
     52          1           0        6.857595    3.014694   -1.205270
     53          1           0        5.179912    3.575251   -1.179419
     54          1           0        2.317808    2.304258    0.221383
     55          1           0       -3.705197    4.187912    0.416954
     56          1           0       -4.015195    6.651390    0.566910
     57          1           0       -2.038544    8.157214    0.476470
     58          1           0        0.240971    7.193350    0.238435
     59          1           0        0.534371    4.726905    0.091788
     60          1           0       -2.304634   -1.640234    1.044731
     61          1           0       -4.127118   -3.299052    1.219442
     62          1           0       -6.998796   -3.299700   -1.765308
     63          1           0       -8.661273   -5.116820   -1.546207
     64          1           0       -9.243445   -6.015384    0.699913
     65          1           0       -8.139948   -5.077045    2.723411
     66          1           0       -6.481894   -3.251511    2.499144
     67          1           0       -7.926706   -1.181760   -0.768642
     68          1           0       -8.337059    0.954169   -1.912609
     69          1           0       -6.462423    2.575967   -2.229129
     70          1           0       -4.242696    2.090163   -1.311275
     71          1           0        0.604605   -1.591051   -0.223362
     72          1           0        2.852944   -2.608208   -0.290657
     73          1           0        4.940258   -3.318235   -0.324456
     74          1           0        6.715957   -5.019360   -0.469949
     75          1           0        9.116446   -5.608416   -0.485325
     76          1           0       10.846918   -3.830172   -0.263913
     77          1           0       10.171764   -1.461463   -0.027166
     78          1           0        8.397326    0.246389    0.118740
 ---------------------------------------------------------------------

 The electronic state is 1-A.
 Alpha  occ. eigenvalues --  -66.12202 -14.33342 -14.33257 -14.33233 -10.27322
 Alpha  occ. eigenvalues --  -10.27217 -10.27149 -10.20461 -10.20288 -10.20257
 Alpha  occ. eigenvalues --  -10.20116 -10.20111 -10.20062 -10.19903 -10.19897
 Alpha  occ. eigenvalues --  -10.19844 -10.19721 -10.19646 -10.19623 -10.19321
 Alpha  occ. eigenvalues --  -10.19256 -10.19253 -10.19244 -10.19226 -10.19211
 Alpha  occ. eigenvalues --  -10.19196 -10.19195 -10.19193 -10.19179 -10.19163
 Alpha  occ. eigenvalues --  -10.19156 -10.19145 -10.19134 -10.19129 -10.19113
 Alpha  occ. eigenvalues --  -10.19102 -10.19085 -10.19017 -10.18926 -10.18713
 Alpha  occ. eigenvalues --  -10.18645 -10.18535 -10.18092 -10.17388 -10.17315
 Alpha  occ. eigenvalues --  -10.16631 -10.16626  -5.26732  -3.62665  -3.62579
 Alpha  occ. eigenvalues --   -3.62558  -1.01615  -0.90303  -0.90171  -0.87485
 Alpha  occ. eigenvalues --   -0.87423  -0.85504  -0.85280  -0.85216  -0.82047
 Alpha  occ. eigenvalues --   -0.81934  -0.78919  -0.77712  -0.76809  -0.76106
 Alpha  occ. eigenvalues --   -0.74699  -0.74656  -0.74536  -0.74176  -0.73808
 Alpha  occ. eigenvalues --   -0.72843  -0.71968  -0.71592  -0.70073  -0.67961
 Alpha  occ. eigenvalues --   -0.67359  -0.67165  -0.63874  -0.62584  -0.61764
 Alpha  occ. eigenvalues --   -0.61492  -0.60833  -0.60488  -0.60056  -0.59782
 Alpha  occ. eigenvalues --   -0.59528  -0.58501  -0.57285  -0.56543  -0.54161
 Alpha  occ. eigenvalues --   -0.53441  -0.52183  -0.51677  -0.50855  -0.50791
 Alpha  occ. eigenvalues --   -0.50490  -0.50111  -0.49018  -0.47652  -0.46410
 Alpha  occ. eigenvalues --   -0.45896  -0.45689  -0.45484  -0.45082  -0.44958
 Alpha  occ. eigenvalues --   -0.44410  -0.44130  -0.43934  -0.43596  -0.43360
 Alpha  occ. eigenvalues --   -0.42856  -0.42379  -0.42117  -0.42018  -0.41715
 Alpha  occ. eigenvalues --   -0.41412  -0.41222  -0.40936  -0.40723  -0.40640
 Alpha  occ. eigenvalues --   -0.40202  -0.39903  -0.39346  -0.38871  -0.38834
 Alpha  occ. eigenvalues --   -0.38615  -0.38036  -0.37856  -0.37495  -0.36870
 Alpha  occ. eigenvalues --   -0.36758  -0.36308  -0.35801  -0.35190  -0.35175
 Alpha  occ. eigenvalues --   -0.34693  -0.34506  -0.34310  -0.34288  -0.33540
 Alpha  occ. eigenvalues --   -0.33171  -0.33107  -0.32382  -0.31765  -0.31444
 Alpha  occ. eigenvalues --   -0.30844  -0.29991  -0.28581  -0.28469  -0.27852
 Alpha  occ. eigenvalues --   -0.26245  -0.25831  -0.25536  -0.25216  -0.25204
 Alpha  occ. eigenvalues --   -0.25057  -0.24810  -0.24512  -0.24185  -0.22624
 Alpha  occ. eigenvalues --   -0.20860  -0.20717
 Alpha virt. eigenvalues --   -0.07099  -0.06719  -0.04352  -0.03555  -0.01931
 Alpha virt. eigenvalues --   -0.00890  -0.00493  -0.00242   0.00015   0.00107
 Alpha virt. eigenvalues --    0.01220   0.03148   0.04503   0.05198   0.06759

 Mulliken charges:
               1
     1  C   -0.658549
     2  Si   0.611050
     3  C   -0.658454
     4  C   -0.107109
     5  C   -0.246635
     6  C    0.102242
     7  C    0.448509
     8  N   -0.542725
     9  C    0.443725
    10  C    0.077002
    11  C   -0.162441
    12  C   -0.139575
    13  C   -0.116325
    14  C   -0.139746
    15  C   -0.156725
    16  N   -0.527335
    17  C    0.395345
    18  C    0.063388
    19  C   -0.170126
    20  C   -0.190076
    21  C    0.037653
    22  C    0.053736
    23  C   -0.164538
    24  C   -0.134231
    25  C   -0.125385
    26  C   -0.133746
    27  C   -0.161919
    28  C    0.078832
    29  C   -0.207479
    30  C   -0.130330
    31  C   -0.138661
    32  C   -0.181776
    33  C    0.081883
    34  N   -0.525066
    35  C   -0.181696
    36  C   -0.180447
    37  C    0.094174
    38  C    0.075339
    39  C   -0.256491
    40  C    0.129984
    41  C   -0.189995
    42  C   -0.136645
    43  C   -0.135481
    44  C   -0.194257
    45  C    0.162337
    46  C   -0.282837
    47  C   -0.085719
    48  H    0.165539
    49  H    0.175447
    50  H    0.163214
    51  H    0.175628
    52  H    0.163241
    53  H    0.165026
    54  H    0.157367
    55  H    0.166942
    56  H    0.134394
    57  H    0.133486
    58  H    0.132737
    59  H    0.159064
    60  H    0.158543
    61  H    0.137866
    62  H    0.142931
    63  H    0.132871
    64  H    0.131356
    65  H    0.132572
    66  H    0.136596
    67  H    0.147193
    68  H    0.129121
    69  H    0.129322
    70  H    0.162509
    71  H    0.162254
    72  H    0.132735
    73  H    0.131074
    74  H    0.130089
    75  H    0.131267
    76  H    0.130715
    77  H    0.129757
    78  H    0.126467
 Sum of Mulliken charges =  -0.00000

 Dipole moment (field-independent basis, Debye):
    X=              0.5791    Y=              0.0137    Z=              0.1101  Tot=              0.5897
 Quadrupole moment (field-independent basis, Debye-Ang):
   XX=           -235.2457   YY=           -241.0163   ZZ=           -276.6064
   XY=              7.4928   XZ=              2.6385   YZ=             -1.8858

 Normal termination of Gaussian 16 at Sat Nov  5 01:00:06 2022.
