 Gaussian 16, Revision B.01,
 Gaussian 16:  ES64L-G16RevB.01 20-Dec-2017

 -------------------------------------------------------------------
 #p b3lyp/6-31g(d) 6D 10F nosymm GFInput td=(50-50,nstate=2) SCF=XQC
 -------------------------------------------------------------------

 ------------------------------
 Gaussian input prepared by ASE
 ------------------------------
 Symbolic Z-matrix:
 Charge =  0 Multiplicity = 1

                          Input orientation:
 ---------------------------------------------------------------------
 Center     Atomic      Atomic             Coordinates (Angstroms)
 Number     Number       Type             X           Y           Z
 ---------------------------------------------------------------------
      1          6           0       -5.755332   -2.291653    1.784347
      2         14           0       -5.439553   -1.442585    0.124934
      3          6           0       -5.834388   -2.624993   -1.296485
      4          6           0       -3.735485   -0.646523   -0.004965
      5          6           0       -2.461578   -1.209828    0.023168
      6          6           0       -1.312261   -0.408852   -0.090335
      7          6           0        0.037751   -1.013553   -0.056296
      8          7           0        0.128134   -2.352965    0.017337
      9          6           0        1.371783   -2.849568    0.044653
     10          6           0        1.535724   -4.320874    0.138191
     11          6           0        2.815256   -4.884604    0.266628
     12          6           0        2.967871   -6.266282    0.354285
     13          6           0        1.848093   -7.100627    0.313145
     14          6           0        0.572006   -6.545991    0.186020
     15          6           0        0.414824   -5.164916    0.100851
     16          7           0        2.487897   -2.102138   -0.003302
     17          6           0        2.304548   -0.775591   -0.080067
     18          6           0        3.485547    0.130694   -0.083261
     19          6           0        3.314651    1.367246    0.518057
     20          6           0        4.364344    2.294804    0.613860
     21          6           0        5.617766    2.022360    0.095014
     22          6           0        6.674848    3.067955    0.203911
     23          6           0        7.304485    3.598673   -0.934923
     24          6           0        8.249060    4.617911   -0.818152
     25          6           0        8.584878    5.125647    0.438585
     26          6           0        7.965071    4.609779    1.577622
     27          6           0        7.016976    3.593112    1.460486
     28          6           0        5.845300    0.752039   -0.535615
     29          6           0        7.126366    0.398676   -1.045546
     30          6           0        7.340691   -0.801586   -1.682034
     31          6           0        6.273569   -1.710726   -1.842004
     32          6           0        5.028331   -1.422364   -1.330151
     33          6           0        4.770382   -0.203531   -0.641409
     34          7           0        1.095323   -0.189247   -0.105433
     35          6           0       -1.464886    0.980719   -0.236646
     36          6           0       -2.728289    1.558610   -0.268860
     37          6           0       -3.874966    0.759255   -0.153300
     38          6           0       -5.271181    1.261384   -0.172077
     39          6           0       -5.641947    2.584564   -0.305455
     40          6           0       -7.010152    2.964327   -0.310901
     41          6           0       -7.416656    4.319161   -0.446397
     42          6           0       -8.751153    4.659947   -0.448104
     43          6           0       -9.744852    3.659965   -0.314231
     44          6           0       -9.382833    2.337176   -0.181179
     45          6           0       -8.016899    1.952879   -0.175504
     46          6           0       -7.607532    0.595756   -0.039713
     47          6           0       -6.278468    0.239027   -0.035623
     48          1           0       -5.128616   -3.184774    1.896388
     49          1           0       -5.534855   -1.618942    2.619953
     50          1           0       -6.801365   -2.609292    1.873780
     51          1           0       -5.658841   -2.148097   -2.266607
     52          1           0       -6.882217   -2.947566   -1.263653
     53          1           0       -5.210356   -3.525557   -1.245822
     54          1           0       -2.327293   -2.281133    0.135723
     55          1           0        3.676736   -4.227135    0.302182
     56          1           0        3.961851   -6.693345    0.456536
     57          1           0        1.969117   -8.178649    0.380945
     58          1           0       -0.301522   -7.191602    0.153306
     59          1           0       -0.569992   -4.722591    0.002160
     60          1           0        2.340626    1.616838    0.923278
     61          1           0        4.181277    3.256943    1.083622
     62          1           0        7.035931    3.220320   -1.917190
     63          1           0        8.718488    5.020498   -1.711954
     64          1           0        9.322660    5.918395    0.528617
     65          1           0        8.220858    4.996565    2.560609
     66          1           0        6.542607    3.187915    2.350202
     67          1           0        7.947295    1.095232   -0.920471
     68          1           0        8.328882   -1.047646   -2.061395
     69          1           0        6.435670   -2.650533   -2.363344
     70          1           0        4.226343   -2.139329   -1.434261
     71          1           0       -0.576070    1.594968   -0.328340
     72          1           0       -2.814017    2.635396   -0.385551
     73          1           0       -4.893965    3.367109   -0.409405
     74          1           0       -6.652609    5.086336   -0.549169
     75          1           0       -9.046869    5.700403   -0.552541
     76          1           0      -10.794527    3.940881   -0.316988
     77          1           0      -10.142803    1.565830   -0.078130
     78          1           0       -8.385488   -0.160109    0.062072
 ---------------------------------------------------------------------

 SCF Done:  E(RB3LYP) =  -2111.11291719     A.U. after   14 cycles

 Excitation energies and oscillator strengths:

 Excited state symmetry could not be determined.
 Excited State   1:      Triplet-?Sym    2.3678 eV  523.62 nm  f=0.0000  <S**2>=2.000
     160 ->166         0.10561
     161 ->163         0.36017
     161 ->164         0.29494
     161 ->166         0.12352
     161 ->167         0.10921
     162 ->163        -0.27220
     162 ->164         0.20269
     162 ->165         0.26396
 This state for optimization and/or second-order correction.
 Total Energy, E(TD-HF/TD-DFT) =  -2111.02590156
 Copying the excited state density for this state as the 1-particle RhoCI density.

 Excited state symmetry could not be determined.
 Excited State   2:      Triplet-?Sym    2.4002 eV  516.55 nm  f=0.0000  <S**2>=2.000
     160 ->166        -0.11316
     161 ->163         0.11722
     161 ->164         0.34199
     161 ->165         0.22788
     161 ->166         0.11821
     162 ->163         0.43916
     162 ->165        -0.17611
     162 ->167         0.12404

 Excited state symmetry could not be determined.
 Excited State   3:      Singlet-?Sym    3.2612 eV  380.17 nm  f=0.3185  <S**2>=0.000
     161 ->163         0.51176
     162 ->163         0.46820

 Excited state symmetry could not be determined.
 Excited State   4:      Singlet-?Sym    3.3189 eV  373.57 nm  f=0.5160  <S**2>=0.000
     161 ->163        -0.21025
     161 ->164         0.57352
     162 ->163         0.32259
     162 ->164         0.11499

 Alpha  occ. eigenvalues --  -66.12202 -14.33342 -14.33257 -14.33233 -10.27322
 Alpha  occ. eigenvalues --  -10.27217 -10.27149 -10.20461 -10.20288 -10.20257
 Alpha  occ. eigenvalues --  -10.20116 -10.20111 -10.20062 -10.19904 -10.19897
 Alpha  occ. eigenvalues --  -10.19844 -10.19721 -10.19646 -10.19623 -10.19321
 Alpha  occ. eigenvalues --  -10.19256 -10.19253 -10.19244 -10.19226 -10.19211
 Alpha  occ. eigenvalues --  -10.19196 -10.19195 -10.19193 -10.19179 -10.19163
 Alpha  occ. eigenvalues --  -10.19156 -10.19145 -10.19134 -10.19129 -10.19113
 Alpha  occ. eigenvalues --  -10.19102 -10.19085 -10.19017 -10.18926 -10.18713
 Alpha  occ. eigenvalues --  -10.18645 -10.18535 -10.18092 -10.17388 -10.17315
 Alpha  occ. eigenvalues --  -10.16631 -10.16626  -5.26732  -3.62665  -3.62579
 Alpha  occ. eigenvalues --   -3.62558  -1.01615  -0.90303  -0.90171  -0.87485
 Alpha  occ. eigenvalues --   -0.87423  -0.85504  -0.85280  -0.85216  -0.82047
 Alpha  occ. eigenvalues --   -0.81934  -0.78919  -0.77712  -0.76809  -0.76106
 Alpha  occ. eigenvalues --   -0.74699  -0.74656  -0.74536  -0.74176  -0.73808
 Alpha  occ. eigenvalues --   -0.72843  -0.71968  -0.71592  -0.70073  -0.67961
 Alpha  occ. eigenvalues --   -0.67359  -0.67165  -0.63874  -0.62584  -0.61764
 Alpha  occ. eigenvalues --   -0.61492  -0.60832  -0.60488  -0.60056  -0.59782
 Alpha  occ. eigenvalues --   -0.59528  -0.58501  -0.57285  -0.56543  -0.54162
 Alpha  occ. eigenvalues --   -0.53441  -0.52183  -0.51677  -0.50855  -0.50791
 Alpha  occ. eigenvalues --   -0.50490  -0.50111  -0.49018  -0.47652  -0.46410
 Alpha  occ. eigenvalues --   -0.45896  -0.45689  -0.45484  -0.45082  -0.44958
 Alpha  occ. eigenvalues --   -0.44410  -0.44130  -0.43934  -0.43596  -0.43360
 Alpha  occ. eigenvalues --   -0.42856  -0.42379  -0.42117  -0.42018  -0.41715
 Alpha  occ. eigenvalues --   -0.41412  -0.41222  -0.40936  -0.40723  -0.40640
 Alpha  occ. eigenvalues --   -0.40202  -0.39903  -0.39346  -0.38871  -0.38834
 Alpha  occ. eigenvalues --   -0.38615  -0.38036  -0.37856  -0.37495  -0.36870
 Alpha  occ. eigenvalues --   -0.36758  -0.36308  -0.35801  -0.35190  -0.35175
 Alpha  occ. eigenvalues --   -0.34693  -0.34506  -0.34310  -0.34288  -0.33540
 Alpha  occ. eigenvalues --   -0.33171  -0.33107  -0.32382  -0.31765  -0.31444
 Alpha  occ. eigenvalues --   -0.30844  -0.29991  -0.28581  -0.28469  -0.27852
 Alpha  occ. eigenvalues --   -0.26245  -0.25831  -0.25536  -0.25216  -0.25204
 Alpha  occ. eigenvalues --   -0.25057  -0.24810  -0.24512  -0.24185  -0.22624
 Alpha  occ. eigenvalues --   -0.20860  -0.20717
 Alpha virt. eigenvalues --   -0.07099  -0.06719  -0.04352  -0.03555  -0.01931
 Alpha virt. eigenvalues --   -0.00890  -0.00493  -0.00242   0.00015   0.00107
 Alpha virt. eigenvalues --    0.01220   0.03148   0.04503   0.05197   0.06759

 Mulliken charges:
               1
     1  C   -0.658548
     2  Si   0.611049
     3  C   -0.658453
     4  C   -0.107110
     5  C   -0.246636
     6  C    0.102242
     7  C    0.448511
     8  N   -0.542723
     9  C    0.443720
    10  C    0.077004
    11  C   -0.162441
    12  C   -0.139574
    13  C   -0.116327
    14  C   -0.139743
    15  C   -0.156729
    16  N   -0.527334
    17  C    0.395347
    18  C    0.063382
    19  C   -0.170126
    20  C   -0.190077
    21  C    0.037654
    22  C    0.053736
    23  C   -0.164539
    24  C   -0.134231
    25  C   -0.125385
    26  C   -0.133747
    27  C   -0.161918
    28  C    0.078827
    29  C   -0.207479
    30  C   -0.130328
    31  C   -0.138659
    32  C   -0.181784
    33  C    0.081897
    34  N   -0.525070
    35  C   -0.181695
    36  C   -0.180450
    37  C    0.094174
    38  C    0.075335
    39  C   -0.256488
    40  C    0.129984
    41  C   -0.189996
    42  C   -0.136645
    43  C   -0.135482
    44  C   -0.194257
    45  C    0.162340
    46  C   -0.282837
    47  C   -0.085718
    48  H    0.165539
    49  H    0.175447
    50  H    0.163214
    51  H    0.175628
    52  H    0.163240
    53  H    0.165026
    54  H    0.157367
    55  H    0.166942
    56  H    0.134394
    57  H    0.133486
    58  H    0.132736
    59  H    0.159065
    60  H    0.158543
    61  H    0.137866
    62  H    0.142931
    63  H    0.132871
    64  H    0.131356
    65  H    0.132572
    66  H    0.136596
    67  H    0.147193
    68  H    0.129120
    69  H    0.129321
    70  H    0.162509
    71  H    0.162254
    72  H    0.132736
    73  H    0.131074
    74  H    0.130089
    75  H    0.131267
    76  H    0.130715
    77  H    0.129757
    78  H    0.126467
 Sum of Mulliken charges =  -0.00000

 Dipole moment (field-independent basis, Debye):
    X=             -0.5786    Y=             -0.0074    Z=              0.1134  Tot=              0.5897
 Quadrupole moment (field-independent basis, Debye-Ang):
   XX=           -235.1357   YY=           -241.1631   ZZ=           -276.6081
   XY=              7.4355   XZ=             -2.8088   YZ=              1.7857

 Normal termination of Gaussian 16 at Sat Nov  5 10:44:56 2022.
