 Gaussian 16, Revision B.01,
 Gaussian 16:  ES64L-G16RevB.01 20-Dec-2017

 -----------------------------
 #p b3lyp/6-31g(d) opt SCF=XQC
 -----------------------------

 ------------------------------
 Gaussian input prepared by ASE
 ------------------------------
 Symbolic Z-matrix:
 Charge =  0 Multiplicity = 1

 SCF Done:  E(RB3LYP) =  -1596.52295336     A.U. after   15 cycles
 SCF Done:  E(RB3LYP) =  -1596.53642136     A.U. after   14 cycles
 SCF Done:  E(RB3LYP) =  -1596.53360325     A.U. after   14 cycles
 SCF Done:  E(RB3LYP) =  -1596.54140548     A.U. after   13 cycles
 SCF Done:  E(RB3LYP) =  -1596.54276433     A.U. after   12 cycles
 SCF Done:  E(RB3LYP) =  -1596.54145415     A.U. after   14 cycles
 SCF Done:  E(RB3LYP) =  -1596.54389367     A.U. after   12 cycles
 SCF Done:  E(RB3LYP) =  -1596.54407391     A.U. after   12 cycles
 SCF Done:  E(RB3LYP) =  -1596.54409600     A.U. after   10 cycles
 SCF Done:  E(RB3LYP) =  -1596.54410248     A.U. after    9 cycles
 SCF Done:  E(RB3LYP) =  -1596.54410379     A.U. after    9 cycles
 SCF Done:  E(RB3LYP) =  -1596.54410401     A.U. after    7 cycles
 SCF Done:  E(RB3LYP) =  -1596.54410404     A.U. after    6 cycles
 Optimization completed.
    -- Stationary point found.

                         Standard orientation:
 ---------------------------------------------------------------------
 Center     Atomic      Atomic             Coordinates (Angstroms)
 Number     Number       Type             X           Y           Z
 ---------------------------------------------------------------------
      1          6           0       -5.651405    4.501532    0.523937
      2          6           0       -6.418238    4.050473   -0.552008
      3          6           0       -6.302734    2.732847   -0.992799
      4          6           0       -5.419022    1.836623   -0.368143
      5          6           0       -5.296635    0.431651   -0.835923
      6          6           0       -6.425669   -0.296920   -1.243764
      7          6           0       -6.297615   -1.616696   -1.673364
      8          6           0       -5.045199   -2.229975   -1.701250
      9          6           0       -3.899472   -1.528288   -1.301315
     10          6           0       -2.542506   -2.196760   -1.315785
     11          6           0       -2.209216   -2.998000   -0.019269
     12          6           0       -0.915250   -3.815810   -0.189850
     13          6           0        0.304087   -2.923757   -0.229224
     14          6           0        1.402380   -3.208185   -1.043918
     15          6           0        2.522872   -2.382925   -1.058401
     16          6           0        2.553807   -1.221201   -0.273579
     17          6           0        3.777520   -0.364451   -0.284252
     18          7           0        4.910286   -1.012472   -0.184370
     19          6           0        6.096095   -0.315869   -0.120831
     20          6           0        7.283130   -1.075216   -0.003853
     21          6           0        8.510037   -0.451398    0.105293
     22          6           0        8.582161    0.955393    0.104781
     23          6           0        7.432417    1.715685   -0.013291
     24          6           0        6.164083    1.104270   -0.136140
     25          6           0        4.919775    1.830698   -0.307126
     26          6           0        4.858744    3.239143   -0.414216
     27          6           0        3.659623    3.888302   -0.639629
     28          6           0        2.471677    3.150141   -0.785695
     29          6           0        2.499784    1.773088   -0.674197
     30          6           0        3.708332    1.085794   -0.407764
     31          6           0        1.456113   -0.939652    0.549593
     32          6           0        0.335636   -1.782250    0.600074
     33          6           0       -0.819211   -1.513632    1.492931
     34          6           0       -0.705000   -0.700286    2.632348
     35          6           0       -1.800903   -0.454952    3.456625
     36          6           0       -3.037105   -1.031312    3.160514
     37          6           0       -3.160866   -1.854300    2.040505
     38          6           0       -2.070751   -2.105807    1.202782
     39          6           0       -4.044750   -0.202938   -0.877531
     40          6           0       -4.654848    2.303951    0.715038
     41          6           0       -4.769734    3.622034    1.155120
     42          1           0       -5.740774    5.528620    0.867655
     43          1           0       -7.102495    4.728283   -1.055976
     44          1           0       -6.884848    2.398691   -1.847343
     45          1           0       -7.407762    0.165615   -1.200854
     46          1           0       -7.179487   -2.171046   -1.984330
     47          1           0       -4.953221   -3.258750   -2.043586
     48          1           0       -2.494076   -2.898965   -2.158646
     49          1           0       -1.758422   -1.449914   -1.483657
     50          1           0       -3.038179   -3.695841    0.153247
     51          1           0       -0.829754   -4.511879    0.658568
     52          1           0       -0.965888   -4.430642   -1.096592
     53          1           0        1.378107   -4.092732   -1.676717
     54          1           0        3.378939   -2.621326   -1.680908
     55          1           0        7.186268   -2.156355    0.004329
     56          1           0        9.417886   -1.041322    0.196964
     57          1           0        9.546104    1.448351    0.197222
     58          1           0        7.516469    2.797673   -0.012180
     59          1           0        5.767764    3.825336   -0.333668
     60          1           0        3.639486    4.971708   -0.722032
     61          1           0        1.534974    3.659480   -0.993693
     62          1           0        1.586877    1.205619   -0.809988
     63          1           0        1.479954   -0.048903    1.168526
     64          1           0        0.258953   -0.275165    2.895269
     65          1           0       -1.684556    0.172433    4.336369
     66          1           0       -3.895473   -0.853543    3.802664
     67          1           0       -4.119644   -2.311093    1.809079
     68          1           0       -3.159221    0.357298   -0.589941
     69          1           0       -3.987909    1.619512    1.232317
     70          1           0       -4.174921    3.959895    1.999953
 ---------------------------------------------------------------------

 The electronic state is 1-A.
 Alpha  occ. eigenvalues --  -14.32211 -10.23422 -10.21773 -10.21022 -10.20541
 Alpha  occ. eigenvalues --  -10.20114 -10.20007 -10.19853 -10.19714 -10.19708
 Alpha  occ. eigenvalues --  -10.19686 -10.19684 -10.19615 -10.19593 -10.19573
 Alpha  occ. eigenvalues --  -10.19490 -10.19439 -10.19319 -10.19298 -10.19223
 Alpha  occ. eigenvalues --  -10.19213 -10.19099 -10.19031 -10.19024 -10.18845
 Alpha  occ. eigenvalues --  -10.18793 -10.18775 -10.18763 -10.18735 -10.18719
 Alpha  occ. eigenvalues --  -10.18700 -10.18693 -10.18642 -10.18637 -10.18578
 Alpha  occ. eigenvalues --  -10.18577 -10.18539 -10.18486 -10.18465 -10.18449
 Alpha  occ. eigenvalues --  -10.18232  -0.94156  -0.87835  -0.86271  -0.86107
 Alpha  occ. eigenvalues --   -0.85202  -0.84268  -0.84049  -0.81317  -0.78378
 Alpha  occ. eigenvalues --   -0.78124  -0.77063  -0.76933  -0.75676  -0.74852
 Alpha  occ. eigenvalues --   -0.73988  -0.73806  -0.72802  -0.72048  -0.71920
 Alpha  occ. eigenvalues --   -0.71338  -0.67944  -0.64436  -0.63641  -0.62918
 Alpha  occ. eigenvalues --   -0.62244  -0.61920  -0.61419  -0.60582  -0.59438
 Alpha  occ. eigenvalues --   -0.58529  -0.58222  -0.57948  -0.56432  -0.54766
 Alpha  occ. eigenvalues --   -0.53843  -0.53272  -0.51879  -0.51422  -0.49338
 Alpha  occ. eigenvalues --   -0.49156  -0.48888  -0.48127  -0.47633  -0.46843
 Alpha  occ. eigenvalues --   -0.46590  -0.46431  -0.45647  -0.44816  -0.44230
 Alpha  occ. eigenvalues --   -0.43836  -0.43420  -0.43294  -0.43086  -0.42686
 Alpha  occ. eigenvalues --   -0.42383  -0.42120  -0.41868  -0.41788  -0.41729
 Alpha  occ. eigenvalues --   -0.41312  -0.41222  -0.40825  -0.39651  -0.38630
 Alpha  occ. eigenvalues --   -0.38075  -0.37677  -0.37206  -0.36925  -0.36794
 Alpha  occ. eigenvalues --   -0.36506  -0.36249  -0.35935  -0.35739  -0.35247
 Alpha  occ. eigenvalues --   -0.34875  -0.34594  -0.34222  -0.33996  -0.33673
 Alpha  occ. eigenvalues --   -0.33133  -0.32851  -0.32426  -0.31592  -0.31374
 Alpha  occ. eigenvalues --   -0.28748  -0.27816  -0.26819  -0.26773  -0.25031
 Alpha  occ. eigenvalues --   -0.24956  -0.24648  -0.24313  -0.23982  -0.22845
 Alpha  occ. eigenvalues --   -0.22143  -0.21952  -0.21053
 Alpha virt. eigenvalues --   -0.05416  -0.03651  -0.03099  -0.02264  -0.01114
 Alpha virt. eigenvalues --   -0.00119   0.00187   0.00475   0.01190   0.03156
 Alpha virt. eigenvalues --    0.03397   0.03793   0.07413   0.09086   0.09345

 Mulliken charges:
               1
     1  C   -0.126894
     2  C   -0.134323
     3  C   -0.173369
     4  C    0.083917
     5  C    0.090342
     6  C   -0.177520
     7  C   -0.132946
     8  C   -0.184793
     9  C    0.174657
    10  C   -0.350283
    11  C   -0.178980
    12  C   -0.353447
    13  C    0.128388
    14  C   -0.211830
    15  C   -0.142814
    16  C    0.108898
    17  C    0.160048
    18  N   -0.565754
    19  C    0.232766
    20  C   -0.152953
    21  C   -0.133169
    22  C   -0.135043
    23  C   -0.195966
    24  C    0.089177
    25  C    0.089477
    26  C   -0.182174
    27  C   -0.131258
    28  C   -0.130509
    29  C   -0.212215
    30  C    0.093762
    31  C   -0.246833
    32  C    0.062322
    33  C    0.058168
    34  C   -0.186032
    35  C   -0.140297
    36  C   -0.126861
    37  C   -0.196810
    38  C    0.120839
    39  C   -0.227624
    40  C   -0.181137
    41  C   -0.136040
    42  H    0.127430
    43  H    0.128633
    44  H    0.130861
    45  H    0.129922
    46  H    0.127922
    47  H    0.119999
    48  H    0.139994
    49  H    0.155998
    50  H    0.134937
    51  H    0.161100
    52  H    0.141097
    53  H    0.125763
    54  H    0.143970
    55  H    0.142260
    56  H    0.132486
    57  H    0.131158
    58  H    0.133181
    59  H    0.137724
    60  H    0.135875
    61  H    0.137426
    62  H    0.155667
    63  H    0.142729
    64  H    0.134982
    65  H    0.129210
    66  H    0.131355
    67  H    0.135527
    68  H    0.132856
    69  H    0.146453
    70  H    0.128604
 Sum of Mulliken charges =  -0.00000

 Dipole moment (field-independent basis, Debye):
    X=             -0.4673    Y=              1.2420    Z=             -0.1733  Tot=              1.3382
 Quadrupole moment (field-independent basis, Debye-Ang):
   XX=           -217.0541   YY=           -213.2948   ZZ=           -234.5361
   XY=             11.0785   XZ=              1.4307   YZ=              6.6787

 1\1\GINC-NODE13\FOpt\RB3LYP\6-31G(d)\C40H29N1\WYKGROUP\05-Nov-2022\0\\
 #p b3lyp/6-31g(d) opt SCF=XQC\\Gaussian input prepared by ASE\\0,1\C,5
 .5777860819,4.325335812,-0.3881733677\C,6.3540460561,3.7955791164,0.64
 42624472\C,6.2038998375,2.4619867633,1.022101548\C,5.2753505243,1.6280
 643733,0.3765550368\C,5.1159708968,0.2061541047,0.7771947534\C,6.22871
 08784,-0.5789774964,1.119608554\C,6.065685902,-1.9137371284,1.48648759
 7\C,4.7939763114,-2.4858635022,1.5158593865\C,3.6638240161,-1.72741246
 4,1.1804329802\C,2.2854429776,-2.3504967156,1.1963394175\C,1.894125482

 Normal termination of Gaussian 16 at Sat Nov  5 00:53:38 2022.
