 Gaussian 16, Revision B.01,
 Gaussian 16:  ES64L-G16RevB.01 20-Dec-2017

 -------------------------------------------------------------------
 #p b3lyp/6-31g(d) 6D 10F nosymm GFInput td=(50-50,nstate=2) SCF=XQC
 -------------------------------------------------------------------

 ------------------------------
 Gaussian input prepared by ASE
 ------------------------------
 Symbolic Z-matrix:
 Charge =  0 Multiplicity = 1

                          Input orientation:
 ---------------------------------------------------------------------
 Center     Atomic      Atomic             Coordinates (Angstroms)
 Number     Number       Type             X           Y           Z
 ---------------------------------------------------------------------
      1          6           0        5.577786    4.325336   -0.388173
      2          6           0        6.354046    3.795579    0.644262
      3          6           0        6.203900    2.461987    1.022102
      4          6           0        5.275351    1.628064    0.376555
      5          6           0        5.115971    0.206154    0.777195
      6          6           0        6.228711   -0.578977    1.119609
      7          6           0        6.065686   -1.913737    1.486488
      8          6           0        4.793976   -2.485864    1.515859
      9          6           0        3.663824   -1.727412    1.180433
     10          6           0        2.285443   -2.350497    1.196339
     11          6           0        1.894125   -3.074014   -0.129336
     12          6           0        0.577275   -3.856104    0.033444
     13          6           0       -0.609447   -2.927304    0.147941
     14          6           0       -1.697179   -3.215867    0.975253
     15          6           0       -2.788027   -2.355756    1.059076
     16          6           0       -2.797720   -1.155626    0.333751
     17          6           0       -3.990709   -0.260474    0.417956
     18          7           0       -5.147101   -0.864809    0.314992
     19          6           0       -6.309479   -0.127034    0.316210
     20          6           0       -7.524321   -0.839837    0.192049
     21          6           0       -8.731343   -0.171060    0.145174
     22          6           0       -8.755111    1.235538    0.217142
     23          6           0       -7.577469    1.950463    0.343391
     24          6           0       -6.328305    1.292007    0.403508
     25          6           0       -5.056086    1.967337    0.578506
     26          6           0       -4.944224    3.365818    0.753579
     27          6           0       -3.718511    3.962775    0.980246
     28          6           0       -2.553463    3.179294    1.059316
     29          6           0       -2.631457    1.811282    0.880557
     30          6           0       -3.868872    1.178633    0.611287
     31          6           0       -1.710887   -0.869489   -0.502153
     32          6           0       -0.621505   -1.745095   -0.622776
     33          6           0        0.520330   -1.470250   -1.530351
     34          6           0        0.407049   -0.597267   -2.624843
     35          6           0        1.490822   -0.347164   -3.463597
     36          6           0        2.713205   -0.978286   -3.227935
     37          6           0        2.835237   -1.860233   -2.153541
     38          6           0        1.757353   -2.117365   -1.301815
     39          6           0        3.844388   -0.387951    0.819199
     40          6           0        4.502134    2.174336   -0.662368
     41          6           0        4.651696    3.508370   -1.039462
     42          1           0        5.694157    5.364898   -0.682805
     43          1           0        7.072948    4.424157    1.163576
     44          1           0        6.794350    2.066175    1.843967
     45          1           0        7.224802   -0.147620    1.074657
     46          1           0        6.935155   -2.511910    1.747090
     47          1           0        4.674908   -3.526954    1.809093
     48          1           0        2.232991   -3.092237    2.004375
     49          1           0        1.531664   -1.587507    1.420870
     50          1           0        2.694316   -3.789338   -0.357222
     51          1           0        0.447797   -4.505388   -0.845930
     52          1           0        0.628322   -4.517123    0.907064
     53          1           0       -1.688242   -4.131454    1.562678
     54          1           0       -3.636732   -2.596721    1.690611
     55          1           0       -7.464843   -1.921807    0.127909
     56          1           0       -9.660826   -0.725259    0.047559
     57          1           0       -9.703492    1.764150    0.173777
     58          1           0       -7.624341    3.033324    0.397968
     59          1           0       -5.834249    3.985079    0.725304
     60          1           0       -3.659251    5.039402    1.115626
     61          1           0       -1.595152    3.646247    1.268356
     62          1           0       -1.735593    1.207801    0.964818
     63          1           0       -1.718849    0.051577   -1.075438
     64          1           0       -0.547723   -0.127789   -2.841782
     65          1           0        1.375197    0.327200   -4.307968
     66          1           0        3.561661   -0.796930   -3.882142
     67          1           0        3.783002   -2.359569   -1.969485
     68          1           0        2.972022    0.215042    0.582320
     69          1           0        3.799991    1.539239   -1.195741
     70          1           0        4.048915    3.907812   -1.851125
 ---------------------------------------------------------------------

 SCF Done:  E(RB3LYP) =  -1596.54410005     A.U. after   14 cycles

 Excitation energies and oscillator strengths:

 Excited state symmetry could not be determined.
 Excited State   1:      Triplet-?Sym    2.6868 eV  461.46 nm  f=0.0000  <S**2>=2.000
     135 ->139         0.15197
     135 ->140        -0.24305
     136 ->139         0.30841
     136 ->141         0.12126
     137 ->139        -0.23204
     138 ->139         0.43563
 This state for optimization and/or second-order correction.
 Total Energy, E(TD-HF/TD-DFT) =  -1596.44536315
 Copying the excited state density for this state as the 1-particle RhoCI density.

 Excited state symmetry could not be determined.
 Excited State   2:      Triplet-?Sym    3.0319 eV  408.93 nm  f=0.0000  <S**2>=2.000
     131 ->139        -0.12554
     135 ->140        -0.13950
     136 ->139         0.18851
     136 ->140         0.13338
     136 ->141        -0.25222
     138 ->139        -0.14731
     138 ->140        -0.12927
     138 ->141         0.44077

 Excited state symmetry could not be determined.
 Excited State   3:      Singlet-?Sym    3.7605 eV  329.70 nm  f=0.1352  <S**2>=0.000
     130 ->139         0.12397
     138 ->139         0.67094

 Excited state symmetry could not be determined.
 Excited State   4:      Singlet-?Sym    3.9313 eV  315.38 nm  f=0.0169  <S**2>=0.000
     135 ->139         0.48953
     136 ->139        -0.27039
     136 ->140         0.18504
     137 ->139         0.13842
     137 ->140        -0.13582
     138 ->140         0.27424

 Alpha  occ. eigenvalues --  -14.32211 -10.23422 -10.21773 -10.21022 -10.20541
 Alpha  occ. eigenvalues --  -10.20114 -10.20007 -10.19853 -10.19714 -10.19708
 Alpha  occ. eigenvalues --  -10.19686 -10.19684 -10.19615 -10.19593 -10.19573
 Alpha  occ. eigenvalues --  -10.19490 -10.19439 -10.19319 -10.19298 -10.19223
 Alpha  occ. eigenvalues --  -10.19213 -10.19099 -10.19031 -10.19024 -10.18845
 Alpha  occ. eigenvalues --  -10.18793 -10.18775 -10.18763 -10.18735 -10.18719
 Alpha  occ. eigenvalues --  -10.18700 -10.18693 -10.18642 -10.18637 -10.18578
 Alpha  occ. eigenvalues --  -10.18577 -10.18539 -10.18486 -10.18466 -10.18449
 Alpha  occ. eigenvalues --  -10.18232  -0.94156  -0.87835  -0.86271  -0.86107
 Alpha  occ. eigenvalues --   -0.85202  -0.84268  -0.84049  -0.81317  -0.78378
 Alpha  occ. eigenvalues --   -0.78124  -0.77063  -0.76933  -0.75676  -0.74852
 Alpha  occ. eigenvalues --   -0.73988  -0.73806  -0.72802  -0.72048  -0.71919
 Alpha  occ. eigenvalues --   -0.71338  -0.67944  -0.64436  -0.63641  -0.62918
 Alpha  occ. eigenvalues --   -0.62244  -0.61920  -0.61419  -0.60582  -0.59438
 Alpha  occ. eigenvalues --   -0.58529  -0.58222  -0.57948  -0.56432  -0.54766
 Alpha  occ. eigenvalues --   -0.53843  -0.53272  -0.51879  -0.51422  -0.49338
 Alpha  occ. eigenvalues --   -0.49156  -0.48888  -0.48127  -0.47633  -0.46843
 Alpha  occ. eigenvalues --   -0.46590  -0.46431  -0.45647  -0.44816  -0.44230
 Alpha  occ. eigenvalues --   -0.43836  -0.43420  -0.43294  -0.43086  -0.42686
 Alpha  occ. eigenvalues --   -0.42383  -0.42120  -0.41868  -0.41788  -0.41729
 Alpha  occ. eigenvalues --   -0.41312  -0.41222  -0.40825  -0.39651  -0.38630
 Alpha  occ. eigenvalues --   -0.38075  -0.37677  -0.37206  -0.36925  -0.36794
 Alpha  occ. eigenvalues --   -0.36506  -0.36249  -0.35935  -0.35739  -0.35247
 Alpha  occ. eigenvalues --   -0.34875  -0.34594  -0.34222  -0.33996  -0.33673
 Alpha  occ. eigenvalues --   -0.33133  -0.32851  -0.32426  -0.31592  -0.31374
 Alpha  occ. eigenvalues --   -0.28748  -0.27816  -0.26819  -0.26773  -0.25031
 Alpha  occ. eigenvalues --   -0.24956  -0.24648  -0.24313  -0.23982  -0.22845
 Alpha  occ. eigenvalues --   -0.22143  -0.21952  -0.21053
 Alpha virt. eigenvalues --   -0.05416  -0.03651  -0.03099  -0.02264  -0.01114
 Alpha virt. eigenvalues --   -0.00119   0.00187   0.00475   0.01190   0.03156
 Alpha virt. eigenvalues --    0.03397   0.03793   0.07413   0.09086   0.09345

 Mulliken charges:
               1
     1  C   -0.126888
     2  C   -0.134328
     3  C   -0.173380
     4  C    0.083940
     5  C    0.090341
     6  C   -0.177530
     7  C   -0.132943
     8  C   -0.184783
     9  C    0.174660
    10  C   -0.350287
    11  C   -0.178998
    12  C   -0.353453
    13  C    0.128375
    14  C   -0.211834
    15  C   -0.142805
    16  C    0.108895
    17  C    0.160037
    18  N   -0.565750
    19  C    0.232763
    20  C   -0.152949
    21  C   -0.133170
    22  C   -0.135048
    23  C   -0.195960
    24  C    0.089170
    25  C    0.089485
    26  C   -0.182174
    27  C   -0.131260
    28  C   -0.130505
    29  C   -0.212226
    30  C    0.093768
    31  C   -0.246845
    32  C    0.062357
    33  C    0.058164
    34  C   -0.186033
    35  C   -0.140299
    36  C   -0.126853
    37  C   -0.196833
    38  C    0.120867
    39  C   -0.227627
    40  C   -0.181151
    41  C   -0.136038
    42  H    0.127429
    43  H    0.128634
    44  H    0.130860
    45  H    0.129923
    46  H    0.127922
    47  H    0.119997
    48  H    0.139993
    49  H    0.156001
    50  H    0.134938
    51  H    0.161101
    52  H    0.141098
    53  H    0.125762
    54  H    0.143968
    55  H    0.142260
    56  H    0.132486
    57  H    0.131159
    58  H    0.133181
    59  H    0.137724
    60  H    0.135875
    61  H    0.137425
    62  H    0.155675
    63  H    0.142727
    64  H    0.134983
    65  H    0.129210
    66  H    0.131355
    67  H    0.135528
    68  H    0.132858
    69  H    0.146453
    70  H    0.128604
 Sum of Mulliken charges =  -0.00000

 Dipole moment (field-independent basis, Debye):
    X=              0.5137    Y=              1.2155    Z=              0.2226  Tot=              1.3383
 Quadrupole moment (field-independent basis, Debye-Ang):
   XX=           -217.9793   YY=           -211.9631   ZZ=           -235.1528
   XY=            -11.3666   XZ=              0.2250   YZ=             -5.2549

 Normal termination of Gaussian 16 at Sat Nov  5 10:42:42 2022.
