 Gaussian 16, Revision B.01,
 Gaussian 16:  ES64L-G16RevB.01 20-Dec-2017

 -----------------------------
 #p b3lyp/6-31g(d) opt SCF=XQC
 -----------------------------

 ------------------------------
 Gaussian input prepared by ASE
 ------------------------------
 Symbolic Z-matrix:
 Charge =  0 Multiplicity = 1

 SCF Done:  E(RB3LYP) =  -2217.33318349     A.U. after   16 cycles
 SCF Done:  E(RB3LYP) =  -2217.33815478     A.U. after   14 cycles
 SCF Done:  E(RB3LYP) =  -2217.34082371     A.U. after   14 cycles
 SCF Done:  E(RB3LYP) =  -2217.34440032     A.U. after   13 cycles
 SCF Done:  E(RB3LYP) =  -2217.34489683     A.U. after   12 cycles
 SCF Done:  E(RB3LYP) =  -2217.34502764     A.U. after   12 cycles
 SCF Done:  E(RB3LYP) =  -2217.34507119     A.U. after   11 cycles
 SCF Done:  E(RB3LYP) =  -2217.34507933     A.U. after   10 cycles
 SCF Done:  E(RB3LYP) =  -2217.34508023     A.U. after    9 cycles
 SCF Done:  E(RB3LYP) =  -2217.34508047     A.U. after    8 cycles
 SCF Done:  E(RB3LYP) =  -2217.34508056     A.U. after    7 cycles
 SCF Done:  E(RB3LYP) =  -2217.34508059     A.U. after    6 cycles
 SCF Done:  E(RB3LYP) =  -2217.34508061     A.U. after    6 cycles
 Optimization completed.
    -- Stationary point found.

                         Standard orientation:
 ---------------------------------------------------------------------
 Center     Atomic      Atomic             Coordinates (Angstroms)
 Number     Number       Type             X           Y           Z
 ---------------------------------------------------------------------
      1          6           0        8.602653   -3.480350    1.090623
      2          6           0        8.969784   -2.295402    0.450334
      3          6           0        7.997058   -1.366008    0.086295
      4          6           0        6.639770   -1.606528    0.354183
      5          6           0        5.586317   -0.626988   -0.018966
      6          6           0        5.865701    0.729771   -0.221997
      7          6           0        4.806312    1.573343   -0.577803
      8          6           0        4.996718    3.026480   -0.823104
      9          6           0        3.901720    3.899603   -0.719736
     10          6           0        4.061467    5.266297   -0.934051
     11          6           0        5.315540    5.784738   -1.265280
     12          6           0        6.409076    4.924942   -1.383021
     13          6           0        6.251409    3.557817   -1.162729
     14          7           0        3.556862    1.093139   -0.689994
     15          6           0        3.369216   -0.215214   -0.458419
     16          6           0        1.983763   -0.737188   -0.580491
     17          6           0        0.920289    0.117026   -0.910223
     18          6           0       -0.377322   -0.370029   -1.017040
     19          6           0       -0.661917   -1.728996   -0.801286
     20          6           0       -2.034481   -2.265123   -1.016312
     21          6           0       -2.133391   -3.360068   -1.870155
     22          6           0       -3.364194   -3.820638   -2.372593
     23          6           0       -4.509494   -3.116585   -2.089963
     24          6           0       -4.468294   -1.995713   -1.222692
     25          7           0       -5.642487   -1.313799   -1.087584
     26          6           0       -5.709387   -0.258233   -0.300334
     27          6           0       -6.997338    0.493045   -0.317973
     28          6           0       -7.633453    0.697642   -1.553662
     29          6           0       -8.844900    1.380004   -1.625721
     30          6           0       -9.452806    1.857212   -0.461565
     31          6           0       -8.842168    1.639639    0.773328
     32          6           0       -7.623139    0.963715    0.846613
     33          6           0       -4.590630    0.098347    0.508592
     34         16           0       -4.566335    1.421762    1.673222
     35          6           0       -2.988985    0.915814    2.247262
     36          6           0       -2.315261    1.487708    3.330614
     37          6           0       -1.135695    0.896882    3.764930
     38          6           0       -0.657482   -0.265362    3.139770
     39          6           0       -1.321218   -0.816051    2.052140
     40          6           0       -2.489557   -0.210446    1.548741
     41          6           0       -3.383105   -0.620955    0.464625
     42          6           0       -3.243794   -1.625585   -0.564529
     43          6           0        0.410494   -2.583128   -0.486927
     44          6           0        1.708503   -2.097516   -0.373047
     45          7           0        4.331737   -1.092930   -0.134999
     46          6           0        6.281683   -2.807650    0.987427
     47          6           0        7.254784   -3.732993    1.356375
     48          1           0        9.361389   -4.204028    1.376116
     49          1           0       10.014463   -2.096601    0.227011
     50          1           0        8.297390   -0.461508   -0.434193
     51          1           0        6.860748    1.123441   -0.060395
     52          1           0        2.931567    3.487889   -0.465029
     53          1           0        3.205282    5.929192   -0.842106
     54          1           0        5.438979    6.850914   -1.435403
     55          1           0        7.385462    5.317408   -1.653951
     56          1           0        7.106784    2.899890   -1.284078
     57          1           0        1.127957    1.165684   -1.089553
     58          1           0       -1.182496    0.307222   -1.285322
     59          1           0       -1.216299   -3.824504   -2.220013
     60          1           0       -3.389146   -4.680561   -3.035917
     61          1           0       -5.470858   -3.370145   -2.524482
     62          1           0       -7.162729    0.311318   -2.451742
     63          1           0       -9.317194    1.538720   -2.591611
     64          1           0      -10.399305    2.388376   -0.517252
     65          1           0       -9.317499    1.987619    1.686516
     66          1           0       -7.179538    0.774367    1.818451
     67          1           0       -2.721684    2.359554    3.835064
     68          1           0       -0.598686    1.321078    4.608775
     69          1           0        0.242428   -0.746477    3.511656
     70          1           0       -0.939957   -1.722163    1.604327
     71          1           0        0.216644   -3.637962   -0.310357
     72          1           0        2.525348   -2.765222   -0.123618
     73          1           0        5.232780   -2.996367    1.186948
     74          1           0        6.961274   -4.653848    1.853248
 ---------------------------------------------------------------------

 The electronic state is 1-A.
 Alpha  occ. eigenvalues --  -88.90545 -14.33101 -14.33072 -14.32460 -10.26145
 Alpha  occ. eigenvalues --  -10.24702 -10.24684 -10.23800 -10.22894 -10.22547
 Alpha  occ. eigenvalues --  -10.22252 -10.21885 -10.21247 -10.20668 -10.20657
 Alpha  occ. eigenvalues --  -10.20501 -10.20433 -10.20257 -10.20123 -10.20007
 Alpha  occ. eigenvalues --  -10.19948 -10.19869 -10.19864 -10.19810 -10.19792
 Alpha  occ. eigenvalues --  -10.19751 -10.19683 -10.19601 -10.19578 -10.19486
 Alpha  occ. eigenvalues --  -10.19475 -10.19376 -10.19317 -10.19284 -10.19236
 Alpha  occ. eigenvalues --  -10.19179 -10.19009 -10.18983 -10.18971 -10.18907
 Alpha  occ. eigenvalues --  -10.18880 -10.18812 -10.18792 -10.18745 -10.18714
 Alpha  occ. eigenvalues --  -10.18659 -10.18636  -7.96626  -5.93073  -5.92713
 Alpha  occ. eigenvalues --   -5.92237  -0.98506  -0.94734  -0.89626  -0.89004
 Alpha  occ. eigenvalues --   -0.86903  -0.86265  -0.85426  -0.85359  -0.84125
 Alpha  occ. eigenvalues --   -0.83027  -0.81025  -0.78723  -0.77849  -0.76356
 Alpha  occ. eigenvalues --   -0.76169  -0.75182  -0.75015  -0.74809  -0.74345
 Alpha  occ. eigenvalues --   -0.74297  -0.73890  -0.73163  -0.72104  -0.70627
 Alpha  occ. eigenvalues --   -0.66377  -0.66347  -0.65436  -0.62911  -0.62248
 Alpha  occ. eigenvalues --   -0.61491  -0.61305  -0.60619  -0.60431  -0.59769
 Alpha  occ. eigenvalues --   -0.59217  -0.58805  -0.57996  -0.57770  -0.56376
 Alpha  occ. eigenvalues --   -0.54115  -0.53373  -0.52431  -0.52162  -0.51075
 Alpha  occ. eigenvalues --   -0.50397  -0.50350  -0.49806  -0.48464  -0.47535
 Alpha  occ. eigenvalues --   -0.47366  -0.46757  -0.46242  -0.45751  -0.45642
 Alpha  occ. eigenvalues --   -0.45152  -0.44899  -0.44628  -0.44500  -0.43866
 Alpha  occ. eigenvalues --   -0.43257  -0.43215  -0.43043  -0.42573  -0.42455
 Alpha  occ. eigenvalues --   -0.42344  -0.42059  -0.41865  -0.41784  -0.41520
 Alpha  occ. eigenvalues --   -0.41202  -0.41151  -0.40865  -0.38870  -0.38122
 Alpha  occ. eigenvalues --   -0.37871  -0.37769  -0.37424  -0.36629  -0.36539
 Alpha  occ. eigenvalues --   -0.35868  -0.35633  -0.35438  -0.35177  -0.35026
 Alpha  occ. eigenvalues --   -0.34835  -0.34599  -0.34448  -0.34084  -0.33688
 Alpha  occ. eigenvalues --   -0.33587  -0.33124  -0.32143  -0.32001  -0.30466
 Alpha  occ. eigenvalues --   -0.29844  -0.29518  -0.26826  -0.26198  -0.25788
 Alpha  occ. eigenvalues --   -0.25627  -0.25614  -0.25077  -0.24795  -0.24648
 Alpha  occ. eigenvalues --   -0.24452  -0.24282  -0.23980  -0.22881  -0.21488
 Alpha  occ. eigenvalues --   -0.20859
 Alpha virt. eigenvalues --   -0.06561  -0.06241  -0.05469  -0.02757  -0.01909
 Alpha virt. eigenvalues --   -0.00735  -0.00587  -0.00528  -0.00333  -0.00181
 Alpha virt. eigenvalues --    0.00482   0.01120   0.02762   0.03496   0.03748

 Mulliken charges:
               1
     1  C   -0.119793
     2  C   -0.138707
     3  C   -0.170831
     4  C    0.093499
     5  C    0.276973
     6  C   -0.223280
     7  C    0.277210
     8  C    0.092962
     9  C   -0.155383
    10  C   -0.136574
    11  C   -0.119679
    12  C   -0.138791
    13  C   -0.170736
    14  N   -0.555198
    15  C    0.446021
    16  C    0.080388
    17  C   -0.166116
    18  C   -0.160077
    19  C    0.062926
    20  C    0.020473
    21  C   -0.176029
    22  C   -0.133231
    23  C   -0.146637
    24  C    0.232920
    25  N   -0.556640
    26  C    0.208241
    27  C    0.092394
    28  C   -0.144040
    29  C   -0.137235
    30  C   -0.121698
    31  C   -0.138921
    32  C   -0.176089
    33  C   -0.219574
    34  S    0.231171
    35  C   -0.143666
    36  C   -0.184027
    37  C   -0.112247
    38  C   -0.154779
    39  C   -0.143538
    40  C    0.107872
    41  C    0.053656
    42  C    0.055806
    43  C   -0.191348
    44  C   -0.167570
    45  N   -0.556654
    46  C   -0.155117
    47  C   -0.136405
    48  H    0.134516
    49  H    0.133960
    50  H    0.130804
    51  H    0.151468
    52  H    0.161144
    53  H    0.136024
    54  H    0.134470
    55  H    0.133660
    56  H    0.130274
    57  H    0.160080
    58  H    0.141065
    59  H    0.141115
    60  H    0.135245
    61  H    0.146101
    62  H    0.147192
    63  H    0.132358
    64  H    0.130950
    65  H    0.132265
    66  H    0.154281
    67  H    0.142311
    68  H    0.134638
    69  H    0.135850
    70  H    0.153404
    71  H    0.133740
    72  H    0.157768
    73  H    0.158307
    74  H    0.135111
 Sum of Mulliken charges =  -0.00000

 Dipole moment (field-independent basis, Debye):
    X=              3.7043    Y=              1.0550    Z=              0.9841  Tot=              3.9753
 Quadrupole moment (field-independent basis, Debye-Ang):
   XX=           -237.6733   YY=           -250.2159   ZZ=           -266.7721
   XY=             -6.0020   XZ=              1.3657   YZ=              0.3368

 Normal termination of Gaussian 16 at Sat Nov  5 00:57:15 2022.
