 Gaussian 16, Revision B.01,
 Gaussian 16:  ES64L-G16RevB.01 20-Dec-2017

 -------------------------------------------------------------------
 #p b3lyp/6-31g(d) 6D 10F nosymm GFInput td=(50-50,nstate=2) SCF=XQC
 -------------------------------------------------------------------

 ------------------------------
 Gaussian input prepared by ASE
 ------------------------------
 Symbolic Z-matrix:
 Charge =  0 Multiplicity = 1

                          Input orientation:
 ---------------------------------------------------------------------
 Center     Atomic      Atomic             Coordinates (Angstroms)
 Number     Number       Type             X           Y           Z
 ---------------------------------------------------------------------
      1          6           0        8.278391    3.330193   -1.510363
      2          6           0        8.662635    2.141594   -0.887107
      3          6           0        7.697517    1.230842   -0.460995
      4          6           0        6.331000    1.493995   -0.648675
      5          6           0        5.284991    0.534554   -0.208401
      6          6           0        5.552586   -0.826056   -0.015515
      7          6           0        4.501959   -1.649518    0.407112
      8          6           0        4.681612   -3.104763    0.647988
      9          6           0        3.567516   -3.958999    0.614538
     10          6           0        3.716206   -5.327403    0.825873
     11          6           0        4.978704   -5.866371    1.084347
     12          6           0        6.091970   -5.025376    1.132299
     13          6           0        5.945005   -3.656601    0.914871
     14          7           0        3.269898   -1.147072    0.591183
     15          6           0        3.091326    0.163419    0.364578
     16          6           0        1.724835    0.710046    0.566411
     17          6           0        0.668391   -0.124088    0.963308
     18          6           0       -0.611941    0.386028    1.144851
     19          6           0       -0.885458    1.748886    0.939565
     20          6           0       -2.233292    2.309813    1.233344
     21          6           0       -2.262156    3.409757    2.086001
     22          6           0       -3.452641    3.893819    2.658606
     23          6           0       -4.624734    3.208782    2.448359
     24          6           0       -4.654715    2.083871    1.585869
     25          7           0       -5.846455    1.422071    1.524490
     26          6           0       -5.978424    0.364669    0.747995
     27          6           0       -7.275774   -0.363877    0.846225
     28          6           0       -7.840392   -0.552324    2.118673
     29          6           0       -9.056949   -1.213084    2.266313
     30          6           0       -9.741422   -1.684274    1.142919
     31          6           0       -9.201961   -1.482405   -0.127281
     32          6           0       -7.978021   -0.828218   -0.276565
     33          6           0       -4.916280   -0.014695   -0.124393
     34         16           0       -4.984382   -1.343021   -1.281672
     35          6           0       -3.435645   -0.867074   -1.951321
     36          6           0       -2.837772   -1.455036   -3.070010
     37          6           0       -1.676244   -0.886701   -3.576891
     38          6           0       -1.141599    0.269509   -2.987267
     39          6           0       -1.729613    0.836113   -1.864795
     40          6           0       -2.876065    0.253083   -1.289550
     41          6           0       -3.696072    0.683537   -0.156169
     42          6           0       -3.478264    1.689718    0.857737
     43          6           0        0.180822    2.582844    0.557480
     44          6           0        1.461155    2.074135    0.368855
     45          7           0        4.047794    1.022844   -0.020117
     46          6           0        5.956482    2.698635   -1.265521
     47          6           0        6.921611    3.605311   -1.696534
     48          1           0        9.031079    4.039324   -1.844264
     49          1           0        9.715205    1.925445   -0.725480
     50          1           0        8.012768    0.323332    0.045236
     51          1           0        6.529276   -1.237728   -0.234174
     52          1           0        2.591121   -3.531402    0.416059
     53          1           0        2.844765   -5.975579    0.788517
     54          1           0        5.093695   -6.933849    1.252210
     55          1           0        7.075885   -5.433772    1.346503
     56          1           0        6.817308   -3.013260    0.981652
     57          1           0        0.868300   -1.175488    1.135250
     58          1           0       -1.411205   -0.275941    1.464107
     59          1           0       -1.317943    3.859481    2.378182
     60          1           0       -3.423117    4.756717    3.317868
     61          1           0       -5.553922    3.480879    2.938146
     62          1           0       -7.310290   -0.170676    2.985110
     63          1           0       -9.473383   -1.359613    3.259443
     64          1           0      -10.691916   -2.198564    1.257648
     65          1           0       -9.736902   -1.825694   -1.008720
     66          1           0       -7.590052   -0.650585   -1.274076
     67          1           0       -3.288554   -2.321665   -3.544895
     68          1           0       -1.197974   -1.323631   -4.449099
     69          1           0       -0.257349    0.733298   -3.414596
     70          1           0       -1.306736    1.737213   -1.445119
     71          1           0       -0.005026    3.640188    0.387438
     72          1           0        2.273028    2.726432    0.067771
     73          1           0        4.900943    2.904873   -1.403086
     74          1           0        6.614861    4.529150   -2.179682
 ---------------------------------------------------------------------

 SCF Done:  E(RB3LYP) =  -2217.34507998     A.U. after   16 cycles

 Excitation energies and oscillator strengths:

 Excited state symmetry could not be determined.
 Excited State   1:      Triplet-?Sym    2.4232 eV  511.64 nm  f=0.0000  <S**2>=2.000
     159 ->162         0.13320
     159 ->164         0.15005
     160 ->162        -0.21830
     161 ->162         0.57937
     161 ->165         0.12463
 This state for optimization and/or second-order correction.
 Total Energy, E(TD-HF/TD-DFT) =  -2217.25602726
 Copying the excited state density for this state as the 1-particle RhoCI density.

 Excited state symmetry could not be determined.
 Excited State   2:      Triplet-?Sym    2.8467 eV  435.53 nm  f=0.0000  <S**2>=2.000
     156 ->163         0.16016
     159 ->162         0.32271
     159 ->164        -0.21769
     160 ->162         0.17042
     160 ->164        -0.11207
     161 ->164         0.40562
     161 ->166         0.10560

 Excited state symmetry could not be determined.
 Excited State   3:      Singlet-?Sym    3.3990 eV  364.77 nm  f=0.2262  <S**2>=0.000
     160 ->162         0.22388
     161 ->162         0.64327

 Excited state symmetry could not be determined.
 Excited State   4:      Singlet-?Sym    3.5741 eV  346.90 nm  f=0.0186  <S**2>=0.000
     159 ->163        -0.12615
     160 ->163        -0.10721
     161 ->163         0.67799

 Alpha  occ. eigenvalues --  -88.90545 -14.33101 -14.33072 -14.32460 -10.26145
 Alpha  occ. eigenvalues --  -10.24702 -10.24684 -10.23800 -10.22894 -10.22547
 Alpha  occ. eigenvalues --  -10.22252 -10.21885 -10.21247 -10.20668 -10.20657
 Alpha  occ. eigenvalues --  -10.20501 -10.20433 -10.20257 -10.20123 -10.20008
 Alpha  occ. eigenvalues --  -10.19948 -10.19869 -10.19864 -10.19810 -10.19792
 Alpha  occ. eigenvalues --  -10.19751 -10.19683 -10.19601 -10.19578 -10.19486
 Alpha  occ. eigenvalues --  -10.19475 -10.19376 -10.19317 -10.19284 -10.19236
 Alpha  occ. eigenvalues --  -10.19179 -10.19009 -10.18983 -10.18972 -10.18907
 Alpha  occ. eigenvalues --  -10.18880 -10.18812 -10.18792 -10.18745 -10.18714
 Alpha  occ. eigenvalues --  -10.18659 -10.18636  -7.96626  -5.93073  -5.92713
 Alpha  occ. eigenvalues --   -5.92237  -0.98506  -0.94734  -0.89626  -0.89005
 Alpha  occ. eigenvalues --   -0.86903  -0.86265  -0.85426  -0.85359  -0.84125
 Alpha  occ. eigenvalues --   -0.83028  -0.81025  -0.78723  -0.77849  -0.76356
 Alpha  occ. eigenvalues --   -0.76169  -0.75182  -0.75015  -0.74809  -0.74345
 Alpha  occ. eigenvalues --   -0.74297  -0.73890  -0.73163  -0.72104  -0.70627
 Alpha  occ. eigenvalues --   -0.66377  -0.66347  -0.65436  -0.62911  -0.62248
 Alpha  occ. eigenvalues --   -0.61491  -0.61305  -0.60619  -0.60431  -0.59769
 Alpha  occ. eigenvalues --   -0.59217  -0.58805  -0.57996  -0.57770  -0.56376
 Alpha  occ. eigenvalues --   -0.54115  -0.53373  -0.52431  -0.52162  -0.51075
 Alpha  occ. eigenvalues --   -0.50397  -0.50351  -0.49806  -0.48464  -0.47535
 Alpha  occ. eigenvalues --   -0.47366  -0.46757  -0.46242  -0.45751  -0.45642
 Alpha  occ. eigenvalues --   -0.45152  -0.44899  -0.44628  -0.44500  -0.43866
 Alpha  occ. eigenvalues --   -0.43257  -0.43215  -0.43043  -0.42573  -0.42455
 Alpha  occ. eigenvalues --   -0.42344  -0.42059  -0.41865  -0.41784  -0.41520
 Alpha  occ. eigenvalues --   -0.41202  -0.41151  -0.40865  -0.38870  -0.38122
 Alpha  occ. eigenvalues --   -0.37870  -0.37769  -0.37423  -0.36629  -0.36539
 Alpha  occ. eigenvalues --   -0.35868  -0.35633  -0.35438  -0.35177  -0.35026
 Alpha  occ. eigenvalues --   -0.34835  -0.34599  -0.34448  -0.34084  -0.33688
 Alpha  occ. eigenvalues --   -0.33587  -0.33124  -0.32143  -0.32001  -0.30466
 Alpha  occ. eigenvalues --   -0.29844  -0.29518  -0.26826  -0.26198  -0.25788
 Alpha  occ. eigenvalues --   -0.25627  -0.25614  -0.25077  -0.24795  -0.24648
 Alpha  occ. eigenvalues --   -0.24452  -0.24282  -0.23980  -0.22881  -0.21488
 Alpha  occ. eigenvalues --   -0.20859
 Alpha virt. eigenvalues --   -0.06561  -0.06241  -0.05469  -0.02757  -0.01909
 Alpha virt. eigenvalues --   -0.00735  -0.00587  -0.00528  -0.00333  -0.00181
 Alpha virt. eigenvalues --    0.00482   0.01120   0.02762   0.03496   0.03748

 Mulliken charges:
               1
     1  C   -0.119791
     2  C   -0.138706
     3  C   -0.170836
     4  C    0.093505
     5  C    0.276971
     6  C   -0.223283
     7  C    0.277215
     8  C    0.092963
     9  C   -0.155384
    10  C   -0.136572
    11  C   -0.119681
    12  C   -0.138789
    13  C   -0.170736
    14  N   -0.555200
    15  C    0.446021
    16  C    0.080383
    17  C   -0.166115
    18  C   -0.160068
    19  C    0.062915
    20  C    0.020472
    21  C   -0.176034
    22  C   -0.133225
    23  C   -0.146643
    24  C    0.232925
    25  N   -0.556638
    26  C    0.208236
    27  C    0.092402
    28  C   -0.144038
    29  C   -0.137241
    30  C   -0.121693
    31  C   -0.138923
    32  C   -0.176092
    33  C   -0.219581
    34  S    0.231175
    35  C   -0.143658
    36  C   -0.184034
    37  C   -0.112245
    38  C   -0.154821
    39  C   -0.143471
    40  C    0.107836
    41  C    0.053654
    42  C    0.055808
    43  C   -0.191343
    44  C   -0.167573
    45  N   -0.556649
    46  C   -0.155117
    47  C   -0.136407
    48  H    0.134516
    49  H    0.133960
    50  H    0.130803
    51  H    0.151468
    52  H    0.161143
    53  H    0.136024
    54  H    0.134470
    55  H    0.133659
    56  H    0.130272
    57  H    0.160081
    58  H    0.141066
    59  H    0.141116
    60  H    0.135245
    61  H    0.146101
    62  H    0.147191
    63  H    0.132358
    64  H    0.130950
    65  H    0.132266
    66  H    0.154281
    67  H    0.142311
    68  H    0.134641
    69  H    0.135855
    70  H    0.153403
    71  H    0.133740
    72  H    0.157767
    73  H    0.158307
    74  H    0.135111
 Sum of Mulliken charges =  -0.00000

 Dipole moment (field-independent basis, Debye):
    X=              3.6201    Y=             -1.1236    Z=             -1.1979  Tot=              3.9753
 Quadrupole moment (field-independent basis, Debye-Ang):
   XX=           -239.9263   YY=           -250.4314   ZZ=           -266.7663
   XY=              6.1399   XZ=             -2.3632   YZ=             -0.1794

 Normal termination of Gaussian 16 at Sat Nov  5 10:45:01 2022.
