 Gaussian 16, Revision B.01,
 Gaussian 16:  ES64L-G16RevB.01 20-Dec-2017

 -------------------------------------------------------------------
 #p b3lyp/6-31g(d) 6D 10F nosymm GFInput td=(50-50,nstate=2) SCF=XQC
 -------------------------------------------------------------------

 ------------------------------
 Gaussian input prepared by ASE
 ------------------------------
 Symbolic Z-matrix:
 Charge =  0 Multiplicity = 1

                          Input orientation:
 ---------------------------------------------------------------------
 Center     Atomic      Atomic             Coordinates (Angstroms)
 Number     Number       Type             X           Y           Z
 ---------------------------------------------------------------------
      1          6           0       -3.092890   -2.388766    4.712312
      2          6           0       -2.847319   -3.197118    3.423497
      3          6           0       -2.510121   -2.307269    2.230265
      4          6           0       -3.601643   -1.590170    1.724512
      5          6           0       -3.477598   -0.698080    0.669202
      6          6           0       -2.229922   -0.453802    0.094768
      7         15           0       -1.992488    0.597401   -1.419935
      8          6           0       -1.628826    2.275375   -0.722305
      9          6           0       -1.385598    3.310041   -1.643001
     10          6           0       -1.115958    4.606681   -1.207722
     11          6           0       -1.057867    4.888315    0.159836
     12          6           0       -1.275633    3.865891    1.083151
     13          6           0       -1.564736    2.570585    0.646254
     14          6           0       -3.751185    0.818410   -1.981443
     15          6           0       -4.610735    1.842312   -1.552324
     16          6           0       -5.907464    1.944338   -2.060340
     17          6           0       -6.369031    1.022441   -3.001754
     18          6           0       -5.524606    0.000072   -3.438913
     19          6           0       -4.225569   -0.093949   -2.938765
     20          6           0       -1.127721   -1.153576    0.628163
     21          6           0       -1.227558   -2.121546    1.647502
     22          6           0        0.010226   -2.968055    2.025563
     23          6           0       -0.277291   -4.463619    1.703987
     24          6           0        0.393646   -2.767757    3.517878
     25          6           0        1.241102   -2.565410    1.197403
     26          6           0        2.451580   -3.260156    1.341902
     27          6           0        3.588220   -2.904993    0.624975
     28          6           0        3.542878   -1.816226   -0.245995
     29          6           0        2.364848   -1.083587   -0.420453
     30         15           0        2.237143    0.394479   -1.541879
     31          6           0        3.740973    0.163337   -2.607540
     32          6           0        4.982119    0.781649   -2.393949
     33          6           0        6.038609    0.586730   -3.287446
     34          6           0        5.874449   -0.232907   -4.404488
     35          6           0        4.642835   -0.852176   -4.630777
     36          6           0        3.584931   -0.646251   -3.746425
     37          6           0        2.766760    1.763921   -0.405104
     38          6           0        2.409111    3.068865   -0.780068
     39          6           0        2.775532    4.164801    0.001642
     40          6           0        3.494538    3.972744    1.182337
     41          6           0        3.843415    2.679421    1.575573
     42          6           0        3.484165    1.583916    0.788098
     43          6           0        1.221651   -1.499633    0.296948
     44          8           0        0.074236   -0.786823    0.065098
     45          1           0       -3.368050   -3.054900    5.538408
     46          1           0       -3.903150   -1.664773    4.577187
     47          1           0       -2.198440   -1.830040    5.008409
     48          1           0       -3.762389   -3.753947    3.183391
     49          1           0       -2.086614   -3.949616    3.620846
     50          1           0       -4.581146   -1.750758    2.169130
     51          1           0       -4.357450   -0.192804    0.286135
     52          1           0       -1.415933    3.098275   -2.709588
     53          1           0       -0.945698    5.396131   -1.935730
     54          1           0       -0.841563    5.897135    0.501789
     55          1           0       -1.227133    4.075074    2.148868
     56          1           0       -1.747704    1.787496    1.375842
     57          1           0       -4.263511    2.566058   -0.820962
     58          1           0       -6.558276    2.745397   -1.718382
     59          1           0       -7.378173    1.104340   -3.397229
     60          1           0       -5.873017   -0.717255   -4.177687
     61          1           0       -3.566250   -0.880425   -3.299178
     62          1           0       -1.162440   -4.843982    2.216024
     63          1           0        0.568176   -5.095111    1.995327
     64          1           0       -0.435172   -4.589223    0.628128
     65          1           0       -0.394692   -3.082169    4.202881
     66          1           0        1.291464   -3.343455    3.764581
     67          1           0        0.610778   -1.712189    3.712342
     68          1           0        2.506654   -4.097676    2.030736
     69          1           0        4.509768   -3.466276    0.751401
     70          1           0        4.432678   -1.529814   -0.797083
     71          1           0        5.125413    1.420602   -1.527967
     72          1           0        6.992361    1.076602   -3.106860
     73          1           0        6.697471   -0.383082   -5.098398
     74          1           0        4.502738   -1.486148   -5.502693
     75          1           0        2.622674   -1.114330   -3.942373
     76          1           0        1.824466    3.225377   -1.682479
     77          1           0        2.486306    5.166230   -0.305568
     78          1           0        3.774449    4.824579    1.796957
     79          1           0        4.397902    2.521089    2.497425
     80          1           0        3.762291    0.583732    1.106130
 ---------------------------------------------------------------------

 SCF Done:  E(RB3LYP) =  -2341.97124302     A.U. after   15 cycles

 Excitation energies and oscillator strengths:

 Excited state symmetry could not be determined.
 Excited State   1:      Triplet-?Sym    3.3135 eV  374.18 nm  f=0.0000  <S**2>=2.000
     149 ->172         0.12709
     157 ->161        -0.13138
     157 ->164         0.11369
     158 ->165         0.18076
     159 ->161        -0.15260
     159 ->165        -0.10116
     160 ->161         0.30640
     160 ->162         0.31820
     160 ->165        -0.14207
     160 ->169         0.10814
 This state for optimization and/or second-order correction.
 Total Energy, E(TD-HF/TD-DFT) =  -2341.84947373
 Copying the excited state density for this state as the 1-particle RhoCI density.

 Excited state symmetry could not be determined.
 Excited State   2:      Triplet-?Sym    3.4560 eV  358.75 nm  f=0.0000  <S**2>=2.000
     148 ->162         0.11081
     149 ->162         0.12396
     157 ->161        -0.12936
     158 ->161         0.10090
     158 ->172        -0.11083
     159 ->161         0.16511
     159 ->162        -0.31653
     159 ->164         0.11516
     160 ->161         0.33038
     160 ->172         0.12379

 Excited state symmetry could not be determined.
 Excited State   3:      Singlet-?Sym    4.1781 eV  296.75 nm  f=0.0477  <S**2>=0.000
     159 ->161         0.57014
     160 ->161        -0.24241
     160 ->162        -0.29477

 Excited state symmetry could not be determined.
 Excited State   4:      Singlet-?Sym    4.2341 eV  292.82 nm  f=0.1682  <S**2>=0.000
     159 ->161         0.24031
     159 ->162        -0.13291
     159 ->165        -0.11477
     160 ->161         0.61554

 Alpha  occ. eigenvalues --  -77.07625 -77.07492 -19.19215 -10.25183 -10.25060
 Alpha  occ. eigenvalues --  -10.21887 -10.20013 -10.19967 -10.19526 -10.19099
 Alpha  occ. eigenvalues --  -10.19048 -10.19043 -10.18872 -10.18863 -10.18811
 Alpha  occ. eigenvalues --  -10.18795 -10.18777 -10.18729 -10.18709 -10.18671
 Alpha  occ. eigenvalues --  -10.18654 -10.18615 -10.18572 -10.18546 -10.18536
 Alpha  occ. eigenvalues --  -10.18531 -10.18523 -10.18497 -10.18485 -10.18465
 Alpha  occ. eigenvalues --  -10.18442 -10.18440 -10.18422 -10.18395 -10.18385
 Alpha  occ. eigenvalues --  -10.18329 -10.18320 -10.18319 -10.18283 -10.18260
 Alpha  occ. eigenvalues --  -10.18002 -10.17895 -10.17823 -10.17757  -6.54267
 Alpha  occ. eigenvalues --   -6.54154  -4.70544  -4.70522  -4.70427  -4.70408
 Alpha  occ. eigenvalues --   -4.70016  -4.69900  -1.08548  -0.86165  -0.86068
 Alpha  occ. eigenvalues --   -0.84821  -0.84637  -0.84294  -0.84194  -0.81134
 Alpha  occ. eigenvalues --   -0.79051  -0.76030  -0.75586  -0.75289  -0.73924
 Alpha  occ. eigenvalues --   -0.73776  -0.73702  -0.73686  -0.73390  -0.73312
 Alpha  occ. eigenvalues --   -0.73212  -0.72137  -0.71223  -0.69018  -0.65286
 Alpha  occ. eigenvalues --   -0.64481  -0.63599  -0.62600  -0.61320  -0.59866
 Alpha  occ. eigenvalues --   -0.59727  -0.59591  -0.59552  -0.58803  -0.58681
 Alpha  occ. eigenvalues --   -0.58301  -0.57324  -0.55522  -0.55031  -0.54082
 Alpha  occ. eigenvalues --   -0.53322  -0.50947  -0.50827  -0.49760  -0.49347
 Alpha  occ. eigenvalues --   -0.48615  -0.47130  -0.46837  -0.46059  -0.45112
 Alpha  occ. eigenvalues --   -0.44875  -0.44714  -0.44402  -0.44188  -0.44030
 Alpha  occ. eigenvalues --   -0.43987  -0.43859  -0.43728  -0.43642  -0.43407
 Alpha  occ. eigenvalues --   -0.42180  -0.41548  -0.41489  -0.41420  -0.41315
 Alpha  occ. eigenvalues --   -0.41245  -0.41113  -0.40480  -0.40063  -0.39720
 Alpha  occ. eigenvalues --   -0.39657  -0.38413  -0.38304  -0.37812  -0.37659
 Alpha  occ. eigenvalues --   -0.37178  -0.36687  -0.35953  -0.35895  -0.35801
 Alpha  occ. eigenvalues --   -0.35525  -0.35215  -0.35066  -0.34840  -0.34708
 Alpha  occ. eigenvalues --   -0.34069  -0.33800  -0.33669  -0.33614  -0.33447
 Alpha  occ. eigenvalues --   -0.32738  -0.32534  -0.31243  -0.31203  -0.31028
 Alpha  occ. eigenvalues --   -0.30378  -0.26295  -0.25877  -0.25167  -0.25044
 Alpha  occ. eigenvalues --   -0.24927  -0.24677  -0.24655  -0.24315  -0.24195
 Alpha  occ. eigenvalues --   -0.24047  -0.23803  -0.21220  -0.20043  -0.19999
 Alpha virt. eigenvalues --   -0.02144  -0.01617  -0.01159  -0.01047  -0.00750
 Alpha virt. eigenvalues --   -0.00109   0.00315   0.00489   0.00684   0.01042
 Alpha virt. eigenvalues --    0.01112   0.02776   0.06657   0.07715   0.07895

 Mulliken charges:
               1
     1  C   -0.441738
     2  C   -0.350175
     3  C    0.098813
     4  C   -0.172788
     5  C   -0.158636
     6  C   -0.195589
     7  P    0.421919
     8  C   -0.091917
     9  C   -0.168659
    10  C   -0.124093
    11  C   -0.131358
    12  C   -0.114558
    13  C   -0.163134
    14  C   -0.110965
    15  C   -0.163020
    16  C   -0.121745
    17  C   -0.132400
    18  C   -0.120712
    19  C   -0.164800
    20  C    0.268607
    21  C    0.074518
    22  C   -0.040453
    23  C   -0.449580
    24  C   -0.449427
    25  C    0.142972
    26  C   -0.208694
    27  C   -0.122576
    28  C   -0.169183
    29  C   -0.187407
    30  P    0.415746
    31  C   -0.106288
    32  C   -0.167388
    33  C   -0.121175
    34  C   -0.133058
    35  C   -0.120049
    36  C   -0.168400
    37  C   -0.103021
    38  C   -0.156229
    39  C   -0.116738
    40  C   -0.133224
    41  C   -0.122007
    42  C   -0.162264
    43  C    0.272062
    44  O   -0.558544
    45  H    0.144073
    46  H    0.152308
    47  H    0.154303
    48  H    0.149530
    49  H    0.147385
    50  H    0.121722
    51  H    0.149157
    52  H    0.141157
    53  H    0.127910
    54  H    0.126410
    55  H    0.128245
    56  H    0.141065
    57  H    0.148191
    58  H    0.129685
    59  H    0.129680
    60  H    0.129976
    61  H    0.141787
    62  H    0.154342
    63  H    0.144092
    64  H    0.158505
    65  H    0.154611
    66  H    0.144734
    67  H    0.155228
    68  H    0.129221
    69  H    0.128160
    70  H    0.150125
    71  H    0.146855
    72  H    0.128658
    73  H    0.128650
    74  H    0.129442
    75  H    0.142832
    76  H    0.145132
    77  H    0.127436
    78  H    0.127000
    79  H    0.126967
    80  H    0.142785
 Sum of Mulliken charges =  -0.00000

 Dipole moment (field-independent basis, Debye):
    X=             -0.2373    Y=             -0.6634    Z=              2.2687  Tot=              2.3756
 Quadrupole moment (field-independent basis, Debye-Ang):
   XX=           -249.1797   YY=           -249.2392   ZZ=           -257.0483
   XY=              0.0656   XZ=              0.2820   YZ=             -1.9049

 Normal termination of Gaussian 16 at Sat Nov  5 10:30:58 2022.
