 Gaussian 16, Revision B.01,
 Gaussian 16:  ES64L-G16RevB.01 20-Dec-2017

 -----------------------------
 #p b3lyp/6-31g(d) opt SCF=XQC
 -----------------------------

 ------------------------------
 Gaussian input prepared by ASE
 ------------------------------
 Symbolic Z-matrix:
 Charge =  0 Multiplicity = 1

 SCF Done:  E(RB3LYP) =  -2341.94141283     A.U. after   16 cycles
 SCF Done:  E(RB3LYP) =  -2341.95821487     A.U. after   15 cycles
 SCF Done:  E(RB3LYP) =  -2341.96161892     A.U. after   15 cycles
 SCF Done:  E(RB3LYP) =  -2341.96650513     A.U. after   15 cycles
 SCF Done:  E(RB3LYP) =  -2341.96830083     A.U. after   15 cycles
 SCF Done:  E(RB3LYP) =  -2341.96979770     A.U. after   12 cycles
 SCF Done:  E(RB3LYP) =  -2341.96948260     A.U. after   13 cycles
 SCF Done:  E(RB3LYP) =  -2341.97088730     A.U. after   12 cycles
 SCF Done:  E(RB3LYP) =  -2341.97101746     A.U. after   11 cycles
 SCF Done:  E(RB3LYP) =  -2341.97107842     A.U. after   11 cycles
 SCF Done:  E(RB3LYP) =  -2341.97124986     A.U. after   13 cycles
 SCF Done:  E(RB3LYP) =  -2341.97125575     A.U. after   10 cycles
 SCF Done:  E(RB3LYP) =  -2341.97123500     A.U. after   11 cycles
 SCF Done:  E(RB3LYP) =  -2341.97125770     A.U. after   12 cycles
 SCF Done:  E(RB3LYP) =  -2341.97125792     A.U. after    8 cycles
 SCF Done:  E(RB3LYP) =  -2341.97125816     A.U. after    7 cycles
 SCF Done:  E(RB3LYP) =  -2341.97125838     A.U. after   10 cycles
 SCF Done:  E(RB3LYP) =  -2341.97125839     A.U. after    6 cycles
 SCF Done:  E(RB3LYP) =  -2341.97125850     A.U. after   10 cycles
 SCF Done:  E(RB3LYP) =  -2341.97125850     A.U. after    7 cycles
 Optimization completed.
    -- Stationary point found.

                         Standard orientation:
 ---------------------------------------------------------------------
 Center     Atomic      Atomic             Coordinates (Angstroms)
 Number     Number       Type             X           Y           Z
 ---------------------------------------------------------------------
      1          6           0        4.276834    4.300967    2.136996
      2          6           0        3.840912    4.263851    0.659370
      3          6           0        3.206340    2.931530    0.270045
      4          6           0        4.117769    1.873848    0.160300
      5          6           0        3.718783    0.580021   -0.142544
      6          6           0        2.366807    0.279759   -0.310902
      7         15           0        1.753417   -1.382377   -0.873734
      8          6           0        1.410576   -2.271504    0.715746
      9          6           0        0.911231   -3.582451    0.618543
     10          6           0        0.636717   -4.330409    1.762505
     11          6           0        0.831424   -3.771028    3.028242
     12          6           0        1.305490   -2.463912    3.137748
     13          6           0        1.598596   -1.721406    1.990992
     14          6           0        3.343006   -2.191401   -1.398936
     15          6           0        4.191073   -2.924387   -0.553442
     16          6           0        5.348968   -3.525208   -1.051727
     17          6           0        5.681772   -3.399793   -2.401805
     18          6           0        4.846764   -2.675290   -3.254598
     19          6           0        3.684440   -2.084958   -2.757611
     20          6           0        1.449149    1.341084   -0.167598
     21          6           0        1.823038    2.679841    0.064613
     22          6           0        0.753015    3.795200    0.013219
     23          6           0        1.082686    4.764435   -1.159252
     24          6           0        0.660894    4.548615    1.368953
     25          6           0       -0.645101    3.220702   -0.266515
     26          6           0       -1.746479    4.076701   -0.418300
     27          6           0       -3.026761    3.586704   -0.648214
     28          6           0       -3.238339    2.209115   -0.707712
     29          6           0       -2.177498    1.311424   -0.553714
     30         15           0       -2.387941   -0.535928   -0.593541
     31          6           0       -4.052254   -0.686860   -1.404619
     32          6           0       -5.268935   -0.842197   -0.723494
     33          6           0       -6.464598   -1.004203   -1.428227
     34          6           0       -6.465104   -1.007719   -2.823406
     35          6           0       -5.260195   -0.857116   -3.514121
     36          6           0       -4.065806   -0.709400   -2.810375
     37          6           0       -2.782055   -0.898371    1.184501
     38          6           0       -2.605913   -2.224083    1.612109
     39          6           0       -2.890745   -2.596957    2.925975
     40          6           0       -3.343262   -1.645027    3.840829
     41          6           0       -3.508066   -0.319859    3.433643
     42          6           0       -3.231422    0.050675    2.116266
     43          6           0       -0.886120    1.849485   -0.360084
     44          8           0        0.134862    0.940641   -0.260042
     45          1           0        4.760692    5.256208    2.372106
     46          1           0        4.986860    3.497957    2.360567
     47          1           0        3.419827    4.178664    2.808166
     48          1           0        4.729088    4.412713    0.031639
     49          1           0        3.193861    5.116256    0.462894
     50          1           0        5.175534    2.080893    0.305782
     51          1           0        4.463867   -0.200081   -0.254236
     52          1           0        0.744152   -4.022402   -0.362222
     53          1           0        0.265599   -5.347858    1.666145
     54          1           0        0.612134   -4.349932    3.921673
     55          1           0        1.454843   -2.019145    4.118431
     56          1           0        1.981965   -0.710438    2.090869
     57          1           0        3.943051   -3.029908    0.498515
     58          1           0        5.992537   -4.091277   -0.382718
     59          1           0        6.582657   -3.869446   -2.788207
     60          1           0        5.093983   -2.579345   -4.308834
     61          1           0        3.027779   -1.539569   -3.431770
     62          1           0        2.078302    5.203243   -1.078363
     63          1           0        0.362432    5.587906   -1.199314
     64          1           0        1.031867    4.227243   -2.111627
     65          1           0        1.591440    5.049694    1.638328
     66          1           0       -0.123621    5.311215    1.332267
     67          1           0        0.407855    3.848622    2.172176
     68          1           0       -1.599697    5.150677   -0.355092
     69          1           0       -3.859533    4.273724   -0.769731
     70          1           0       -4.239195    1.824544   -0.874648
     71          1           0       -5.284471   -0.839462    0.362079
     72          1           0       -7.397381   -1.126090   -0.882986
     73          1           0       -7.396242   -1.134054   -3.369710
     74          1           0       -5.249343   -0.866655   -4.601125
     75          1           0       -3.129422   -0.615264   -3.356044
     76          1           0       -2.226489   -2.965711    0.914486
     77          1           0       -2.745030   -3.627985    3.236841
     78          1           0       -3.558468   -1.931738    4.867090
     79          1           0       -3.854011    0.428893    4.142183
     80          1           0       -3.364228    1.084864    1.813477
 ---------------------------------------------------------------------

 The electronic state is 1-A.
 Alpha  occ. eigenvalues --  -77.07624 -77.07494 -19.19215 -10.25183 -10.25061
 Alpha  occ. eigenvalues --  -10.21887 -10.20013 -10.19967 -10.19526 -10.19100
 Alpha  occ. eigenvalues --  -10.19048 -10.19043 -10.18872 -10.18863 -10.18810
 Alpha  occ. eigenvalues --  -10.18794 -10.18777 -10.18729 -10.18709 -10.18671
 Alpha  occ. eigenvalues --  -10.18654 -10.18614 -10.18573 -10.18546 -10.18536
 Alpha  occ. eigenvalues --  -10.18530 -10.18523 -10.18497 -10.18485 -10.18466
 Alpha  occ. eigenvalues --  -10.18442 -10.18440 -10.18422 -10.18396 -10.18385
 Alpha  occ. eigenvalues --  -10.18329 -10.18320 -10.18319 -10.18283 -10.18260
 Alpha  occ. eigenvalues --  -10.18002 -10.17895 -10.17823 -10.17757  -6.54266
 Alpha  occ. eigenvalues --   -6.54155  -4.70543  -4.70521  -4.70429  -4.70410
 Alpha  occ. eigenvalues --   -4.70015  -4.69902  -1.08548  -0.86165  -0.86069
 Alpha  occ. eigenvalues --   -0.84820  -0.84637  -0.84294  -0.84194  -0.81134
 Alpha  occ. eigenvalues --   -0.79051  -0.76030  -0.75586  -0.75289  -0.73923
 Alpha  occ. eigenvalues --   -0.73777  -0.73702  -0.73686  -0.73391  -0.73311
 Alpha  occ. eigenvalues --   -0.73213  -0.72137  -0.71223  -0.69018  -0.65286
 Alpha  occ. eigenvalues --   -0.64481  -0.63599  -0.62600  -0.61320  -0.59866
 Alpha  occ. eigenvalues --   -0.59728  -0.59591  -0.59552  -0.58803  -0.58681
 Alpha  occ. eigenvalues --   -0.58301  -0.57323  -0.55522  -0.55031  -0.54082
 Alpha  occ. eigenvalues --   -0.53322  -0.50947  -0.50828  -0.49760  -0.49347
 Alpha  occ. eigenvalues --   -0.48615  -0.47130  -0.46837  -0.46059  -0.45113
 Alpha  occ. eigenvalues --   -0.44875  -0.44714  -0.44402  -0.44188  -0.44029
 Alpha  occ. eigenvalues --   -0.43987  -0.43859  -0.43728  -0.43642  -0.43407
 Alpha  occ. eigenvalues --   -0.42180  -0.41548  -0.41489  -0.41420  -0.41316
 Alpha  occ. eigenvalues --   -0.41245  -0.41113  -0.40480  -0.40063  -0.39720
 Alpha  occ. eigenvalues --   -0.39657  -0.38413  -0.38304  -0.37812  -0.37659
 Alpha  occ. eigenvalues --   -0.37178  -0.36687  -0.35953  -0.35895  -0.35801
 Alpha  occ. eigenvalues --   -0.35526  -0.35215  -0.35066  -0.34840  -0.34708
 Alpha  occ. eigenvalues --   -0.34069  -0.33800  -0.33669  -0.33614  -0.33447
 Alpha  occ. eigenvalues --   -0.32738  -0.32534  -0.31243  -0.31203  -0.31028
 Alpha  occ. eigenvalues --   -0.30378  -0.26295  -0.25878  -0.25167  -0.25044
 Alpha  occ. eigenvalues --   -0.24927  -0.24677  -0.24655  -0.24315  -0.24195
 Alpha  occ. eigenvalues --   -0.24046  -0.23803  -0.21220  -0.20044  -0.19999
 Alpha virt. eigenvalues --   -0.02144  -0.01617  -0.01160  -0.01047  -0.00750
 Alpha virt. eigenvalues --   -0.00109   0.00315   0.00489   0.00683   0.01042
 Alpha virt. eigenvalues --    0.01112   0.02775   0.06656   0.07715   0.07896

 Mulliken charges:
               1
     1  C   -0.441740
     2  C   -0.350181
     3  C    0.098827
     4  C   -0.172779
     5  C   -0.158638
     6  C   -0.195643
     7  P    0.422102
     8  C   -0.091976
     9  C   -0.168659
    10  C   -0.124076
    11  C   -0.131370
    12  C   -0.114560
    13  C   -0.163140
    14  C   -0.110995
    15  C   -0.163021
    16  C   -0.121737
    17  C   -0.132423
    18  C   -0.120693
    19  C   -0.164804
    20  C    0.268608
    21  C    0.074503
    22  C   -0.040487
    23  C   -0.449572
    24  C   -0.449407
    25  C    0.143001
    26  C   -0.208698
    27  C   -0.122584
    28  C   -0.169166
    29  C   -0.187395
    30  P    0.415626
    31  C   -0.106271
    32  C   -0.167372
    33  C   -0.121180
    34  C   -0.133061
    35  C   -0.120043
    36  C   -0.168404
    37  C   -0.102991
    38  C   -0.156226
    39  C   -0.116728
    40  C   -0.133223
    41  C   -0.122013
    42  C   -0.162266
    43  C    0.272039
    44  O   -0.558550
    45  H    0.144074
    46  H    0.152308
    47  H    0.154302
    48  H    0.149530
    49  H    0.147386
    50  H    0.121721
    51  H    0.149156
    52  H    0.141159
    53  H    0.127909
    54  H    0.126409
    55  H    0.128245
    56  H    0.141063
    57  H    0.148189
    58  H    0.129682
    59  H    0.129680
    60  H    0.129974
    61  H    0.141783
    62  H    0.154344
    63  H    0.144093
    64  H    0.158505
    65  H    0.154608
    66  H    0.144732
    67  H    0.155226
    68  H    0.129224
    69  H    0.128162
    70  H    0.150124
    71  H    0.146857
    72  H    0.128661
    73  H    0.128653
    74  H    0.129444
    75  H    0.142834
    76  H    0.145136
    77  H    0.127438
    78  H    0.127000
    79  H    0.126969
    80  H    0.142785
 Sum of Mulliken charges =  -0.00000

 Dipole moment (field-independent basis, Debye):
    X=              0.7334    Y=              1.7784    Z=              1.3940  Tot=              2.3757
 Quadrupole moment (field-independent basis, Debye-Ang):
   XX=           -249.3357   YY=           -249.0575   ZZ=           -255.5590
   XY=             -0.1716   XZ=             -1.3176   YZ=             -2.2777

 Normal termination of Gaussian 16 at Sat Nov  5 03:06:19 2022.
