 Gaussian 16, Revision B.01,
 Gaussian 16:  ES64L-G16RevB.01 20-Dec-2017

 -----------------------------
 #p b3lyp/6-31g(d) opt SCF=XQC
 -----------------------------

 ------------------------------
 Gaussian input prepared by ASE
 ------------------------------
 Symbolic Z-matrix:
 Charge =  0 Multiplicity = 1

 SCF Done:  E(RB3LYP) =  -1233.90533489     A.U. after   14 cycles
 SCF Done:  E(RB3LYP) =  -1233.91168663     A.U. after   12 cycles
 SCF Done:  E(RB3LYP) =  -1233.91181266     A.U. after   12 cycles
 SCF Done:  E(RB3LYP) =  -1233.91183647     A.U. after   10 cycles
 SCF Done:  E(RB3LYP) =  -1233.91183972     A.U. after    8 cycles
 SCF Done:  E(RB3LYP) =  -1233.91184075     A.U. after    8 cycles
 SCF Done:  E(RB3LYP) =  -1233.91184199     A.U. after    9 cycles
 SCF Done:  E(RB3LYP) =  -1233.91184336     A.U. after    9 cycles
 SCF Done:  E(RB3LYP) =  -1233.91184543     A.U. after    9 cycles
 SCF Done:  E(RB3LYP) =  -1233.91184715     A.U. after    9 cycles
 SCF Done:  E(RB3LYP) =  -1233.91184987     A.U. after   10 cycles
 SCF Done:  E(RB3LYP) =  -1233.91185206     A.U. after    9 cycles
 SCF Done:  E(RB3LYP) =  -1233.91185388     A.U. after   10 cycles
 SCF Done:  E(RB3LYP) =  -1233.91185461     A.U. after    9 cycles
 SCF Done:  E(RB3LYP) =  -1233.91185468     A.U. after    9 cycles
 SCF Done:  E(RB3LYP) =  -1233.91185464     A.U. after    9 cycles
 SCF Done:  E(RB3LYP) =  -1233.91185475     A.U. after    7 cycles
 SCF Done:  E(RB3LYP) =  -1233.91185477     A.U. after    6 cycles
 Optimization completed.
    -- Stationary point found.

                         Standard orientation:
 ---------------------------------------------------------------------
 Center     Atomic      Atomic             Coordinates (Angstroms)
 Number     Number       Type             X           Y           Z
 ---------------------------------------------------------------------
      1          6           0        7.163369    1.517530    0.227694
      2          6           0        6.244776    0.436352   -0.294635
      3          6           0        6.760587   -0.663482   -0.995107
      4          6           0        5.909265   -1.642741   -1.502784
      5          6           0        4.529972   -1.543191   -1.316740
      6          6           0        3.985801   -0.459260   -0.612766
      7          6           0        2.508223   -0.329741   -0.460044
      8          6           0        1.718386   -0.336035   -1.595931
      9          6           0        0.317741   -0.182839   -1.526963
     10          6           0       -0.329532   -0.015932   -0.318407
     11          6           0       -1.817866    0.168624   -0.293078
     12          6           0       -2.362564    1.471285   -0.375491
     13          6           0       -1.548195    2.646505   -0.457645
     14          6           0       -2.109366    3.894613   -0.535381
     15          6           0       -3.524238    4.056811   -0.538414
     16          6           0       -4.339597    2.959381   -0.462027
     17          6           0       -3.795503    1.640055   -0.377495
     18          6           0       -4.623105    0.514150   -0.297576
     19          6           0       -4.105784   -0.782446   -0.212878
     20          6           0       -4.965641   -1.939990   -0.129110
     21          6           0       -6.466658   -1.780804   -0.133643
     22          6           0       -4.398358   -3.187410   -0.044704
     23          6           0       -2.987066   -3.365830   -0.038249
     24          6           0       -2.147005   -2.289461   -0.118894
     25          6           0       -2.668172   -0.958705   -0.209670
     26          6           0        0.444940   -0.024954    0.888271
     27          6           0       -0.168503    0.115865    2.164052
     28          6           0        0.572871    0.071332    3.322294
     29          6           0        1.970366   -0.128855    3.260538
     30          6           0        2.599575   -0.259753    2.043026
     31          6           0        1.872030   -0.195083    0.821413
     32          6           0        4.861079    0.519553   -0.111683
     33          1           0        6.644780    2.180675    0.927269
     34          1           0        7.552273    2.139334   -0.589307
     35          1           0        8.029782    1.090823    0.746499
     36          1           0        7.834996   -0.750113   -1.142530
     37          1           0        6.321112   -2.492606   -2.041102
     38          1           0        3.869151   -2.314555   -1.702391
     39          1           0        2.192389   -0.432088   -2.568873
     40          1           0       -0.262483   -0.181134   -2.445759
     41          1           0       -0.469381    2.534499   -0.458247
     42          1           0       -1.470828    4.771896   -0.596027
     43          1           0       -3.951038    5.054145   -0.601885
     44          1           0       -5.421459    3.071375   -0.463939
     45          1           0       -5.697998    0.667495   -0.301667
     46          1           0       -6.958655   -2.755466   -0.064728
     47          1           0       -6.814852   -1.171123    0.710095
     48          1           0       -6.822263   -1.291691   -1.049673
     49          1           0       -5.041112   -4.062340    0.019078
     50          1           0       -2.579054   -4.370697    0.031611
     51          1           0       -1.072208   -2.431948   -0.114970
     52          1           0       -1.243838    0.252788    2.210365
     53          1           0        0.082381    0.178632    4.286062
     54          1           0        2.549959   -0.186628    4.178102
     55          1           0        3.669916   -0.428618    2.005842
     56          1           0        4.447471    1.374072    0.418344
 ---------------------------------------------------------------------

 The electronic state is 1-A.
 Alpha  occ. eigenvalues --  -10.19810 -10.19769 -10.19729 -10.19660 -10.19649
 Alpha  occ. eigenvalues --  -10.19640 -10.19604 -10.19595 -10.19589 -10.19521
 Alpha  occ. eigenvalues --  -10.19462 -10.19410 -10.18812 -10.18807 -10.18748
 Alpha  occ. eigenvalues --  -10.18739 -10.18692 -10.18685 -10.18654 -10.18613
 Alpha  occ. eigenvalues --  -10.18595 -10.18529 -10.18512 -10.18478 -10.18476
 Alpha  occ. eigenvalues --  -10.18422 -10.18413 -10.18386 -10.18366 -10.18341
 Alpha  occ. eigenvalues --  -10.18291 -10.18115  -0.88264  -0.87044  -0.85283
 Alpha  occ. eigenvalues --   -0.84493  -0.82038  -0.80591  -0.79106  -0.77585
 Alpha  occ. eigenvalues --   -0.76393  -0.75561  -0.73901  -0.73569  -0.73240
 Alpha  occ. eigenvalues --   -0.71994  -0.69829  -0.68232  -0.67741  -0.63997
 Alpha  occ. eigenvalues --   -0.62517  -0.61232  -0.61146  -0.60680  -0.59211
 Alpha  occ. eigenvalues --   -0.58268  -0.56951  -0.55212  -0.53402  -0.51556
 Alpha  occ. eigenvalues --   -0.51132  -0.50467  -0.49839  -0.49319  -0.47843
 Alpha  occ. eigenvalues --   -0.46001  -0.45818  -0.45771  -0.44807  -0.44371
 Alpha  occ. eigenvalues --   -0.44032  -0.43066  -0.42418  -0.42024  -0.41866
 Alpha  occ. eigenvalues --   -0.41403  -0.41084  -0.40752  -0.40501  -0.40210
 Alpha  occ. eigenvalues --   -0.39742  -0.39147  -0.38665  -0.38526  -0.38336
 Alpha  occ. eigenvalues --   -0.37767  -0.37443  -0.36529  -0.35217  -0.34982
 Alpha  occ. eigenvalues --   -0.34828  -0.34084  -0.34045  -0.33217  -0.33006
 Alpha  occ. eigenvalues --   -0.32835  -0.31823  -0.30862  -0.29687  -0.28449
 Alpha  occ. eigenvalues --   -0.27797  -0.24837  -0.24619  -0.23952  -0.23811
 Alpha  occ. eigenvalues --   -0.23461  -0.20513  -0.18827
 Alpha virt. eigenvalues --   -0.05851  -0.03953  -0.01322  -0.00359  -0.00233
 Alpha virt. eigenvalues --    0.00431   0.01269   0.04041   0.04801   0.07016
 Alpha virt. eigenvalues --    0.09841   0.10069   0.10255   0.10839   0.10930

 Mulliken charges:
               1
     1  C   -0.530440
     2  C    0.176915
     3  C   -0.175134
     4  C   -0.131700
     5  C   -0.169835
     6  C    0.065581
     7  C    0.030024
     8  C   -0.188353
     9  C   -0.169535
    10  C   -0.034171
    11  C   -0.121853
    12  C    0.118136
    13  C   -0.190168
    14  C   -0.137007
    15  C   -0.137870
    16  C   -0.190010
    17  C    0.156997
    18  C   -0.311153
    19  C    0.088879
    20  C    0.141957
    21  C   -0.533987
    22  C   -0.209445
    23  C   -0.129219
    24  C   -0.195226
    25  C    0.122597
    26  C    0.106453
    27  C   -0.195647
    28  C   -0.131078
    29  C   -0.133320
    30  C   -0.204035
    31  C    0.083050
    32  C   -0.227358
    33  H    0.156930
    34  H    0.165513
    35  H    0.159458
    36  H    0.121859
    37  H    0.129506
    38  H    0.131784
    39  H    0.135439
    40  H    0.138656
    41  H    0.146014
    42  H    0.129304
    43  H    0.128851
    44  H    0.127757
    45  H    0.127881
    46  H    0.156083
    47  H    0.161658
    48  H    0.161914
    49  H    0.120681
    50  H    0.128356
    51  H    0.145184
    52  H    0.146636
    53  H    0.129894
    54  H    0.128362
    55  H    0.145902
    56  H    0.132333
 Sum of Mulliken charges =  -0.00000

 Dipole moment (field-independent basis, Debye):
    X=              0.3403    Y=              0.1879    Z=              0.0959  Tot=              0.4004
 Quadrupole moment (field-independent basis, Debye-Ang):
   XX=           -157.7773   YY=           -174.4297   ZZ=           -181.6135
   XY=              1.2906   XZ=             -0.3899   YZ=              2.0869

 Normal termination of Gaussian 16 at Sat Nov  5 00:49:12 2022.
