 Gaussian 16, Revision B.01,
 Gaussian 16:  ES64L-G16RevB.01 20-Dec-2017

 -------------------------------------------------------------------
 #p b3lyp/6-31g(d) 6D 10F nosymm GFInput td=(50-50,nstate=2) SCF=XQC
 -------------------------------------------------------------------

 ------------------------------
 Gaussian input prepared by ASE
 ------------------------------
 Symbolic Z-matrix:
 Charge =  0 Multiplicity = 1

                          Input orientation:
 ---------------------------------------------------------------------
 Center     Atomic      Atomic             Coordinates (Angstroms)
 Number     Number       Type             X           Y           Z
 ---------------------------------------------------------------------
      1          6           0        7.120524   -1.079390   -0.741571
      2          6           0        6.180631   -0.281664    0.133542
      3          6           0        6.677550    0.525369    1.167044
      4          6           0        5.807742    1.235177    1.992297
      5          6           0        4.428360    1.154859    1.797810
      6          6           0        3.902524    0.362884    0.766849
      7          6           0        2.426633    0.239247    0.594231
      8          6           0        1.663173   -0.178387    1.669792
      9          6           0        0.266816   -0.350389    1.566665
     10          6           0       -0.402370   -0.111787    0.382314
     11          6           0       -1.884367   -0.331594    0.310133
     12          6           0       -2.385878   -1.601352   -0.059481
     13          6           0       -1.533354   -2.700786   -0.399389
     14          6           0       -2.053146   -3.918412   -0.754259
     15          6           0       -3.461790   -4.124357   -0.792854
     16          6           0       -4.312728   -3.099864   -0.474558
     17          6           0       -3.812392   -1.813775   -0.101134
     18          6           0       -4.676540   -0.761828    0.223874
     19          6           0       -4.202247    0.502015    0.589526
     20          6           0       -5.099707    1.583743    0.922258
     21          6           0       -6.594490    1.376880    0.887025
     22          6           0       -4.573938    2.803267    1.270571
     23          6           0       -3.169460    3.025468    1.311631
     24          6           0       -2.294401    2.020159    1.004385
     25          6           0       -2.771326    0.722049    0.632602
     26          6           0        0.343637    0.344182   -0.754139
     27          6           0       -0.294101    0.631815   -1.992815
     28          6           0        0.418826    1.103026   -3.071166
     29          6           0        1.810395    1.321450   -2.958439
     30          6           0        2.462866    1.045319   -1.778013
     31          6           0        1.765839    0.533773   -0.647387
     32          6           0        4.796406   -0.347897   -0.052318
     33          1           0        6.607143   -1.477588   -1.622468
     34          1           0        7.547338   -1.930982   -0.195681
     35          1           0        7.961023   -0.467148   -1.088890
     36          1           0        7.751801    0.595581    1.324044
     37          1           0        6.204913    1.860309    2.787997
     38          1           0        3.752644    1.719282    2.434401
     39          1           0        2.156055   -0.408139    2.610431
     40          1           0       -0.291902   -0.692381    2.433684
     41          1           0       -0.458857   -2.555701   -0.371283
     42          1           0       -1.386165   -4.737741   -1.008956
     43          1           0       -3.855509   -5.096996   -1.075380
     44          1           0       -5.390215   -3.245923   -0.500270
     45          1           0       -5.745715   -0.947135    0.185762
     46          1           0       -7.118287    2.295816    1.166259
     47          1           0       -6.942581    1.085163   -0.112263
     48          1           0       -6.913523    0.587461    1.579725
     49          1           0       -5.245131    3.621321    1.521554
     50          1           0       -2.794896    4.006680    1.590983
     51          1           0       -1.224977    2.195229    1.038881
     52          1           0       -1.365385    0.479365   -2.072476
     53          1           0       -0.089968    1.318439   -4.006936
     54          1           0        2.366752    1.715537   -3.804816
     55          1           0        3.527949    1.230685   -1.695760
     56          1           0        4.397811   -0.980333   -0.841844
 ---------------------------------------------------------------------

 SCF Done:  E(RB3LYP) =  -1233.91185729     A.U. after   14 cycles

 Excitation energies and oscillator strengths:

 Excited state symmetry could not be determined.
 Excited State   1:      Triplet-?Sym    1.7787 eV  697.03 nm  f=0.0000  <S**2>=2.000
     108 ->109         0.69777
     108 <-109         0.13476
 This state for optimization and/or second-order correction.
 Total Energy, E(TD-HF/TD-DFT) =  -1233.84648958
 Copying the excited state density for this state as the 1-particle RhoCI density.

 Excited state symmetry could not be determined.
 Excited State   2:      Triplet-?Sym    2.6095 eV  475.12 nm  f=0.0000  <S**2>=2.000
     101 ->116         0.11595
     107 ->110         0.66394

 Excited state symmetry could not be determined.
 Excited State   3:      Singlet-?Sym    3.1922 eV  388.40 nm  f=0.1510  <S**2>=0.000
     108 ->109         0.69904

 Excited state symmetry could not be determined.
 Excited State   4:      Singlet-?Sym    3.3980 eV  364.87 nm  f=0.0003  <S**2>=0.000
     107 ->109         0.70373

 Alpha  occ. eigenvalues --  -10.19810 -10.19769 -10.19729 -10.19660 -10.19649
 Alpha  occ. eigenvalues --  -10.19640 -10.19604 -10.19595 -10.19589 -10.19521
 Alpha  occ. eigenvalues --  -10.19462 -10.19410 -10.18812 -10.18807 -10.18748
 Alpha  occ. eigenvalues --  -10.18739 -10.18692 -10.18685 -10.18654 -10.18613
 Alpha  occ. eigenvalues --  -10.18595 -10.18529 -10.18512 -10.18478 -10.18476
 Alpha  occ. eigenvalues --  -10.18422 -10.18413 -10.18386 -10.18366 -10.18341
 Alpha  occ. eigenvalues --  -10.18291 -10.18115  -0.88264  -0.87044  -0.85283
 Alpha  occ. eigenvalues --   -0.84493  -0.82038  -0.80591  -0.79106  -0.77585
 Alpha  occ. eigenvalues --   -0.76393  -0.75561  -0.73901  -0.73569  -0.73240
 Alpha  occ. eigenvalues --   -0.71994  -0.69829  -0.68232  -0.67741  -0.63997
 Alpha  occ. eigenvalues --   -0.62517  -0.61232  -0.61146  -0.60680  -0.59211
 Alpha  occ. eigenvalues --   -0.58268  -0.56951  -0.55212  -0.53402  -0.51556
 Alpha  occ. eigenvalues --   -0.51132  -0.50467  -0.49839  -0.49319  -0.47843
 Alpha  occ. eigenvalues --   -0.46001  -0.45818  -0.45771  -0.44807  -0.44371
 Alpha  occ. eigenvalues --   -0.44032  -0.43066  -0.42418  -0.42024  -0.41866
 Alpha  occ. eigenvalues --   -0.41403  -0.41084  -0.40752  -0.40501  -0.40210
 Alpha  occ. eigenvalues --   -0.39742  -0.39147  -0.38665  -0.38526  -0.38336
 Alpha  occ. eigenvalues --   -0.37768  -0.37443  -0.36529  -0.35217  -0.34982
 Alpha  occ. eigenvalues --   -0.34828  -0.34084  -0.34045  -0.33217  -0.33006
 Alpha  occ. eigenvalues --   -0.32835  -0.31823  -0.30862  -0.29687  -0.28449
 Alpha  occ. eigenvalues --   -0.27797  -0.24837  -0.24619  -0.23952  -0.23811
 Alpha  occ. eigenvalues --   -0.23461  -0.20513  -0.18827
 Alpha virt. eigenvalues --   -0.05851  -0.03953  -0.01322  -0.00359  -0.00233
 Alpha virt. eigenvalues --    0.00431   0.01269   0.04041   0.04801   0.07016
 Alpha virt. eigenvalues --    0.09840   0.10069   0.10255   0.10839   0.10930

 Mulliken charges:
               1
     1  C   -0.530438
     2  C    0.176917
     3  C   -0.175142
     4  C   -0.131701
     5  C   -0.169830
     6  C    0.065574
     7  C    0.030033
     8  C   -0.188357
     9  C   -0.169530
    10  C   -0.034173
    11  C   -0.121869
    12  C    0.118128
    13  C   -0.190159
    14  C   -0.137008
    15  C   -0.137870
    16  C   -0.190015
    17  C    0.157007
    18  C   -0.311156
    19  C    0.088881
    20  C    0.141967
    21  C   -0.533987
    22  C   -0.209449
    23  C   -0.129218
    24  C   -0.195238
    25  C    0.122613
    26  C    0.106451
    27  C   -0.195643
    28  C   -0.131084
    29  C   -0.133316
    30  C   -0.204027
    31  C    0.083035
    32  C   -0.227351
    33  H    0.156929
    34  H    0.165513
    35  H    0.159458
    36  H    0.121861
    37  H    0.129506
    38  H    0.131785
    39  H    0.135440
    40  H    0.138656
    41  H    0.146012
    42  H    0.129304
    43  H    0.128851
    44  H    0.127756
    45  H    0.127881
    46  H    0.156083
    47  H    0.161657
    48  H    0.161914
    49  H    0.120681
    50  H    0.128356
    51  H    0.145184
    52  H    0.146635
    53  H    0.129895
    54  H    0.128362
    55  H    0.145902
    56  H    0.132333
 Sum of Mulliken charges =  -0.00000

 Dipole moment (field-independent basis, Debye):
    X=              0.3437    Y=             -0.1301    Z=             -0.1589  Tot=              0.4004
 Quadrupole moment (field-independent basis, Debye-Ang):
   XX=           -157.7652   YY=           -176.7272   ZZ=           -179.4057
   XY=             -0.5864   XZ=             -0.4192   YZ=              3.9140

 Normal termination of Gaussian 16 at Sat Nov  5 10:25:45 2022.
