 Gaussian 16, Revision B.01,
 Gaussian 16:  ES64L-G16RevB.01 20-Dec-2017

 -------------------------------------------------------------------
 #p b3lyp/6-31g(d) 6D 10F nosymm GFInput td=(50-50,nstate=2) SCF=XQC
 -------------------------------------------------------------------

 ------------------------------
 Gaussian input prepared by ASE
 ------------------------------
 Symbolic Z-matrix:
 Charge =  0 Multiplicity = 1

                          Input orientation:
 ---------------------------------------------------------------------
 Center     Atomic      Atomic             Coordinates (Angstroms)
 Number     Number       Type             X           Y           Z
 ---------------------------------------------------------------------
      1          6           0        8.187345   -0.173664   -1.767281
      2          6           0        7.484298    0.365970   -0.542416
      3          6           0        8.217545    0.790962    0.571867
      4          6           0        7.588710    1.329390    1.700017
      5          6           0        8.400739    1.803355    2.883966
      6          6           0        6.194135    1.430365    1.703818
      7          6           0        5.426052    1.007515    0.607789
      8          6           0        3.944498    1.108592    0.635597
      9          6           0        3.308609    2.229368    1.243884
     10          6           0        1.940918    2.350591    1.258159
     11          6           0        1.112202    1.354823    0.674437
     12          7           0       -0.231630    1.551528    0.701445
     13          6           0       -1.023479    0.641272    0.149913
     14          6           0       -2.486633    0.902567    0.190926
     15          6           0       -2.944864    2.212262    0.433263
     16          6           0       -4.303596    2.509155    0.474515
     17          6           0       -5.232193    1.483420    0.277847
     18          6           0       -4.789982    0.166832    0.045658
     19          6           0       -3.433794   -0.123245    0.001638
     20          6           0       -5.975126   -0.784666   -0.123129
     21          6           0       -5.985734   -1.872552    0.974343
     22          6           0       -5.974272   -1.445480   -1.519887
     23          6           0       -7.151844    0.178180    0.036687
     24          6           0       -8.514348   -0.092399   -0.019708
     25          6           0       -9.426415    0.955116    0.157398
     26          6           0       -8.975377    2.259050    0.388529
     27          6           0       -7.608258    2.537846    0.446494
     28          6           0       -6.698583    1.492761    0.269526
     29          6           0       -0.497516   -0.533335   -0.460391
     30          6           0        0.860462   -0.778480   -0.488577
     31          6           0        1.362435   -2.032127   -1.116466
     32          6           0        2.179975   -2.927881   -0.407110
     33          6           0        2.602900   -4.121259   -0.991908
     34          6           0        2.220668   -4.439716   -2.296529
     35          6           0        1.407708   -3.558575   -3.011318
     36          6           0        0.979987   -2.367308   -2.425253
     37          6           0        1.732582    0.205579    0.085184
     38          6           0        3.147380    0.124127    0.070308
     39          6           0        6.091733    0.478559   -0.509268
     40          1           0        9.074608   -0.756241   -1.495640
     41          1           0        8.523356    0.639886   -2.424084
     42          1           0        7.527194   -0.817273   -2.357873
     43          1           0        9.302538    0.699774    0.560659
     44          1           0        7.818381    1.766346    3.810583
     45          1           0        8.732071    2.841749    2.748616
     46          1           0        9.299654    1.193266    3.024383
     47          1           0        5.694017    1.814242    2.589619
     48          1           0        3.923485    3.016255    1.671057
     49          1           0        1.450724    3.213649    1.697783
     50          1           0       -2.205259    2.989447    0.589101
     51          1           0       -4.630524    3.529797    0.657171
     52          1           0       -3.107297   -1.147778   -0.153107
     53          1           0       -6.875060   -2.506899    0.882239
     54          1           0       -5.103127   -2.517261    0.889685
     55          1           0       -5.986972   -1.424655    1.973108
     56          1           0       -5.092286   -2.084389   -1.645769
     57          1           0       -5.966033   -0.690938   -2.312936
     58          1           0       -6.863906   -2.072083   -1.652749
     59          1           0       -8.875904   -1.102552   -0.198451
     60          1           0      -10.493482    0.753389    0.115079
     61          1           0       -9.695202    3.061925    0.524180
     62          1           0       -7.262413    3.552641    0.626308
     63          1           0       -1.168307   -1.257515   -0.908463
     64          1           0        2.467301   -2.694837    0.614120
     65          1           0        3.227918   -4.805526   -0.424306
     66          1           0        2.553384   -5.368462   -2.752079
     67          1           0        1.107590   -3.796070   -4.028509
     68          1           0        0.356119   -1.678357   -2.988189
     69          1           0        3.616936   -0.740162   -0.385585
     70          1           0        5.513256    0.170128   -1.376448
 ---------------------------------------------------------------------

 SCF Done:  E(RB3LYP) =  -1521.54216185     A.U. after   14 cycles

 Excitation energies and oscillator strengths:

 Excited state symmetry could not be determined.
 Excited State   1:      Triplet-?Sym    2.3888 eV  519.02 nm  f=0.0000  <S**2>=2.000
     131 ->134         0.10293
     132 ->134        -0.18929
     132 ->135         0.14104
     132 ->136         0.10287
     133 ->134         0.60289
 This state for optimization and/or second-order correction.
 Total Energy, E(TD-HF/TD-DFT) =  -1521.45437373
 Copying the excited state density for this state as the 1-particle RhoCI density.

 Excited state symmetry could not be determined.
 Excited State   2:      Triplet-?Sym    2.8688 eV  432.18 nm  f=0.0000  <S**2>=2.000
     128 ->139         0.10260
     131 ->135         0.13129
     132 ->134         0.49046
     133 ->134         0.14568
     133 ->135         0.28871
     133 ->136         0.22530

 Excited state symmetry could not be determined.
 Excited State   3:      Singlet-?Sym    3.3662 eV  368.33 nm  f=0.8691  <S**2>=0.000
     133 ->134         0.69531

 Excited state symmetry could not be determined.
 Excited State   4:      Singlet-?Sym    3.7780 eV  328.18 nm  f=0.0633  <S**2>=0.000
     131 ->134        -0.18404
     132 ->134         0.58114
     133 ->135        -0.31987

 Alpha  occ. eigenvalues --  -14.31889 -10.22846 -10.21909 -10.21344 -10.20573
 Alpha  occ. eigenvalues --  -10.20563 -10.20106 -10.19909 -10.19636 -10.19616
 Alpha  occ. eigenvalues --  -10.19582 -10.19558 -10.19541 -10.19487 -10.19420
 Alpha  occ. eigenvalues --  -10.19398 -10.19328 -10.19283 -10.19043 -10.18933
 Alpha  occ. eigenvalues --  -10.18893 -10.18868 -10.18809 -10.18766 -10.18745
 Alpha  occ. eigenvalues --  -10.18710 -10.18666 -10.18640 -10.18582 -10.18522
 Alpha  occ. eigenvalues --  -10.18484 -10.18248 -10.18221 -10.18123 -10.18073
 Alpha  occ. eigenvalues --  -10.18068 -10.18030 -10.17927 -10.17863  -0.93947
 Alpha  occ. eigenvalues --   -0.88492  -0.86638  -0.86207  -0.84550  -0.83646
 Alpha  occ. eigenvalues --   -0.81282  -0.80926  -0.78378  -0.77738  -0.76835
 Alpha  occ. eigenvalues --   -0.75082  -0.74688  -0.74292  -0.73610  -0.72849
 Alpha  occ. eigenvalues --   -0.72609  -0.70596  -0.68691  -0.68577  -0.67800
 Alpha  occ. eigenvalues --   -0.65017  -0.64508  -0.63012  -0.61737  -0.61086
 Alpha  occ. eigenvalues --   -0.60826  -0.58524  -0.57961  -0.57355  -0.56708
 Alpha  occ. eigenvalues --   -0.56591  -0.54953  -0.52816  -0.51500  -0.50836
 Alpha  occ. eigenvalues --   -0.50497  -0.49469  -0.49040  -0.47397  -0.46976
 Alpha  occ. eigenvalues --   -0.46155  -0.45535  -0.45368  -0.44664  -0.44652
 Alpha  occ. eigenvalues --   -0.43992  -0.43397  -0.42958  -0.42849  -0.42574
 Alpha  occ. eigenvalues --   -0.42491  -0.42272  -0.41935  -0.41858  -0.41280
 Alpha  occ. eigenvalues --   -0.41140  -0.40758  -0.40587  -0.40194  -0.39761
 Alpha  occ. eigenvalues --   -0.39448  -0.39027  -0.38152  -0.37741  -0.37481
 Alpha  occ. eigenvalues --   -0.37289  -0.37027  -0.36472  -0.35989  -0.35616
 Alpha  occ. eigenvalues --   -0.34954  -0.34714  -0.34420  -0.34166  -0.34073
 Alpha  occ. eigenvalues --   -0.33758  -0.33080  -0.32957  -0.32594  -0.31648
 Alpha  occ. eigenvalues --   -0.31429  -0.30189  -0.28329  -0.25672  -0.25593
 Alpha  occ. eigenvalues --   -0.25339  -0.24826  -0.24442  -0.24057  -0.23428
 Alpha  occ. eigenvalues --   -0.23315  -0.21856  -0.19867
 Alpha virt. eigenvalues --   -0.06130  -0.03475  -0.01724  -0.00868  -0.00634
 Alpha virt. eigenvalues --   -0.00486   0.00445   0.01182   0.01492   0.03633
 Alpha virt. eigenvalues --    0.05240   0.08336   0.09179   0.09703   0.10211

 Mulliken charges:
               1
     1  C   -0.529982
     2  C    0.181655
     3  C   -0.233234
     4  C    0.183414
     5  C   -0.530694
     6  C   -0.240847
     7  C    0.100750
     8  C    0.092016
     9  C   -0.175920
    10  C   -0.158308
    11  C    0.252013
    12  N   -0.591753
    13  C    0.258825
    14  C    0.102519
    15  C   -0.173992
    16  C   -0.197354
    17  C    0.088159
    18  C    0.095684
    19  C   -0.263433
    20  C   -0.061591
    21  C   -0.437279
    22  C   -0.437127
    23  C    0.103303
    24  C   -0.203672
    25  C   -0.131258
    26  C   -0.136627
    27  C   -0.191481
    28  C    0.078678
    29  C   -0.233963
    30  C    0.059860
    31  C    0.061725
    32  C   -0.165390
    33  C   -0.135432
    34  C   -0.124620
    35  C   -0.134874
    36  C   -0.162918
    37  C    0.118689
    38  C   -0.275575
    39  C   -0.237046
    40  H    0.156341
    41  H    0.165879
    42  H    0.156779
    43  H    0.112948
    44  H    0.157037
    45  H    0.165351
    46  H    0.156779
    47  H    0.123461
    48  H    0.135319
    49  H    0.141285
    50  H    0.154710
    51  H    0.129783
    52  H    0.128126
    53  H    0.143563
    54  H    0.144476
    55  H    0.159002
    56  H    0.142306
    57  H    0.157668
    58  H    0.143955
    59  H    0.123955
    60  H    0.126818
    61  H    0.127831
    62  H    0.130046
    63  H    0.140701
    64  H    0.146551
    65  H    0.135599
    66  H    0.133064
    67  H    0.134252
    68  H    0.138969
    69  H    0.148127
    70  H    0.126402
 Sum of Mulliken charges =  -0.00000

 Dipole moment (field-independent basis, Debye):
    X=              1.1852    Y=             -2.0132    Z=             -0.9823  Tot=              2.5343
 Quadrupole moment (field-independent basis, Debye-Ang):
   XX=           -194.8263   YY=           -211.9014   ZZ=           -221.6343
   XY=              0.3793   XZ=              3.1911   YZ=              8.3913

 Normal termination of Gaussian 16 at Sat Nov  5 10:33:14 2022.
