 Gaussian 16, Revision B.01,
 Gaussian 16:  ES64L-G16RevB.01 20-Dec-2017

 -----------------------------
 #p b3lyp/6-31g(d) opt SCF=XQC
 -----------------------------

 ------------------------------
 Gaussian input prepared by ASE
 ------------------------------
 Symbolic Z-matrix:
 Charge =  0 Multiplicity = 1

 SCF Done:  E(RB3LYP) =  -1521.53427217     A.U. after   14 cycles
 SCF Done:  E(RB3LYP) =  -1521.54182831     A.U. after   12 cycles
 SCF Done:  E(RB3LYP) =  -1521.54207879     A.U. after   12 cycles
 SCF Done:  E(RB3LYP) =  -1521.54213133     A.U. after   11 cycles
 SCF Done:  E(RB3LYP) =  -1521.54214806     A.U. after   10 cycles
 SCF Done:  E(RB3LYP) =  -1521.54215489     A.U. after   10 cycles
 SCF Done:  E(RB3LYP) =  -1521.54215646     A.U. after    9 cycles
 SCF Done:  E(RB3LYP) =  -1521.54215697     A.U. after    8 cycles
 SCF Done:  E(RB3LYP) =  -1521.54215720     A.U. after    7 cycles
 SCF Done:  E(RB3LYP) =  -1521.54215747     A.U. after    7 cycles
 SCF Done:  E(RB3LYP) =  -1521.54215786     A.U. after    7 cycles
 SCF Done:  E(RB3LYP) =  -1521.54215839     A.U. after    7 cycles
 SCF Done:  E(RB3LYP) =  -1521.54215941     A.U. after    9 cycles
 SCF Done:  E(RB3LYP) =  -1521.54216029     A.U. after    9 cycles
 SCF Done:  E(RB3LYP) =  -1521.54216087     A.U. after    9 cycles
 SCF Done:  E(RB3LYP) =  -1521.54216113     A.U. after    7 cycles
 SCF Done:  E(RB3LYP) =  -1521.54216115     A.U. after    6 cycles
 Optimization completed.
    -- Stationary point found.

                         Standard orientation:
 ---------------------------------------------------------------------
 Center     Atomic      Atomic             Coordinates (Angstroms)
 Number     Number       Type             X           Y           Z
 ---------------------------------------------------------------------
      1          6           0       -8.292209    1.027956   -1.604684
      2          6           0       -7.597170   -0.033571   -0.782580
      3          6           0       -8.338649   -0.957511   -0.036629
      4          6           0       -7.716263   -1.971548    0.699867
      5          6           0       -8.536530   -2.973170    1.480691
      6          6           0       -6.320035   -2.045482    0.688530
      7          6           0       -5.543980   -1.131937   -0.041680
      8          6           0       -4.061189   -1.216701   -0.029966
      9          6           0       -3.410482   -2.484409   -0.031227
     10          6           0       -2.040847   -2.581435   -0.043990
     11          6           0       -1.225123   -1.417973   -0.045958
     12          7           0        0.122131   -1.587334   -0.085090
     13          6           0        0.902379   -0.514621   -0.101680
     14          6           0        2.370117   -0.745799   -0.157187
     15          6           0        2.853307   -2.001394   -0.574336
     16          6           0        4.217447   -2.264938   -0.649625
     17          6           0        5.126123   -1.263444   -0.296894
     18          6           0        4.658631   -0.006615    0.132872
     19          6           0        3.297230    0.252366    0.202479
     20          6           0        5.824955    0.919437    0.480027
     21          6           0        5.793791    1.331832    1.968991
     22          6           0        5.831925    2.178765   -0.415323
     23          6           0        7.020002    0.014967    0.178242
     24          6           0        8.376905    0.294180    0.295144
     25          6           0        9.308999   -0.695632   -0.039512
     26          6           0        8.883314   -1.951152   -0.486234
     27          6           0        7.521956   -2.238353   -0.605896
     28          6           0        6.592304   -1.250702   -0.272247
     29          6           0        0.360397    0.802288   -0.073143
     30          6           0       -1.002052    1.014316   -0.011724
     31          6           0       -1.521523    2.409040    0.040690
     32          6           0       -2.370023    2.834123    1.076685
     33          6           0       -2.809833    4.156115    1.139200
     34          6           0       -2.413815    5.076172    0.166463
     35          6           0       -1.570129    4.666439   -0.867245
     36          6           0       -1.125593    3.345723   -0.927504
     37          6           0       -1.861263   -0.134562   -0.013802
     38          6           0       -3.277097   -0.072473   -0.022166
     39          6           0       -6.203165   -0.132008   -0.774046
     40          1           0       -9.196423    1.393100   -1.105195
     41          1           0       -8.599495    0.635645   -2.583368
     42          1           0       -7.637071    1.885680   -1.788896
     43          1           0       -9.425075   -0.884939   -0.028834
     44          1           0       -7.970117   -3.387284    2.321414
     45          1           0       -8.842543   -3.816512    0.847057
     46          1           0       -9.450889   -2.520000    1.878884
     47          1           0       -5.825846   -2.807693    1.285970
     48          1           0       -4.014558   -3.386680   -0.058419
     49          1           0       -1.538779   -3.543556   -0.070057
     50          1           0        2.128699   -2.763962   -0.836539
     51          1           0        4.563936   -3.240736   -0.980863
     52          1           0        2.950636    1.217915    0.559972
     53          1           0        6.670205    1.940368    2.220714
     54          1           0        4.898586    1.925438    2.188203
     55          1           0        5.788888    0.452824    2.621267
     56          1           0        4.938134    2.787476   -0.234884
     57          1           0        5.853172    1.908301   -1.475855
     58          1           0        6.709474    2.800478   -0.202924
     59          1           0        8.718811    1.266814    0.641792
     60          1           0       10.371876   -0.486746    0.048679
     61          1           0        9.618483   -2.709517   -0.742298
     62          1           0        7.195840   -3.215379   -0.953487
     63          1           0        1.022093    1.660725   -0.093425
     64          1           0       -2.668505    2.128221    1.846352
     65          1           0       -3.458914    4.468253    1.953020
     66          1           0       -2.759663    6.105182    0.214650
     67          1           0       -1.259024    5.374394   -1.630896
     68          1           0       -0.477632    3.027205   -1.739573
     69          1           0       -3.758299    0.898914   -0.009174
     70          1           0       -5.617791    0.567665   -1.365283
 ---------------------------------------------------------------------

 The electronic state is 1-A.
 Alpha  occ. eigenvalues --  -14.31889 -10.22846 -10.21910 -10.21344 -10.20573
 Alpha  occ. eigenvalues --  -10.20563 -10.20106 -10.19909 -10.19636 -10.19616
 Alpha  occ. eigenvalues --  -10.19582 -10.19558 -10.19541 -10.19487 -10.19420
 Alpha  occ. eigenvalues --  -10.19398 -10.19328 -10.19283 -10.19043 -10.18933
 Alpha  occ. eigenvalues --  -10.18893 -10.18868 -10.18809 -10.18766 -10.18745
 Alpha  occ. eigenvalues --  -10.18710 -10.18666 -10.18640 -10.18582 -10.18522
 Alpha  occ. eigenvalues --  -10.18484 -10.18248 -10.18221 -10.18123 -10.18073
 Alpha  occ. eigenvalues --  -10.18068 -10.18030 -10.17927 -10.17863  -0.93947
 Alpha  occ. eigenvalues --   -0.88492  -0.86638  -0.86207  -0.84550  -0.83646
 Alpha  occ. eigenvalues --   -0.81282  -0.80926  -0.78378  -0.77738  -0.76835
 Alpha  occ. eigenvalues --   -0.75082  -0.74688  -0.74292  -0.73610  -0.72849
 Alpha  occ. eigenvalues --   -0.72609  -0.70596  -0.68691  -0.68577  -0.67800
 Alpha  occ. eigenvalues --   -0.65017  -0.64508  -0.63012  -0.61737  -0.61086
 Alpha  occ. eigenvalues --   -0.60826  -0.58524  -0.57961  -0.57355  -0.56708
 Alpha  occ. eigenvalues --   -0.56591  -0.54953  -0.52816  -0.51500  -0.50836
 Alpha  occ. eigenvalues --   -0.50497  -0.49469  -0.49040  -0.47396  -0.46976
 Alpha  occ. eigenvalues --   -0.46155  -0.45535  -0.45368  -0.44664  -0.44652
 Alpha  occ. eigenvalues --   -0.43992  -0.43397  -0.42958  -0.42849  -0.42574
 Alpha  occ. eigenvalues --   -0.42491  -0.42272  -0.41935  -0.41858  -0.41280
 Alpha  occ. eigenvalues --   -0.41140  -0.40758  -0.40587  -0.40194  -0.39761
 Alpha  occ. eigenvalues --   -0.39448  -0.39027  -0.38152  -0.37741  -0.37481
 Alpha  occ. eigenvalues --   -0.37289  -0.37027  -0.36472  -0.35989  -0.35616
 Alpha  occ. eigenvalues --   -0.34954  -0.34714  -0.34420  -0.34166  -0.34073
 Alpha  occ. eigenvalues --   -0.33758  -0.33080  -0.32957  -0.32594  -0.31648
 Alpha  occ. eigenvalues --   -0.31429  -0.30189  -0.28329  -0.25672  -0.25593
 Alpha  occ. eigenvalues --   -0.25339  -0.24826  -0.24442  -0.24057  -0.23428
 Alpha  occ. eigenvalues --   -0.23315  -0.21856  -0.19867
 Alpha virt. eigenvalues --   -0.06130  -0.03475  -0.01724  -0.00868  -0.00634
 Alpha virt. eigenvalues --   -0.00486   0.00445   0.01182   0.01492   0.03633
 Alpha virt. eigenvalues --    0.05240   0.08336   0.09179   0.09703   0.10211

 Mulliken charges:
               1
     1  C   -0.529982
     2  C    0.181648
     3  C   -0.233220
     4  C    0.183407
     5  C   -0.530695
     6  C   -0.240842
     7  C    0.100753
     8  C    0.092015
     9  C   -0.175919
    10  C   -0.158306
    11  C    0.251987
    12  N   -0.591731
    13  C    0.258793
    14  C    0.102523
    15  C   -0.173994
    16  C   -0.197356
    17  C    0.088163
    18  C    0.095673
    19  C   -0.263434
    20  C   -0.061567
    21  C   -0.437275
    22  C   -0.437122
    23  C    0.103278
    24  C   -0.203670
    25  C   -0.131254
    26  C   -0.136627
    27  C   -0.191486
    28  C    0.078685
    29  C   -0.233939
    30  C    0.059838
    31  C    0.061703
    32  C   -0.165366
    33  C   -0.135441
    34  C   -0.124626
    35  C   -0.134867
    36  C   -0.162911
    37  C    0.118724
    38  C   -0.275579
    39  C   -0.237053
    40  H    0.156341
    41  H    0.165879
    42  H    0.156779
    43  H    0.112946
    44  H    0.157038
    45  H    0.165351
    46  H    0.156778
    47  H    0.123460
    48  H    0.135319
    49  H    0.141284
    50  H    0.154711
    51  H    0.129783
    52  H    0.128126
    53  H    0.143561
    54  H    0.144474
    55  H    0.159001
    56  H    0.142304
    57  H    0.157668
    58  H    0.143953
    59  H    0.123956
    60  H    0.126818
    61  H    0.127831
    62  H    0.130046
    63  H    0.140699
    64  H    0.146549
    65  H    0.135600
    66  H    0.133065
    67  H    0.134251
    68  H    0.138969
    69  H    0.148126
    70  H    0.126406
 Sum of Mulliken charges =  -0.00000

 Dipole moment (field-independent basis, Debye):
    X=             -1.2135    Y=              2.2228    Z=              0.0974  Tot=              2.5343
 Quadrupole moment (field-independent basis, Debye-Ang):
   XX=           -194.4398   YY=           -206.5527   ZZ=           -226.5643
   XY=              1.6135   XZ=             -1.8869   YZ=             -0.0726

 1\1\GINC-NODE49\FOpt\RB3LYP\6-31G(d)\C38H31N1\WYKGROUP\05-Nov-2022\0\\
 #p b3lyp/6-31g(d) opt SCF=XQC\\Gaussian input prepared by ASE\\0,1\C,8
 .1873449556,-0.1736636065,-1.7672814529\C,7.484297882,0.3659700096,-0.
 5424162415\C,8.2175454817,0.790962491,0.5718671276\C,7.5887097149,1.32
 93904903,1.7000166451\C,8.4007393889,1.8033545549,2.8839660495\C,6.194
 1351448,1.4303646581,1.7038178508\C,5.4260519779,1.0075151348,0.607789
 4943\C,3.9444977845,1.1085921964,0.6355973576\C,3.3086094181,2.2293676
 699,1.2438836699\C,1.9409177174,2.3505912045,1.2581590702\C,1.11220217

 Normal termination of Gaussian 16 at Sat Nov  5 00:51:40 2022.
