 Gaussian 16, Revision B.01,
 Gaussian 16:  ES64L-G16RevB.01 20-Dec-2017

 -----------------------------
 #p b3lyp/6-31g(d) opt SCF=XQC
 -----------------------------

 ------------------------------
 Gaussian input prepared by ASE
 ------------------------------
 Symbolic Z-matrix:
 Charge =  0 Multiplicity = 1

 SCF Done:  E(RB3LYP) =  -1160.08136702     A.U. after   14 cycles
 SCF Done:  E(RB3LYP) =  -1160.08906713     A.U. after   12 cycles
 SCF Done:  E(RB3LYP) =  -1160.08946137     A.U. after   11 cycles
 SCF Done:  E(RB3LYP) =  -1160.08955371     A.U. after   11 cycles
 SCF Done:  E(RB3LYP) =  -1160.08960347     A.U. after    9 cycles
 SCF Done:  E(RB3LYP) =  -1160.08961617     A.U. after   10 cycles
 SCF Done:  E(RB3LYP) =  -1160.08962790     A.U. after    9 cycles
 SCF Done:  E(RB3LYP) =  -1160.08963801     A.U. after   10 cycles
 SCF Done:  E(RB3LYP) =  -1160.08964276     A.U. after    9 cycles
 SCF Done:  E(RB3LYP) =  -1160.08964301     A.U. after    7 cycles
 Optimization completed.
    -- Stationary point found.

                         Standard orientation:
 ---------------------------------------------------------------------
 Center     Atomic      Atomic             Coordinates (Angstroms)
 Number     Number       Type             X           Y           Z
 ---------------------------------------------------------------------
      1          6           0        1.244385   -1.057783   -1.230182
      2          6           0        1.625153   -0.073069   -0.141373
      3          6           0        2.924102   -0.086569    0.415208
      4          6           0        3.952992   -1.105761    0.053628
      5          6           0        3.710845   -2.481682    0.198246
      6          6           0        4.699396   -3.419453   -0.098653
      7          6           0        5.953542   -3.001062   -0.547661
      8          6           0        6.211054   -1.637131   -0.693689
      9          6           0        5.221513   -0.700639   -0.393578
     10          6           0        3.277400    0.901044    1.345949
     11          6           0        2.374882    1.886717    1.719438
     12          6           0        1.079296    1.916745    1.190768
     13          6           0        0.698067    0.914032    0.276084
     14          6           0       -0.698067    0.914032   -0.276084
     15          6           0       -1.079296    1.916745   -1.190768
     16          6           0       -2.374882    1.886717   -1.719438
     17          6           0       -3.277400    0.901044   -1.345949
     18          6           0       -2.924102   -0.086569   -0.415208
     19          6           0       -3.952992   -1.105761   -0.053628
     20          6           0       -5.221513   -0.700639    0.393577
     21          6           0       -6.211054   -1.637131    0.693689
     22          6           0       -5.953542   -3.001062    0.547660
     23          6           0       -4.699396   -3.419453    0.098653
     24          6           0       -3.710845   -2.481682   -0.198245
     25          6           0       -1.625153   -0.073069    0.141373
     26          6           0       -1.244385   -1.057783    1.230182
     27          6           0       -0.168256    3.066584   -1.577641
     28          6           0       -0.361091    4.315749   -0.679133
     29          6           0        0.361091    4.315749    0.679133
     30          6           0        0.168256    3.066584    1.577641
     31          1           0        0.785211   -1.970242   -0.828771
     32          1           0        0.521871   -0.616762   -1.921346
     33          1           0        2.122407   -1.369984   -1.800973
     34          1           0        2.744524   -2.816188    0.565023
     35          1           0        4.491327   -4.478892    0.027605
     36          1           0        6.723468   -3.731898   -0.780299
     37          1           0        7.182969   -1.300032   -1.044939
     38          1           0        5.424053    0.359911   -0.518055
     39          1           0        4.270902    0.880450    1.785831
     40          1           0        2.674601    2.646605    2.438164
     41          1           0       -2.674601    2.646605   -2.438164
     42          1           0       -4.270902    0.880450   -1.785831
     43          1           0       -5.424053    0.359911    0.518054
     44          1           0       -7.182969   -1.300032    1.044938
     45          1           0       -6.723468   -3.731898    0.780298
     46          1           0       -4.491326   -4.478892   -0.027604
     47          1           0       -2.744524   -2.816187   -0.565022
     48          1           0       -0.521872   -0.616762    1.921346
     49          1           0       -0.785211   -1.970242    0.828771
     50          1           0       -2.122407   -1.369984    1.800973
     51          1           0        0.883091    2.759748   -1.570063
     52          1           0       -0.403285    3.355638   -2.609444
     53          1           0       -1.438654    4.456127   -0.518454
     54          1           0       -0.018583    5.199189   -1.234490
     55          1           0        0.018583    5.199189    1.234490
     56          1           0        1.438654    4.456127    0.518454
     57          1           0        0.403285    3.355638    2.609444
     58          1           0       -0.883091    2.759748    1.570063
 ---------------------------------------------------------------------

 The electronic state is 1-A.
 Alpha  occ. eigenvalues --  -10.19458 -10.19458 -10.19423 -10.19423 -10.18970
 Alpha  occ. eigenvalues --  -10.18970 -10.18872 -10.18869 -10.18804 -10.18790
 Alpha  occ. eigenvalues --  -10.18790 -10.18780 -10.18765 -10.18765 -10.18704
 Alpha  occ. eigenvalues --  -10.18704 -10.18632 -10.18632 -10.18594 -10.18594
 Alpha  occ. eigenvalues --  -10.18180 -10.18180 -10.18078 -10.18072 -10.18060
 Alpha  occ. eigenvalues --  -10.18045 -10.17932 -10.17932 -10.17205 -10.17205
 Alpha  occ. eigenvalues --   -0.87229  -0.86007  -0.84924  -0.83684  -0.80524
 Alpha  occ. eigenvalues --   -0.78351  -0.77826  -0.76349  -0.74732  -0.74045
 Alpha  occ. eigenvalues --   -0.74018  -0.73533  -0.72569  -0.68435  -0.68341
 Alpha  occ. eigenvalues --   -0.67095  -0.65228  -0.61016  -0.60796  -0.60130
 Alpha  occ. eigenvalues --   -0.59523  -0.59416  -0.57523  -0.55977  -0.55820
 Alpha  occ. eigenvalues --   -0.54407  -0.52014  -0.50721  -0.48331  -0.48094
 Alpha  occ. eigenvalues --   -0.47962  -0.46563  -0.45692  -0.45290  -0.44490
 Alpha  occ. eigenvalues --   -0.44086  -0.44057  -0.43189  -0.43057  -0.41914
 Alpha  occ. eigenvalues --   -0.41725  -0.41362  -0.40872  -0.40820  -0.40334
 Alpha  occ. eigenvalues --   -0.39860  -0.39578  -0.39542  -0.39172  -0.37632
 Alpha  occ. eigenvalues --   -0.37245  -0.36455  -0.36244  -0.35654  -0.35500
 Alpha  occ. eigenvalues --   -0.35041  -0.34706  -0.34213  -0.33893  -0.33692
 Alpha  occ. eigenvalues --   -0.32741  -0.32438  -0.32345  -0.31489  -0.31335
 Alpha  occ. eigenvalues --   -0.30754  -0.25508  -0.25384  -0.24712  -0.24701
 Alpha  occ. eigenvalues --   -0.24054  -0.22939  -0.21868  -0.21828
 Alpha virt. eigenvalues --   -0.02087  -0.01356  -0.01008   0.00148   0.00374
 Alpha virt. eigenvalues --    0.01147   0.02639   0.02703   0.07967   0.09685
 Alpha virt. eigenvalues --    0.09717   0.10885   0.11250   0.12361   0.12815

 Mulliken charges:
               1
     1  C   -0.539623
     2  C    0.123842
     3  C    0.013025
     4  C    0.057597
     5  C   -0.159858
     6  C   -0.133272
     7  C   -0.127502
     8  C   -0.133335
     9  C   -0.166759
    10  C   -0.157912
    11  C   -0.200920
    12  C    0.163154
    13  C   -0.087942
    14  C   -0.087942
    15  C    0.163154
    16  C   -0.200920
    17  C   -0.157912
    18  C    0.013025
    19  C    0.057597
    20  C   -0.166759
    21  C   -0.133335
    22  C   -0.127502
    23  C   -0.133272
    24  C   -0.159858
    25  C    0.123842
    26  C   -0.539623
    27  C   -0.352220
    28  C   -0.251621
    29  C   -0.251621
    30  C   -0.352220
    31  H    0.155621
    32  H    0.167473
    33  H    0.167222
    34  H    0.130976
    35  H    0.129084
    36  H    0.128487
    37  H    0.129247
    38  H    0.131948
    39  H    0.130785
    40  H    0.121057
    41  H    0.121057
    42  H    0.130785
    43  H    0.131948
    44  H    0.129247
    45  H    0.128487
    46  H    0.129084
    47  H    0.130976
    48  H    0.167473
    49  H    0.155621
    50  H    0.167222
    51  H    0.153278
    52  H    0.139262
    53  H    0.137247
    54  H    0.131660
    55  H    0.131660
    56  H    0.137247
    57  H    0.139262
    58  H    0.153278
 Sum of Mulliken charges =  -0.00000

 Dipole moment (field-independent basis, Debye):
    X=              0.0000    Y=              0.2332    Z=             -0.0000  Tot=              0.2332
 Quadrupole moment (field-independent basis, Debye-Ang):
   XX=           -164.1077   YY=           -161.7647   ZZ=           -177.7844
   XY=             -0.0000   XZ=             -2.4843   YZ=             -0.0000

 Normal termination of Gaussian 16 at Sat Nov  5 00:36:31 2022.
