 Gaussian 16, Revision B.01,
 Gaussian 16:  ES64L-G16RevB.01 20-Dec-2017

 -------------------------------------------------------------------
 #p b3lyp/6-31g(d) 6D 10F nosymm GFInput td=(50-50,nstate=2) SCF=XQC
 -------------------------------------------------------------------

 ------------------------------
 Gaussian input prepared by ASE
 ------------------------------
 Symbolic Z-matrix:
 Charge =  0 Multiplicity = 1

                          Input orientation:
 ---------------------------------------------------------------------
 Center     Atomic      Atomic             Coordinates (Angstroms)
 Number     Number       Type             X           Y           Z
 ---------------------------------------------------------------------
      1          6           0        0.940791   -1.095272   -1.520042
      2          6           0        1.487331    0.049975   -0.689467
      3          6           0        2.879111    0.285541   -0.620995
      4          6           0        3.887667   -0.609705   -1.260881
      5          6           0        3.950350   -1.981053   -0.963924
      6          6           0        4.929089   -2.794754   -1.533800
      7          6           0        5.867780   -2.254014   -2.414709
      8          6           0        5.820935   -0.892410   -2.717672
      9          6           0        4.842576   -0.079748   -2.144373
     10          6           0        3.346776    1.411927    0.071119
     11          6           0        2.465062    2.293675    0.679957
     12          6           0        1.082876    2.077981    0.635497
     13          6           0        0.597337    0.934548   -0.031007
     14          6           0       -0.880638    0.672268   -0.060701
     15          6           0       -1.713839    1.500687   -0.839749
     16          6           0       -3.085614    1.225941   -0.880839
     17          6           0       -3.625574    0.169348   -0.161370
     18          6           0       -2.815483   -0.646424    0.641593
     19          6           0       -3.470664   -1.755435    1.395871
     20          6           0       -4.566037   -1.488713    2.233892
     21          6           0       -5.219694   -2.517678    2.912302
     22          6           0       -4.793636   -3.838267    2.762426
     23          6           0       -3.709880   -4.120301    1.928477
     24          6           0       -3.056286   -3.089858    1.253347
     25          6           0       -1.428383   -0.384310    0.708549
     26          6           0       -0.540423   -1.175519    1.649647
     27          6           0       -1.198927    2.718415   -1.583923
     28          6           0       -1.293219    4.020038   -0.746188
     29          6           0       -0.169529    4.276310    0.272675
     30          6           0        0.169291    3.121430    1.250615
     31          1           0        0.808107   -2.013166   -0.933169
     32          1           0       -0.036283   -0.842949   -1.939437
     33          1           0        1.616998   -1.340519   -2.342717
     34          1           0        3.236161   -2.407285   -0.265028
     35          1           0        4.962320   -3.852096   -1.283665
     36          1           0        6.629674   -2.888368   -2.859837
     37          1           0        6.545054   -0.461081   -3.404138
     38          1           0        4.804628    0.978094   -2.390976
     39          1           0        4.417808    1.583598    0.137333
     40          1           0        2.851588    3.164629    1.205187
     41          1           0       -3.735608    1.849320   -1.491357
     42          1           0       -4.689466   -0.042822   -0.225272
     43          1           0       -4.895804   -0.460966    2.361461
     44          1           0       -6.060694   -2.286097    3.560933
     45          1           0       -5.302134   -4.641114    3.289582
     46          1           0       -3.375781   -5.146362    1.797252
     47          1           0       -2.226117   -3.321437    0.591994
     48          1           0        0.283740   -0.560566    2.019543
     49          1           0       -0.091370   -2.051991    1.165188
     50          1           0       -1.108383   -1.544220    2.507363
     51          1           0       -0.169453    2.568325   -1.926256
     52          1           0       -1.812217    2.852919   -2.483475
     53          1           0       -2.261776    4.021616   -0.227959
     54          1           0       -1.315107    4.875361   -1.434769
     55          1           0       -0.453948    5.158287    0.862099
     56          1           0        0.750357    4.550788   -0.261310
     57          1           0        0.682359    3.555356    2.117723
     58          1           0       -0.753797    2.668122    1.627386
 ---------------------------------------------------------------------

 SCF Done:  E(RB3LYP) =  -1160.08963483     A.U. after   14 cycles

 Excitation energies and oscillator strengths:

 Excited state symmetry could not be determined.
 Excited State   1:      Triplet-?Sym    3.3718 eV  367.71 nm  f=0.0000  <S**2>=2.000
      97 ->111         0.12550
      98 ->112        -0.11874
      99 ->109         0.11365
     100 ->108         0.10952
     101 ->110        -0.17013
     102 ->107        -0.28225
     103 ->105         0.40994
     104 ->106         0.36291
 This state for optimization and/or second-order correction.
 Total Energy, E(TD-HF/TD-DFT) =  -1159.96572370
 Copying the excited state density for this state as the 1-particle RhoCI density.

 Excited state symmetry could not be determined.
 Excited State   2:      Triplet-?Sym    3.4282 eV  361.66 nm  f=0.0000  <S**2>=2.000
      97 ->112        -0.12376
      98 ->111         0.13170
      99 ->108         0.13454
     100 ->109         0.13942
     101 ->106        -0.11773
     101 ->107        -0.18056
     102 ->105         0.12715
     102 ->110        -0.16158
     103 ->106         0.33299
     103 ->107        -0.14576
     104 ->105         0.41043

 Excited state symmetry could not be determined.
 Excited State   3:      Singlet-?Sym    4.7369 eV  261.74 nm  f=0.0085  <S**2>=0.000
     101 ->106        -0.11996
     102 ->105        -0.35552
     103 ->106        -0.25149
     103 ->107        -0.34530
     104 ->105         0.37321
     104 ->110        -0.12080

 Excited state symmetry could not be determined.
 Excited State   4:      Singlet-?Sym    4.8464 eV  255.83 nm  f=0.0125  <S**2>=0.000
     101 ->105         0.24738
     102 ->106         0.28061
     103 ->105         0.29094
     104 ->107         0.47746

 Alpha  occ. eigenvalues --  -10.19459 -10.19458 -10.19422 -10.19422 -10.18970
 Alpha  occ. eigenvalues --  -10.18970 -10.18871 -10.18869 -10.18804 -10.18790
 Alpha  occ. eigenvalues --  -10.18790 -10.18780 -10.18766 -10.18766 -10.18704
 Alpha  occ. eigenvalues --  -10.18704 -10.18632 -10.18632 -10.18594 -10.18594
 Alpha  occ. eigenvalues --  -10.18180 -10.18180 -10.18078 -10.18072 -10.18060
 Alpha  occ. eigenvalues --  -10.18045 -10.17932 -10.17932 -10.17205 -10.17205
 Alpha  occ. eigenvalues --   -0.87229  -0.86007  -0.84924  -0.83684  -0.80524
 Alpha  occ. eigenvalues --   -0.78351  -0.77826  -0.76349  -0.74732  -0.74045
 Alpha  occ. eigenvalues --   -0.74018  -0.73533  -0.72569  -0.68435  -0.68341
 Alpha  occ. eigenvalues --   -0.67095  -0.65228  -0.61015  -0.60796  -0.60130
 Alpha  occ. eigenvalues --   -0.59523  -0.59416  -0.57523  -0.55977  -0.55820
 Alpha  occ. eigenvalues --   -0.54407  -0.52014  -0.50721  -0.48331  -0.48094
 Alpha  occ. eigenvalues --   -0.47962  -0.46563  -0.45692  -0.45290  -0.44490
 Alpha  occ. eigenvalues --   -0.44086  -0.44057  -0.43189  -0.43057  -0.41914
 Alpha  occ. eigenvalues --   -0.41725  -0.41362  -0.40872  -0.40820  -0.40334
 Alpha  occ. eigenvalues --   -0.39860  -0.39578  -0.39542  -0.39172  -0.37632
 Alpha  occ. eigenvalues --   -0.37245  -0.36455  -0.36244  -0.35654  -0.35500
 Alpha  occ. eigenvalues --   -0.35041  -0.34706  -0.34213  -0.33893  -0.33692
 Alpha  occ. eigenvalues --   -0.32741  -0.32438  -0.32345  -0.31489  -0.31335
 Alpha  occ. eigenvalues --   -0.30754  -0.25508  -0.25384  -0.24712  -0.24701
 Alpha  occ. eigenvalues --   -0.24054  -0.22939  -0.21868  -0.21828
 Alpha virt. eigenvalues --   -0.02087  -0.01356  -0.01008   0.00148   0.00374
 Alpha virt. eigenvalues --    0.01147   0.02639   0.02703   0.07967   0.09685
 Alpha virt. eigenvalues --    0.09717   0.10885   0.11250   0.12361   0.12815

 Mulliken charges:
               1
     1  C   -0.539642
     2  C    0.123839
     3  C    0.013030
     4  C    0.057607
     5  C   -0.159864
     6  C   -0.133279
     7  C   -0.127494
     8  C   -0.133337
     9  C   -0.166769
    10  C   -0.157909
    11  C   -0.200915
    12  C    0.163104
    13  C   -0.087881
    14  C   -0.087931
    15  C    0.163104
    16  C   -0.200915
    17  C   -0.157914
    18  C    0.013021
    19  C    0.057612
    20  C   -0.166768
    21  C   -0.133336
    22  C   -0.127500
    23  C   -0.133271
    24  C   -0.159867
    25  C    0.123910
    26  C   -0.539648
    27  C   -0.352206
    28  C   -0.251651
    29  C   -0.251608
    30  C   -0.352235
    31  H    0.155623
    32  H    0.167476
    33  H    0.167223
    34  H    0.130977
    35  H    0.129085
    36  H    0.128486
    37  H    0.129247
    38  H    0.131950
    39  H    0.130784
    40  H    0.121056
    41  H    0.121056
    42  H    0.130784
    43  H    0.131948
    44  H    0.129247
    45  H    0.128486
    46  H    0.129084
    47  H    0.130976
    48  H    0.167471
    49  H    0.155623
    50  H    0.167221
    51  H    0.153274
    52  H    0.139263
    53  H    0.137253
    54  H    0.131666
    55  H    0.131662
    56  H    0.137247
    57  H    0.139265
    58  H    0.153279
 Sum of Mulliken charges =  -0.00000

 Dipole moment (field-independent basis, Debye):
    X=             -0.0404    Y=              0.2294    Z=             -0.0131  Tot=              0.2333
 Quadrupole moment (field-independent basis, Debye-Ang):
   XX=           -167.1134   YY=           -162.1387   ZZ=           -174.4497
   XY=             -1.2848   XZ=             -6.1245   YZ=             -1.8012

 Normal termination of Gaussian 16 at Sat Nov  5 10:26:56 2022.
