 Gaussian 16, Revision B.01,
 Gaussian 16:  ES64L-G16RevB.01 20-Dec-2017

 -------------------------------------------------------------------
 #p b3lyp/6-31g(d) 6D 10F nosymm GFInput td=(50-50,nstate=2) SCF=XQC
 -------------------------------------------------------------------

 ------------------------------
 Gaussian input prepared by ASE
 ------------------------------
 Symbolic Z-matrix:
 Charge =  0 Multiplicity = 1

                          Input orientation:
 ---------------------------------------------------------------------
 Center     Atomic      Atomic             Coordinates (Angstroms)
 Number     Number       Type             X           Y           Z
 ---------------------------------------------------------------------
      1          6           0        1.504100   -1.437765    0.203332
      2          6           0        0.463308   -0.600207    0.008365
      3          6           0       -0.959834   -0.931240    0.072250
      4          6           0       -1.444777   -2.240558    0.333293
      5          6           0       -2.796554   -2.487141    0.382777
      6          6           0       -3.747152   -1.457423    0.176743
      7          6           0       -5.151842   -1.728905    0.230935
      8          6           0       -6.066687   -0.740708    0.032508
      9          6           0       -5.656698    0.606946   -0.237949
     10          6           0       -6.617367    1.625065   -0.442420
     11          6           0       -6.234371    2.925471   -0.703460
     12          6           0       -4.865374    3.245750   -0.767606
     13          6           0       -3.907741    2.267207   -0.571036
     14          6           0       -4.266504    0.925790   -0.301819
     15          6           0       -3.287344   -0.133938   -0.088955
     16          6           0       -1.894620    0.084693   -0.132652
     17          6           0        2.930280   -1.108389    0.138308
     18          6           0        3.872808   -2.135070    0.451560
     19          6           0        5.226032   -1.906307    0.417982
     20          6           0        5.742518   -0.630919    0.065863
     21          6           0        7.133873   -0.354099    0.019290
     22          6           0        7.592931    0.896598   -0.329201
     23          6           0        6.676635    1.929928   -0.648462
     24          6           0        5.321731    1.693351   -0.612899
     25          6           0        4.813175    0.412808   -0.255929
     26          6           0        3.424914    0.142063   -0.211412
     27          1           0        1.298181   -2.479695    0.443322
     28          1           0        0.669206    0.445036   -0.218422
     29          1           0       -0.747761   -3.057005    0.493785
     30          1           0       -3.157375   -3.493427    0.583046
     31          1           0       -5.473816   -2.747243    0.435220
     32          1           0       -7.131456   -0.956714    0.075733
     33          1           0       -7.671508    1.362680   -0.389832
     34          1           0       -6.982978    3.697523   -0.858524
     35          1           0       -4.556769    4.267291   -0.972595
     36          1           0       -2.861206    2.546834   -0.626951
     37          1           0       -1.515782    1.081996   -0.332461
     38          1           0        3.498283   -3.118963    0.724424
     39          1           0        5.922253   -2.705311    0.662197
     40          1           0        7.833815   -1.149637    0.264492
     41          1           0        8.660507    1.096544   -0.361158
     42          1           0        7.050682    2.912786   -0.922296
     43          1           0        4.617562    2.485255   -0.857599
     44          1           0        2.742721    0.949051   -0.465917
 ---------------------------------------------------------------------

 SCF Done:  E(RB3LYP) =  -1001.64449918     A.U. after   14 cycles

 Excitation energies and oscillator strengths:

 Excited state symmetry could not be determined.
 Excited State   1:      Triplet-?Sym    1.9776 eV  626.95 nm  f=0.0000  <S**2>=2.000
      84 -> 91        -0.10434
      86 -> 89        -0.17374
      87 -> 88         0.65252
      87 <- 88         0.10080
 This state for optimization and/or second-order correction.
 Total Energy, E(TD-HF/TD-DFT) =  -1001.57182439
 Copying the excited state density for this state as the 1-particle RhoCI density.

 Excited state symmetry could not be determined.
 Excited State   2:      Triplet-?Sym    2.6347 eV  470.59 nm  f=0.0000  <S**2>=2.000
      84 -> 89        -0.15791
      85 -> 90         0.17690
      86 -> 88         0.44865
      86 -> 91        -0.15413
      87 -> 89        -0.39643

 Excited state symmetry could not be determined.
 Excited State   3:      Singlet-?Sym    3.2831 eV  377.64 nm  f=1.1110  <S**2>=0.000
      87 -> 88         0.70288

 Excited state symmetry could not be determined.
 Excited State   4:      Singlet-?Sym    3.6345 eV  341.13 nm  f=0.0028  <S**2>=0.000
      85 -> 88        -0.38459
      85 -> 89         0.10749
      86 -> 88        -0.30898
      86 -> 90         0.10060
      87 -> 89        -0.19989
      87 -> 90         0.42382

 Alpha  occ. eigenvalues --  -10.20142 -10.20126 -10.20101 -10.20072 -10.19819
 Alpha  occ. eigenvalues --  -10.19816 -10.19768 -10.19678 -10.19397 -10.19314
 Alpha  occ. eigenvalues --  -10.19176 -10.19146 -10.19134 -10.19110 -10.19097
 Alpha  occ. eigenvalues --  -10.19091 -10.19090 -10.19088 -10.19074 -10.19073
 Alpha  occ. eigenvalues --  -10.19054 -10.19030 -10.19022 -10.19015 -10.19005
 Alpha  occ. eigenvalues --  -10.19002  -0.88084  -0.87269  -0.85063  -0.82902
 Alpha  occ. eigenvalues --   -0.81304  -0.78636  -0.77420  -0.76958  -0.75493
 Alpha  occ. eigenvalues --   -0.73360  -0.72344  -0.72059  -0.70087  -0.64610
 Alpha  occ. eigenvalues --   -0.63216  -0.62152  -0.61326  -0.60133  -0.59660
 Alpha  occ. eigenvalues --   -0.58644  -0.56136  -0.53173  -0.52067  -0.51247
 Alpha  occ. eigenvalues --   -0.51028  -0.49684  -0.48612  -0.47604  -0.46968
 Alpha  occ. eigenvalues --   -0.44777  -0.44238  -0.43940  -0.42937  -0.42522
 Alpha  occ. eigenvalues --   -0.42362  -0.41858  -0.41377  -0.41108  -0.40014
 Alpha  occ. eigenvalues --   -0.39988  -0.39500  -0.39035  -0.37446  -0.36777
 Alpha  occ. eigenvalues --   -0.36416  -0.36088  -0.35326  -0.34076  -0.33853
 Alpha  occ. eigenvalues --   -0.33245  -0.32720  -0.32430  -0.32050  -0.29404
 Alpha  occ. eigenvalues --   -0.28409  -0.27816  -0.25854  -0.23221  -0.22403
 Alpha  occ. eigenvalues --   -0.21727  -0.19242
 Alpha virt. eigenvalues --   -0.06300  -0.03343  -0.03177  -0.01739   0.00881
 Alpha virt. eigenvalues --    0.02778   0.03613   0.05504   0.09052   0.09277
 Alpha virt. eigenvalues --    0.09422   0.09772   0.10686   0.11178   0.11661

 Mulliken charges:
               1
     1  C   -0.199546
     2  C   -0.182833
     3  C    0.193837
     4  C   -0.180254
     5  C   -0.209853
     6  C    0.148678
     7  C   -0.196415
     8  C   -0.192622
     9  C    0.140057
    10  C   -0.206560
    11  C   -0.127275
    12  C   -0.139512
    13  C   -0.184924
    14  C    0.060559
    15  C    0.067522
    16  C   -0.287913
    17  C    0.186408
    18  C   -0.197802
    19  C   -0.195405
    20  C    0.138230
    21  C   -0.191646
    22  C   -0.135260
    23  C   -0.137101
    24  C   -0.188295
    25  C    0.145229
    26  C   -0.270107
    27  H    0.127485
    28  H    0.128011
    29  H    0.130582
    30  H    0.131010
    31  H    0.130535
    32  H    0.130469
    33  H    0.130043
    34  H    0.130610
    35  H    0.129993
    36  H    0.134062
    37  H    0.132918
    38  H    0.127564
    39  H    0.130730
    40  H    0.129794
    41  H    0.130366
    42  H    0.130299
    43  H    0.128991
    44  H    0.129340
 Sum of Mulliken charges =  -0.00000

 Dipole moment (field-independent basis, Debye):
    X=             -0.0779    Y=              0.0763    Z=             -0.0131  Tot=              0.1098
 Quadrupole moment (field-independent basis, Debye-Ang):
   XX=           -128.0535   YY=           -131.2780   ZZ=           -157.0877
   XY=             -0.1367   XZ=              0.2959   YZ=             -6.4316

 Normal termination of Gaussian 16 at Sat Nov  5 10:14:06 2022.
