 Gaussian 16, Revision B.01,
 Gaussian 16:  ES64L-G16RevB.01 20-Dec-2017

 -----------------------------
 #p b3lyp/6-31g(d) opt SCF=XQC
 -----------------------------

 ------------------------------
 Gaussian input prepared by ASE
 ------------------------------
 Symbolic Z-matrix:
 Charge =  0 Multiplicity = 1

 SCF Done:  E(RB3LYP) =  -1001.64058997     A.U. after   14 cycles
 SCF Done:  E(RB3LYP) =  -1001.64443655     A.U. after   11 cycles
 SCF Done:  E(RB3LYP) =  -1001.64450460     A.U. after    9 cycles
 SCF Done:  E(RB3LYP) =  -1001.64450605     A.U. after    8 cycles
 Optimization completed.
    -- Stationary point found.

                         Standard orientation:
 ---------------------------------------------------------------------
 Center     Atomic      Atomic             Coordinates (Angstroms)
 Number     Number       Type             X           Y           Z
 ---------------------------------------------------------------------
      1          6           0        1.650613   -1.342848    0.000840
      2          6           0        0.560166   -0.546856   -0.008470
      3          6           0       -0.840201   -0.968543   -0.020536
      4          6           0       -1.244227   -2.329940   -0.051997
      5          6           0       -2.578494   -2.661945   -0.059594
      6          6           0       -3.590342   -1.670941   -0.037669
      7          6           0       -4.975908   -2.031398   -0.046182
      8          6           0       -5.949536   -1.080357   -0.025828
      9          6           0       -5.622694    0.315943    0.004685
     10          6           0       -6.643895    1.294703    0.025592
     11          6           0       -6.341109    2.641307    0.054951
     12          6           0       -4.994158    3.049330    0.064333
     13          6           0       -3.978408    2.110661    0.044340
     14          6           0       -4.254497    0.723778    0.014057
     15          6           0       -3.212294   -0.296237   -0.007701
     16          6           0       -1.835442    0.009733   -0.000486
     17          6           0        3.054098   -0.922345    0.011439
     18          6           0        4.058949   -1.934218    0.094801
     19          6           0        5.395892   -1.622949    0.114039
     20          6           0        5.832350   -0.272886    0.049267
     21          6           0        7.204378    0.090313    0.066358
     22          6           0        7.585006    1.412091   -0.000346
     23          6           0        6.605879    2.433322   -0.088082
     24          6           0        5.267742    2.113907   -0.107088
     25          6           0        4.839559    0.758241   -0.038694
     26          6           0        3.470238    0.401593   -0.056463
     27          1           0        1.509135   -2.422457    0.007570
     28          1           0        0.701582    0.533104   -0.001591
     29          1           0       -0.498578   -3.118464   -0.072272
     30          1           0       -2.877151   -3.707465   -0.084103
     31          1           0       -5.235032   -3.087206   -0.069339
     32          1           0       -6.999182   -1.364010   -0.032415
     33          1           0       -7.680095    0.964467    0.018048
     34          1           0       -7.135581    3.382310    0.070762
     35          1           0       -4.748575    4.107609    0.087480
     36          1           0       -2.950851    2.457962    0.052384
     37          1           0       -1.518267    1.047483    0.022542
     38          1           0        3.746132   -2.974552    0.146001
     39          1           0        6.140687   -2.412758    0.179275
     40          1           0        7.952695   -0.696110    0.133320
     41          1           0        8.638528    1.677815    0.013741
     42          1           0        6.918269    3.472829   -0.140455
     43          1           0        4.515425    2.896428   -0.174358
     44          1           0        2.738858    1.202260   -0.129979
 ---------------------------------------------------------------------

 The electronic state is 1-A.
 Alpha  occ. eigenvalues --  -10.20142 -10.20126 -10.20101 -10.20073 -10.19819
 Alpha  occ. eigenvalues --  -10.19816 -10.19768 -10.19678 -10.19397 -10.19314
 Alpha  occ. eigenvalues --  -10.19176 -10.19146 -10.19134 -10.19110 -10.19097
 Alpha  occ. eigenvalues --  -10.19091 -10.19090 -10.19088 -10.19074 -10.19073
 Alpha  occ. eigenvalues --  -10.19054 -10.19030 -10.19022 -10.19015 -10.19005
 Alpha  occ. eigenvalues --  -10.19002  -0.88084  -0.87269  -0.85063  -0.82902
 Alpha  occ. eigenvalues --   -0.81304  -0.78636  -0.77420  -0.76958  -0.75493
 Alpha  occ. eigenvalues --   -0.73360  -0.72344  -0.72059  -0.70087  -0.64610
 Alpha  occ. eigenvalues --   -0.63216  -0.62152  -0.61326  -0.60133  -0.59660
 Alpha  occ. eigenvalues --   -0.58644  -0.56136  -0.53173  -0.52067  -0.51247
 Alpha  occ. eigenvalues --   -0.51028  -0.49684  -0.48612  -0.47604  -0.46968
 Alpha  occ. eigenvalues --   -0.44777  -0.44238  -0.43940  -0.42937  -0.42522
 Alpha  occ. eigenvalues --   -0.42362  -0.41858  -0.41377  -0.41108  -0.40015
 Alpha  occ. eigenvalues --   -0.39988  -0.39500  -0.39035  -0.37446  -0.36777
 Alpha  occ. eigenvalues --   -0.36416  -0.36088  -0.35326  -0.34076  -0.33853
 Alpha  occ. eigenvalues --   -0.33245  -0.32720  -0.32430  -0.32050  -0.29404
 Alpha  occ. eigenvalues --   -0.28409  -0.27816  -0.25854  -0.23221  -0.22403
 Alpha  occ. eigenvalues --   -0.21727  -0.19242
 Alpha virt. eigenvalues --   -0.06300  -0.03343  -0.03177  -0.01739   0.00881
 Alpha virt. eigenvalues --    0.02778   0.03613   0.05504   0.09052   0.09277
 Alpha virt. eigenvalues --    0.09422   0.09772   0.10686   0.11178   0.11661

 Mulliken charges:
               1
     1  C   -0.199544
     2  C   -0.182819
     3  C    0.193817
     4  C   -0.180245
     5  C   -0.209863
     6  C    0.148668
     7  C   -0.196409
     8  C   -0.192615
     9  C    0.140045
    10  C   -0.206564
    11  C   -0.127280
    12  C   -0.139507
    13  C   -0.184920
    14  C    0.060564
    15  C    0.067522
    16  C   -0.287901
    17  C    0.186405
    18  C   -0.197801
    19  C   -0.195407
    20  C    0.138236
    21  C   -0.191652
    22  C   -0.135257
    23  C   -0.137105
    24  C   -0.188297
    25  C    0.145233
    26  C   -0.270110
    27  H    0.127484
    28  H    0.128010
    29  H    0.130582
    30  H    0.131011
    31  H    0.130536
    32  H    0.130470
    33  H    0.130044
    34  H    0.130610
    35  H    0.129993
    36  H    0.134061
    37  H    0.132917
    38  H    0.127565
    39  H    0.130729
    40  H    0.129796
    41  H    0.130367
    42  H    0.130300
    43  H    0.128990
    44  H    0.129341
 Sum of Mulliken charges =  -0.00000

 Dipole moment (field-independent basis, Debye):
    X=             -0.0824    Y=              0.0725    Z=              0.0037  Tot=              0.1098
 Quadrupole moment (field-independent basis, Debye-Ang):
   XX=           -128.0469   YY=           -129.7835   ZZ=           -158.5962
   XY=             -0.0898   XZ=              0.3172   YZ=             -0.3015

 Normal termination of Gaussian 16 at Sat Nov  5 00:17:56 2022.
