 Gaussian 16, Revision B.01,
 Gaussian 16:  ES64L-G16RevB.01 20-Dec-2017

 -----------------------------
 #p b3lyp/6-31g(d) opt SCF=XQC
 -----------------------------

 ------------------------------
 Gaussian input prepared by ASE
 ------------------------------
 Symbolic Z-matrix:
 Charge =  0 Multiplicity = 1

 SCF Done:  E(RB3LYP) =  -3056.15890467     A.U. after   16 cycles
 SCF Done:  E(RB3LYP) =  -3056.17732190     A.U. after   13 cycles
 SCF Done:  E(RB3LYP) =  -3056.18178351     A.U. after   14 cycles
 SCF Done:  E(RB3LYP) =  -3056.19332365     A.U. after   15 cycles
 SCF Done:  E(RB3LYP) =  -3056.19361881     A.U. after   15 cycles
 SCF Done:  E(RB3LYP) =  -3056.19490681     A.U. after   15 cycles
 SCF Done:  E(RB3LYP) =  -3056.19652927     A.U. after   15 cycles
 SCF Done:  E(RB3LYP) =  -3056.19837441     A.U. after   13 cycles
 SCF Done:  E(RB3LYP) =  -3056.19916142     A.U. after   13 cycles
 SCF Done:  E(RB3LYP) =  -3056.20015567     A.U. after   12 cycles
 SCF Done:  E(RB3LYP) =  -3056.20167417     A.U. after   11 cycles
 SCF Done:  E(RB3LYP) =  -3056.20167857     A.U. after    9 cycles
 SCF Done:  E(RB3LYP) =  -3056.20168229     A.U. after   10 cycles
 SCF Done:  E(RB3LYP) =  -3056.20168408     A.U. after    9 cycles
 SCF Done:  E(RB3LYP) =  -3056.20168666     A.U. after   10 cycles
 SCF Done:  E(RB3LYP) =  -3056.20168933     A.U. after   10 cycles
 SCF Done:  E(RB3LYP) =  -3056.20169002     A.U. after    9 cycles
 SCF Done:  E(RB3LYP) =  -3056.20169028     A.U. after    7 cycles
 SCF Done:  E(RB3LYP) =  -3056.20169039     A.U. after    7 cycles
 SCF Done:  E(RB3LYP) =  -3056.20169044     A.U. after    6 cycles
 Optimization completed.
    -- Stationary point found.

                         Standard orientation:
 ---------------------------------------------------------------------
 Center     Atomic      Atomic             Coordinates (Angstroms)
 Number     Number       Type             X           Y           Z
 ---------------------------------------------------------------------
      1          6           0       -0.469730    2.181317    3.363425
      2          6           0       -0.522861    2.803069    1.989493
      3          6           0       -1.757567    2.994258    1.369691
      4          6           0       -1.892522    3.564927    0.097708
      5          7           0       -3.201244    3.655461   -0.476536
      6          6           0       -3.793963    4.921087   -0.706670
      7          6           0       -4.742867    5.092832   -1.730597
      8          6           0       -5.310841    6.343148   -1.959893
      9          6           0       -4.934556    7.450355   -1.195106
     10          6           0       -3.983005    7.285933   -0.188178
     11          6           0       -3.421511    6.034516    0.064628
     12          6           0       -3.924277    2.444138   -0.622634
     13          6           0       -3.258794    1.308492   -1.113412
     14          6           0       -3.905885    0.084095   -1.191180
     15          6           0       -5.247794   -0.054259   -0.799004
     16          6           0       -5.959676   -1.354408   -0.893425
     17          7           0       -7.219262   -1.308454   -1.294840
     18          6           0       -7.871033   -2.480796   -1.519130
     19          6           0       -9.223311   -2.467661   -1.946120
     20          6           0       -9.861009   -3.653051   -2.240204
     21          6           0       -9.178319   -4.890798   -2.121690
     22          6           0       -7.867631   -4.931692   -1.698371
     23          6           0       -7.192038   -3.727368   -1.378492
     24          7           0       -5.919644   -3.770448   -0.895913
     25          6           0       -5.320238   -2.629268   -0.609494
     26          6           0       -3.985587   -2.730053    0.043652
     27          6           0       -2.991662   -3.561952   -0.492945
     28          6           0       -1.729177   -3.631658    0.088387
     29          6           0       -1.433571   -2.886313    1.240072
     30          7           0       -0.115896   -2.921048    1.784553
     31          6           0        0.055982   -2.905898    3.197049
     32          6           0       -0.718140   -3.758808    4.002209
     33          6           0       -0.559872   -3.753768    5.385339
     34          6           0        0.381838   -2.917302    5.991393
     35          6           0        1.158699   -2.076787    5.193893
     36          6           0        0.994690   -2.059768    3.807830
     37          6           0        0.964104   -2.531862    0.938110
     38          6           0        0.816451   -1.414372    0.104209
     39          6           0        1.825603   -0.956130   -0.741612
     40          6           0        1.575381    0.267846   -1.586659
     41          6           0        3.050488   -1.668347   -0.738568
     42          6           0        4.181738   -1.267475   -1.565168
     43          7           0        4.356148   -0.204484   -2.305335
     44          7           0        5.618529   -0.306520   -2.872470
     45          6           0        6.134120   -1.422363   -2.443308
     46          6           0        7.439149   -1.995408   -2.747834
     47          6           0        7.861760   -3.195062   -2.155019
     48          6           0        9.115187   -3.719971   -2.463271
     49          6           0        9.953955   -3.056873   -3.361106
     50          6           0        9.534397   -1.862078   -3.953824
     51          6           0        8.284570   -1.330777   -3.652284
     52          8           0        5.282250   -2.086357   -1.609905
     53          6           0        3.188201   -2.799994    0.085004
     54          6           0        2.174932   -3.258743    0.923963
     55          6           0        2.381067   -4.496024    1.761325
     56          6           0       -2.441733   -2.096656    1.813812
     57          6           0       -3.695214   -2.017652    1.216978
     58          6           0       -5.925852    1.096984   -0.365104
     59          6           0       -5.277819    2.324116   -0.262809
     60          6           0       -0.750459    3.991610   -0.609141
     61          6           0       -0.842355    4.616092   -1.978839
     62          6           0        0.488800    3.790657    0.000319
     63          6           0        0.628759    3.203047    1.269094
     64          6           0        1.974325    3.005910    1.800926
     65          7           0        2.376702    2.852101    3.031562
     66          7           0        3.757229    2.709765    2.991837
     67          6           0        4.106686    2.786197    1.739557
     68          6           0        5.441189    2.672611    1.163232
     69          6           0        5.622315    2.445808   -0.209687
     70          6           0        6.909241    2.310602   -0.727706
     71          6           0        8.018641    2.408214    0.114438
     72          6           0        7.839964    2.633889    1.482941
     73          6           0        6.558947    2.762831    2.010137
     74          8           0        3.027943    2.975713    0.922390
     75          1           0       -1.475834    1.903180    3.691987
     76          1           0       -0.034650    2.864791    4.098480
     77          1           0        0.160088    1.284886    3.378689
     78          1           0       -2.659864    2.679519    1.886142
     79          1           0       -5.026728    4.245056   -2.345590
     80          1           0       -6.043230    6.453883   -2.755389
     81          1           0       -5.374925    8.425100   -1.383570
     82          1           0       -3.679899    8.134359    0.419884
     83          1           0       -2.696792    5.914797    0.863383
     84          1           0       -2.224542    1.394238   -1.431223
     85          1           0       -3.362894   -0.770606   -1.578842
     86          1           0       -9.719796   -1.506922   -2.042424
     87          1           0      -10.895704   -3.644703   -2.571782
     88          1           0       -9.699955   -5.812809   -2.363152
     89          1           0       -7.327142   -5.866584   -1.585825
     90          1           0       -3.215554   -4.149014   -1.378437
     91          1           0       -0.958880   -4.259855   -0.348840
     92          1           0       -1.439206   -4.422598    3.535284
     93          1           0       -1.168131   -4.419473    5.992167
     94          1           0        0.507494   -2.922255    7.070236
     95          1           0        1.890320   -1.413887    5.647977
     96          1           0        1.592559   -1.389019    3.199146
     97          1           0       -0.125074   -0.874341    0.130111
     98          1           0        1.793237    0.083574   -2.643071
     99          1           0        2.220373    1.100047   -1.286596
    100          1           0        0.533772    0.588004   -1.487967
    101          1           0        7.209633   -3.709314   -1.456713
    102          1           0        9.436907   -4.648771   -2.000607
    103          1           0       10.930495   -3.469193   -3.599541
    104          1           0       10.183386   -1.344586   -4.654763
    105          1           0        7.945331   -0.406683   -4.108690
    106          1           0        4.123674   -3.349525    0.059622
    107          1           0        2.578644   -4.249629    2.811663
    108          1           0        3.229353   -5.077199    1.386934
    109          1           0        1.490867   -5.133725    1.749242
    110          1           0       -2.231775   -1.529919    2.714998
    111          1           0       -4.452692   -1.376965    1.658443
    112          1           0       -6.970697    1.012760   -0.083495
    113          1           0       -5.813769    3.190320    0.111484
    114          1           0        0.138807    4.636560   -2.462349
    115          1           0       -1.215765    5.646161   -1.927171
    116          1           0       -1.534387    4.062838   -2.622680
    117          1           0        1.384926    4.088331   -0.535407
    118          1           0        4.764043    2.346489   -0.865397
    119          1           0        7.035014    2.108623   -1.786949
    120          1           0        9.020915    2.302998   -0.292239
    121          1           0        8.701810    2.708826    2.140367
    122          1           0        6.404900    2.933645    3.070612
 ---------------------------------------------------------------------

 The electronic state is 1-A.
 Alpha  occ. eigenvalues --  -19.23843 -19.23398 -14.36898 -14.36824 -14.35790
 Alpha  occ. eigenvalues --  -14.35662 -14.35205 -14.35060 -14.34124 -14.34000
 Alpha  occ. eigenvalues --  -10.28800 -10.28770 -10.28264 -10.28132 -10.24213
 Alpha  occ. eigenvalues --  -10.24177 -10.23553 -10.23487 -10.23442 -10.23360
 Alpha  occ. eigenvalues --  -10.23274 -10.23145 -10.22762 -10.22702 -10.22041
 Alpha  occ. eigenvalues --  -10.21368 -10.21283 -10.21031 -10.20985 -10.20979
 Alpha  occ. eigenvalues --  -10.20684 -10.20544 -10.20492 -10.20431 -10.20373
 Alpha  occ. eigenvalues --  -10.20372 -10.20293 -10.20110 -10.20033 -10.19983
 Alpha  occ. eigenvalues --  -10.19935 -10.19879 -10.19840 -10.19696 -10.19576
 Alpha  occ. eigenvalues --  -10.19514 -10.19496 -10.19486 -10.19463 -10.19457
 Alpha  occ. eigenvalues --  -10.19409 -10.19405 -10.19379 -10.19347 -10.19338
 Alpha  occ. eigenvalues --  -10.19318 -10.19157 -10.19142 -10.19141 -10.19111
 Alpha  occ. eigenvalues --  -10.19103 -10.19078 -10.19076 -10.19029 -10.18861
 Alpha  occ. eigenvalues --  -10.18811 -10.18771 -10.18753 -10.18619 -10.18518
 Alpha  occ. eigenvalues --  -10.18446 -10.18376 -10.17679 -10.17679  -1.15773
 Alpha  occ. eigenvalues --   -1.15216  -0.97873  -0.97788  -0.97324  -0.96899
 Alpha  occ. eigenvalues --   -0.96815  -0.90948  -0.88309  -0.87879  -0.86978
 Alpha  occ. eigenvalues --   -0.86609  -0.86331  -0.85667  -0.85011  -0.84487
 Alpha  occ. eigenvalues --   -0.84213  -0.83297  -0.82893  -0.79415  -0.79242
 Alpha  occ. eigenvalues --   -0.78371  -0.77135  -0.76821  -0.76583  -0.76028
 Alpha  occ. eigenvalues --   -0.75625  -0.75277  -0.75046  -0.74877  -0.74763
 Alpha  occ. eigenvalues --   -0.74649  -0.74565  -0.74290  -0.74062  -0.72836
 Alpha  occ. eigenvalues --   -0.72584  -0.71195  -0.71042  -0.66983  -0.66775
 Alpha  occ. eigenvalues --   -0.66591  -0.66268  -0.65983  -0.65643  -0.64592
 Alpha  occ. eigenvalues --   -0.64377  -0.62463  -0.62027  -0.61872  -0.61614
 Alpha  occ. eigenvalues --   -0.61164  -0.60869  -0.60733  -0.60647  -0.60330
 Alpha  occ. eigenvalues --   -0.60115  -0.59911  -0.58685  -0.58484  -0.58334
 Alpha  occ. eigenvalues --   -0.57929  -0.56611  -0.56389  -0.54203  -0.54076
 Alpha  occ. eigenvalues --   -0.53947  -0.53574  -0.53335  -0.52975  -0.52111
 Alpha  occ. eigenvalues --   -0.51605  -0.50805  -0.50579  -0.50293  -0.49712
 Alpha  occ. eigenvalues --   -0.49504  -0.49040  -0.48773  -0.48491  -0.48395
 Alpha  occ. eigenvalues --   -0.48170  -0.47469  -0.47346  -0.47202  -0.46635
 Alpha  occ. eigenvalues --   -0.46069  -0.45809  -0.45404  -0.45310  -0.45069
 Alpha  occ. eigenvalues --   -0.44957  -0.44614  -0.44499  -0.44138  -0.43966
 Alpha  occ. eigenvalues --   -0.43740  -0.43633  -0.43429  -0.43351  -0.43001
 Alpha  occ. eigenvalues --   -0.42846  -0.42627  -0.42543  -0.42431  -0.42388
 Alpha  occ. eigenvalues --   -0.42249  -0.42192  -0.42102  -0.41991  -0.41871
 Alpha  occ. eigenvalues --   -0.41789  -0.41206  -0.41116  -0.40890  -0.40865
 Alpha  occ. eigenvalues --   -0.40127  -0.40045  -0.38576  -0.38507  -0.38437
 Alpha  occ. eigenvalues --   -0.38192  -0.38043  -0.37789  -0.37758  -0.37641
 Alpha  occ. eigenvalues --   -0.37426  -0.37277  -0.36870  -0.36553  -0.36402
 Alpha  occ. eigenvalues --   -0.36191  -0.36088  -0.35964  -0.35707  -0.35671
 Alpha  occ. eigenvalues --   -0.35574  -0.35464  -0.35374  -0.35302  -0.35096
 Alpha  occ. eigenvalues --   -0.34729  -0.34584  -0.34513  -0.34365  -0.34274
 Alpha  occ. eigenvalues --   -0.34252  -0.34059  -0.33779  -0.33512  -0.31849
 Alpha  occ. eigenvalues --   -0.31767  -0.31347  -0.31019  -0.30465  -0.30171
 Alpha  occ. eigenvalues --   -0.29592  -0.27515  -0.27259  -0.27196  -0.26898
 Alpha  occ. eigenvalues --   -0.26424  -0.26392  -0.26300  -0.25819  -0.25321
 Alpha  occ. eigenvalues --   -0.25275  -0.25041  -0.24855  -0.24665  -0.24550
 Alpha  occ. eigenvalues --   -0.24342  -0.23764  -0.23558  -0.22950  -0.22490
 Alpha  occ. eigenvalues --   -0.19288  -0.18737
 Alpha virt. eigenvalues --   -0.06992  -0.06039  -0.05439  -0.04303  -0.03156
 Alpha virt. eigenvalues --   -0.02607  -0.01827  -0.01277  -0.01240  -0.00848
 Alpha virt. eigenvalues --   -0.00375  -0.00179   0.00034   0.00168   0.00298

 Mulliken charges:
               1
     1  C   -0.518363
     2  C    0.141172
     3  C   -0.226790
     4  C    0.192941
     5  N   -0.659333
     6  C    0.314964
     7  C   -0.170704
     8  C   -0.139668
     9  C   -0.129722
    10  C   -0.138750
    11  C   -0.185404
    12  C    0.293196
    13  C   -0.181347
    14  C   -0.170778
    15  C    0.094069
    16  C    0.200775
    17  N   -0.541111
    18  C    0.282813
    19  C   -0.157117
    20  C   -0.135343
    21  C   -0.135969
    22  C   -0.156744
    23  C    0.276793
    24  N   -0.526430
    25  C    0.176921
    26  C    0.087740
    27  C   -0.163249
    28  C   -0.160436
    29  C    0.267078
    30  N   -0.652350
    31  C    0.293862
    32  C   -0.159734
    33  C   -0.139356
    34  C   -0.128567
    35  C   -0.141678
    36  C   -0.188292
    37  C    0.223451
    38  C   -0.246431
    39  C    0.138867
    40  C   -0.528080
    41  C    0.055268
    42  C    0.513257
    43  N   -0.387864
    44  N   -0.356252
    45  C    0.504720
    46  C    0.081461
    47  C   -0.168815
    48  C   -0.135798
    49  C   -0.119818
    50  C   -0.138434
    51  C   -0.159345
    52  O   -0.490730
    53  C   -0.268362
    54  C    0.180047
    55  C   -0.534122
    56  C   -0.169569
    57  C   -0.161511
    58  C   -0.167641
    59  C   -0.175852
    60  C    0.178899
    61  C   -0.535237
    62  C   -0.265813
    63  C    0.060244
    64  C    0.482718
    65  N   -0.369224
    66  N   -0.348296
    67  C    0.486132
    68  C    0.077127
    69  C   -0.178043
    70  C   -0.144258
    71  C   -0.121024
    72  C   -0.139710
    73  C   -0.155274
    74  O   -0.481274
    75  H    0.146221
    76  H    0.190439
    77  H    0.174243
    78  H    0.140953
    79  H    0.146329
    80  H    0.132269
    81  H    0.127745
    82  H    0.132439
    83  H    0.144852
    84  H    0.148327
    85  H    0.146328
    86  H    0.145183
    87  H    0.137503
    88  H    0.137427
    89  H    0.145597
    90  H    0.147034
    91  H    0.141982
    92  H    0.143385
    93  H    0.132634
    94  H    0.129651
    95  H    0.142615
    96  H    0.153578
    97  H    0.147572
    98  H    0.177576
    99  H    0.185585
   100  H    0.152859
   101  H    0.152197
   102  H    0.139156
   103  H    0.138404
   104  H    0.140137
   105  H    0.167593
   106  H    0.146311
   107  H    0.179101
   108  H    0.152550
   109  H    0.167827
   110  H    0.151067
   111  H    0.143212
   112  H    0.149409
   113  H    0.148838
   114  H    0.158175
   115  H    0.178828
   116  H    0.168720
   117  H    0.151322
   118  H    0.174679
   119  H    0.156868
   120  H    0.134287
   121  H    0.135791
   122  H    0.164702
 Sum of Mulliken charges =  -0.00000

 Dipole moment (field-independent basis, Debye):
    X=              1.0133    Y=             -2.3521    Z=             -1.3144  Tot=              2.8786
 Quadrupole moment (field-independent basis, Debye-Ang):
   XX=           -362.7861   YY=           -398.6011   ZZ=           -422.0009
   XY=            -16.8461   XZ=             -8.0209   YZ=             -5.0108

 Normal termination of Gaussian 16 at Sat Nov  5 05:17:25 2022.
