 Gaussian 16, Revision B.01,
 Gaussian 16:  ES64L-G16RevB.01 20-Dec-2017

 -------------------------------------------------------------------
 #p b3lyp/6-31g(d) 6D 10F nosymm GFInput td=(50-50,nstate=2) SCF=XQC
 -------------------------------------------------------------------

 ------------------------------
 Gaussian input prepared by ASE
 ------------------------------
 Symbolic Z-matrix:
 Charge =  0 Multiplicity = 1

                          Input orientation:
 ---------------------------------------------------------------------
 Center     Atomic      Atomic             Coordinates (Angstroms)
 Number     Number       Type             X           Y           Z
 ---------------------------------------------------------------------
      1          6           0       -2.713397    2.585610   -1.222275
      2          6           0       -3.099454    1.240038   -0.658817
      3          6           0       -3.485789    1.140551    0.677616
      4          6           0       -3.859547   -0.069570    1.275721
      5          7           0       -4.175197   -0.073953    2.672521
      6          6           0       -5.493543   -0.357514    3.105697
      7          6           0       -5.725965   -0.922670    4.372551
      8          6           0       -7.023731   -1.211557    4.785840
      9          6           0       -8.112783   -0.966923    3.945294
     10          6           0       -7.883973   -0.419647    2.682550
     11          6           0       -6.590534   -0.107173    2.264693
     12          6           0       -3.171491    0.391612    3.559791
     13          6           0       -1.843384   -0.021825    3.363260
     14          6           0       -0.819526    0.476804    4.155096
     15          6           0       -1.080214    1.394743    5.186162
     16          6           0        0.002813    1.923708    6.054106
     17          7           0       -0.285989    2.063121    7.337445
     18          6           0        0.710563    2.421442    8.190667
     19          6           0        0.434473    2.583711    9.572185
     20          6           0        1.458198    2.878183   10.446008
     21          6           0        2.789985    3.020345    9.978823
     22          6           0        3.082980    2.878485    8.639868
     23          6           0        2.046315    2.586796    7.718246
     24          7           0        2.322443    2.513038    6.387066
     25          6           0        1.332802    2.238272    5.557170
     26          6           0        1.651914    2.304361    4.103949
     27          6           0        2.777773    1.642585    3.591728
     28          6           0        3.061011    1.666500    2.229422
     29          6           0        2.235702    2.375332    1.343011
     30          7           0        2.505011    2.335873   -0.056935
     31          6           0        2.305249    3.507685   -0.839155
     32          6           0        2.800584    4.741697   -0.384333
     33          6           0        2.611871    5.895630   -1.139943
     34          6           0        1.946127    5.841966   -2.367826
     35          6           0        1.462079    4.616723   -2.826589
     36          6           0        1.628768    3.456957   -2.067960
     37          6           0        2.534748    1.059556   -0.692908
     38          6           0        1.564622    0.102986   -0.361539
     39          6           0        1.510840   -1.161764   -0.945748
     40          6           0        0.415519   -2.113839   -0.535071
     41          6           0        2.492136   -1.470716   -1.920025
     42          6           0        2.520100   -2.753021   -2.611836
     43          7           0        1.666115   -3.742332   -2.598146
     44          7           0        2.165220   -4.722105   -3.444668
     45          6           0        3.289383   -4.269955   -3.921046
     46          6           0        4.206886   -4.916998   -4.850423
     47          6           0        5.361951   -4.262333   -5.304779
     48          6           0        6.221362   -4.904091   -6.194266
     49          6           0        5.938275   -6.197920   -6.636085
     50          6           0        4.788589   -6.852500   -6.183728
     51          6           0        3.925034   -6.219708   -5.295405
     52          8           0        3.580485   -3.027418   -3.438871
     53          6           0        3.475015   -0.515703   -2.235876
     54          6           0        3.529374    0.744778   -1.644902
     55          6           0        4.627818    1.711091   -2.011226
     56          6           0        1.140738    3.086159    1.857700
     57          6           0        0.853322    3.042640    3.217541
     58          6           0       -2.417158    1.759184    5.416719
     59          6           0       -3.447350    1.281098    4.612726
     60          6           0       -3.872885   -1.257192    0.517183
     61          6           0       -4.271759   -2.584188    1.112560
     62          6           0       -3.474432   -1.166185   -0.817186
     63          6           0       -3.082735    0.043365   -1.415704
     64          6           0       -2.649301    0.022427   -2.809962
     65          7           0       -2.601626    0.984153   -3.689075
     66          7           0       -2.119918    0.431856   -4.868321
     67          6           0       -1.905389   -0.830694   -4.631440
     68          6           0       -1.376040   -1.844554   -5.535778
     69          6           0       -0.893594   -3.069699   -5.050578
     70          6           0       -0.364664   -4.007691   -5.935567
     71          6           0       -0.320988   -3.734731   -7.304176
     72          6           0       -0.801043   -2.514175   -7.789402
     73          6           0       -1.324011   -1.568890   -6.912758
     74          8           0       -2.220008   -1.166134   -3.344637
     75          1           0       -2.747704    3.348116   -0.438077
     76          1           0       -3.378183    2.887049   -2.037095
     77          1           0       -1.704221    2.572155   -1.648743
     78          1           0       -3.489864    2.036212    1.292187
     79          1           0       -4.886308   -1.137595    5.025469
     80          1           0       -7.181423   -1.646855    5.769262
     81          1           0       -9.122362   -1.201660    4.269671
     82          1           0       -8.718406   -0.218702    2.015630
     83          1           0       -6.426664    0.336328    1.287957
     84          1           0       -1.619994   -0.737755    2.578674
     85          1           0        0.193326    0.132643    3.978126
     86          1           0       -0.590353    2.456176    9.907233
     87          1           0        1.249358    2.998484   11.505499
     88          1           0        3.582002    3.248449   10.686771
     89          1           0        4.091297    2.996201    8.254826
     90          1           0        3.426533    1.099749    4.272394
     91          1           0        3.921200    1.130643    1.839435
     92          1           0        3.333086    4.786120    0.560675
     93          1           0        3.000970    6.841373   -0.771765
     94          1           0        1.807966    6.743385   -2.957800
     95          1           0        0.935090    4.556980   -3.775067
     96          1           0        1.232593    2.512474   -2.426907
     97          1           0        0.812883    0.367215    0.375920
     98          1           0        0.815356   -3.085536   -0.229521
     99          1           0       -0.269778   -2.317150   -1.364315
    100          1           0       -0.162372   -1.690090    0.291772
    101          1           0        5.580768   -3.256505   -4.961583
    102          1           0        7.113700   -4.391787   -6.542849
    103          1           0        6.610778   -6.695547   -7.329336
    104          1           0        4.566329   -7.860207   -6.523476
    105          1           0        3.031881   -6.718295   -4.933427
    106          1           0        4.234263   -0.774661   -2.966779
    107          1           0        4.271668    2.495376   -2.690205
    108          1           0        5.452104    1.187526   -2.505143
    109          1           0        5.020555    2.217455   -1.123184
    110          1           0        0.505455    3.653516    1.185442
    111          1           0       -0.016338    3.573955    3.592428
    112          1           0       -2.638775    2.447079    6.226523
    113          1           0       -4.467313    1.607767    4.787680
    114          1           0       -3.972329   -3.408423    0.458451
    115          1           0       -5.356445   -2.648095    1.262628
    116          1           0       -3.809282   -2.735065    2.093825
    117          1           0       -3.452457   -2.072065   -1.415143
    118          1           0       -0.903955   -3.278582   -3.986289
    119          1           0        0.029925   -4.940537   -5.544789
    120          1           0        0.091391   -4.468125   -7.991989
    121          1           0       -0.766774   -2.299081   -8.853903
    122          1           0       -1.695958   -0.615794   -7.274391
 ---------------------------------------------------------------------

 SCF Done:  E(RB3LYP) =  -3056.20170244     A.U. after   15 cycles

 Excitation energies and oscillator strengths:

 Excited state symmetry could not be determined.
 Excited State   1:      Triplet-?Sym    2.4245 eV  511.38 nm  f=0.0000  <S**2>=2.000
     248 -> 253        0.25536
     251 -> 253       -0.18892
     252 -> 253        0.54369
     252 -> 255       -0.10928
     252 -> 256        0.14803
 This state for optimization and/or second-order correction.
 Total Energy, E(TD-HF/TD-DFT) =  -3056.11260434
 Copying the excited state density for this state as the 1-particle RhoCI density.

 Excited state symmetry could not be determined.
 Excited State   2:      Triplet-?Sym    2.5430 eV  487.56 nm  f=0.0000  <S**2>=2.000
     247 -> 253       -0.14510
     248 -> 253       -0.10451
     249 -> 254        0.20171
     251 -> 253        0.26192
     251 -> 254        0.35778
     251 -> 257       -0.12111
     252 -> 253        0.22277
     252 -> 254        0.28853
     252 -> 256       -0.11333

 Excited state symmetry could not be determined.
 Excited State   3:      Singlet-?Sym    2.8001 eV  442.78 nm  f=0.3038  <S**2>=0.000
     252 -> 253        0.70101

 Excited state symmetry could not be determined.
 Excited State   4:      Singlet-?Sym    2.9168 eV  425.06 nm  f=0.0445  <S**2>=0.000
     251 -> 253        0.67058
     252 -> 254        0.13952
     252 -> 255        0.11265

 Alpha  occ. eigenvalues --  -19.23843 -19.23398 -14.36898 -14.36824 -14.35791
 Alpha  occ. eigenvalues --  -14.35662 -14.35205 -14.35060 -14.34124 -14.34000
 Alpha  occ. eigenvalues --  -10.28800 -10.28770 -10.28264 -10.28132 -10.24213
 Alpha  occ. eigenvalues --  -10.24177 -10.23554 -10.23487 -10.23442 -10.23360
 Alpha  occ. eigenvalues --  -10.23274 -10.23145 -10.22762 -10.22702 -10.22041
 Alpha  occ. eigenvalues --  -10.21369 -10.21283 -10.21031 -10.20985 -10.20979
 Alpha  occ. eigenvalues --  -10.20684 -10.20544 -10.20492 -10.20430 -10.20372
 Alpha  occ. eigenvalues --  -10.20372 -10.20293 -10.20110 -10.20033 -10.19983
 Alpha  occ. eigenvalues --  -10.19935 -10.19879 -10.19840 -10.19696 -10.19576
 Alpha  occ. eigenvalues --  -10.19514 -10.19496 -10.19486 -10.19463 -10.19457
 Alpha  occ. eigenvalues --  -10.19409 -10.19404 -10.19379 -10.19347 -10.19338
 Alpha  occ. eigenvalues --  -10.19318 -10.19157 -10.19143 -10.19141 -10.19111
 Alpha  occ. eigenvalues --  -10.19103 -10.19078 -10.19076 -10.19029 -10.18861
 Alpha  occ. eigenvalues --  -10.18811 -10.18771 -10.18753 -10.18619 -10.18518
 Alpha  occ. eigenvalues --  -10.18446 -10.18376 -10.17679 -10.17679  -1.15773
 Alpha  occ. eigenvalues --   -1.15216  -0.97873  -0.97788  -0.97324  -0.96899
 Alpha  occ. eigenvalues --   -0.96815  -0.90948  -0.88309  -0.87879  -0.86978
 Alpha  occ. eigenvalues --   -0.86609  -0.86331  -0.85667  -0.85011  -0.84487
 Alpha  occ. eigenvalues --   -0.84213  -0.83297  -0.82893  -0.79415  -0.79242
 Alpha  occ. eigenvalues --   -0.78371  -0.77135  -0.76821  -0.76583  -0.76028
 Alpha  occ. eigenvalues --   -0.75625  -0.75277  -0.75046  -0.74877  -0.74763
 Alpha  occ. eigenvalues --   -0.74649  -0.74565  -0.74290  -0.74062  -0.72836
 Alpha  occ. eigenvalues --   -0.72584  -0.71195  -0.71042  -0.66983  -0.66775
 Alpha  occ. eigenvalues --   -0.66591  -0.66268  -0.65983  -0.65643  -0.64592
 Alpha  occ. eigenvalues --   -0.64377  -0.62463  -0.62027  -0.61872  -0.61614
 Alpha  occ. eigenvalues --   -0.61164  -0.60869  -0.60733  -0.60647  -0.60330
 Alpha  occ. eigenvalues --   -0.60115  -0.59911  -0.58685  -0.58484  -0.58334
 Alpha  occ. eigenvalues --   -0.57929  -0.56611  -0.56389  -0.54203  -0.54076
 Alpha  occ. eigenvalues --   -0.53947  -0.53574  -0.53335  -0.52975  -0.52111
 Alpha  occ. eigenvalues --   -0.51605  -0.50805  -0.50579  -0.50293  -0.49712
 Alpha  occ. eigenvalues --   -0.49504  -0.49040  -0.48773  -0.48491  -0.48395
 Alpha  occ. eigenvalues --   -0.48170  -0.47469  -0.47346  -0.47202  -0.46635
 Alpha  occ. eigenvalues --   -0.46069  -0.45809  -0.45404  -0.45310  -0.45069
 Alpha  occ. eigenvalues --   -0.44957  -0.44614  -0.44499  -0.44138  -0.43966
 Alpha  occ. eigenvalues --   -0.43740  -0.43633  -0.43429  -0.43351  -0.43001
 Alpha  occ. eigenvalues --   -0.42846  -0.42627  -0.42543  -0.42431  -0.42388
 Alpha  occ. eigenvalues --   -0.42249  -0.42192  -0.42102  -0.41991  -0.41871
 Alpha  occ. eigenvalues --   -0.41789  -0.41206  -0.41116  -0.40890  -0.40865
 Alpha  occ. eigenvalues --   -0.40127  -0.40045  -0.38576  -0.38507  -0.38437
 Alpha  occ. eigenvalues --   -0.38192  -0.38043  -0.37789  -0.37758  -0.37641
 Alpha  occ. eigenvalues --   -0.37426  -0.37277  -0.36870  -0.36553  -0.36402
 Alpha  occ. eigenvalues --   -0.36191  -0.36088  -0.35964  -0.35707  -0.35671
 Alpha  occ. eigenvalues --   -0.35574  -0.35464  -0.35375  -0.35302  -0.35096
 Alpha  occ. eigenvalues --   -0.34729  -0.34584  -0.34513  -0.34365  -0.34275
 Alpha  occ. eigenvalues --   -0.34252  -0.34059  -0.33779  -0.33512  -0.31849
 Alpha  occ. eigenvalues --   -0.31767  -0.31347  -0.31019  -0.30465  -0.30171
 Alpha  occ. eigenvalues --   -0.29592  -0.27515  -0.27259  -0.27196  -0.26898
 Alpha  occ. eigenvalues --   -0.26424  -0.26392  -0.26300  -0.25820  -0.25321
 Alpha  occ. eigenvalues --   -0.25275  -0.25041  -0.24855  -0.24665  -0.24550
 Alpha  occ. eigenvalues --   -0.24342  -0.23764  -0.23558  -0.22950  -0.22490
 Alpha  occ. eigenvalues --   -0.19288  -0.18737
 Alpha virt. eigenvalues --   -0.06992  -0.06039  -0.05439  -0.04304  -0.03156
 Alpha virt. eigenvalues --   -0.02607  -0.01827  -0.01277  -0.01240  -0.00848
 Alpha virt. eigenvalues --   -0.00375  -0.00179   0.00034   0.00168   0.00298

 Mulliken charges:
               1
     1  C   -0.518365
     2  C    0.141181
     3  C   -0.226782
     4  C    0.192917
     5  N   -0.659322
     6  C    0.314997
     7  C   -0.170726
     8  C   -0.139661
     9  C   -0.129717
    10  C   -0.138747
    11  C   -0.185426
    12  C    0.293206
    13  C   -0.181356
    14  C   -0.170783
    15  C    0.094074
    16  C    0.200772
    17  N   -0.541113
    18  C    0.282862
    19  C   -0.157126
    20  C   -0.135346
    21  C   -0.135957
    22  C   -0.156748
    23  C    0.276754
    24  N   -0.526425
    25  C    0.176924
    26  C    0.087770
    27  C   -0.163260
    28  C   -0.160448
    29  C    0.267091
    30  N   -0.652372
    31  C    0.293842
    32  C   -0.159697
    33  C   -0.139374
    34  C   -0.128570
    35  C   -0.141678
    36  C   -0.188293
    37  C    0.223435
    38  C   -0.246435
    39  C    0.138905
    40  C   -0.528073
    41  C    0.055224
    42  C    0.513296
    43  N   -0.387890
    44  N   -0.356236
    45  C    0.504701
    46  C    0.081448
    47  C   -0.168814
    48  C   -0.135797
    49  C   -0.119816
    50  C   -0.138440
    51  C   -0.159334
    52  O   -0.490731
    53  C   -0.268358
    54  C    0.180077
    55  C   -0.534120
    56  C   -0.169560
    57  C   -0.161540
    58  C   -0.167644
    59  C   -0.175859
    60  C    0.178919
    61  C   -0.535243
    62  C   -0.265821
    63  C    0.060239
    64  C    0.482714
    65  N   -0.369249
    66  N   -0.348278
    67  C    0.486108
    68  C    0.077131
    69  C   -0.178056
    70  C   -0.144263
    71  C   -0.121018
    72  C   -0.139712
    73  C   -0.155275
    74  O   -0.481250
    75  H    0.146223
    76  H    0.190438
    77  H    0.174246
    78  H    0.140951
    79  H    0.146328
    80  H    0.132269
    81  H    0.127743
    82  H    0.132439
    83  H    0.144854
    84  H    0.148328
    85  H    0.146326
    86  H    0.145182
    87  H    0.137503
    88  H    0.137425
    89  H    0.145597
    90  H    0.147033
    91  H    0.141982
    92  H    0.143385
    93  H    0.132635
    94  H    0.129653
    95  H    0.142617
    96  H    0.153589
    97  H    0.147575
    98  H    0.177577
    99  H    0.185581
   100  H    0.152855
   101  H    0.152198
   102  H    0.139155
   103  H    0.138403
   104  H    0.140138
   105  H    0.167590
   106  H    0.146310
   107  H    0.179098
   108  H    0.152548
   109  H    0.167825
   110  H    0.151067
   111  H    0.143215
   112  H    0.149409
   113  H    0.148838
   114  H    0.158176
   115  H    0.178830
   116  H    0.168721
   117  H    0.151326
   118  H    0.174681
   119  H    0.156872
   120  H    0.134287
   121  H    0.135791
   122  H    0.164703
 Sum of Mulliken charges =  -0.00000

 Dipole moment (field-independent basis, Debye):
    X=              2.7089    Y=             -0.9724    Z=              0.0477  Tot=              2.8785
 Quadrupole moment (field-independent basis, Debye-Ang):
   XX=           -389.8826   YY=           -406.4939   ZZ=           -386.8021
   XY=             -3.9279   XZ=            -25.0283   YZ=             21.8023

 Normal termination of Gaussian 16 at Sat Nov  5 11:33:17 2022.
