 Gaussian 16, Revision B.01,
 Gaussian 16:  ES64L-G16RevB.01 20-Dec-2017

 -----------------------------
 #p b3lyp/6-31g(d) opt SCF=XQC
 -----------------------------

 ------------------------------
 Gaussian input prepared by ASE
 ------------------------------
 Symbolic Z-matrix:
 Charge =  0 Multiplicity = 1

 SCF Done:  E(RB3LYP) =  -2023.30469048     A.U. after   16 cycles
 SCF Done:  E(RB3LYP) =  -2023.32015673     A.U. after   15 cycles
 SCF Done:  E(RB3LYP) =  -2023.32752604     A.U. after   15 cycles
 SCF Done:  E(RB3LYP) =  -2023.32877741     A.U. after   13 cycles
 SCF Done:  E(RB3LYP) =  -2023.32927588     A.U. after   13 cycles
 SCF Done:  E(RB3LYP) =  -2023.32953254     A.U. after   12 cycles
 SCF Done:  E(RB3LYP) =  -2023.32966042     A.U. after   12 cycles
 SCF Done:  E(RB3LYP) =  -2023.32968081     A.U. after   10 cycles
 SCF Done:  E(RB3LYP) =  -2023.32969068     A.U. after   10 cycles
 SCF Done:  E(RB3LYP) =  -2023.32969435     A.U. after   10 cycles
 SCF Done:  E(RB3LYP) =  -2023.32969561     A.U. after    9 cycles
 SCF Done:  E(RB3LYP) =  -2023.32969589     A.U. after    7 cycles
 SCF Done:  E(RB3LYP) =  -2023.32969592     A.U. after    6 cycles
 SCF Done:  E(RB3LYP) =  -2023.32969593     A.U. after    6 cycles
 Optimization completed.
    -- Stationary point found.

                         Standard orientation:
 ---------------------------------------------------------------------
 Center     Atomic      Atomic             Coordinates (Angstroms)
 Number     Number       Type             X           Y           Z
 ---------------------------------------------------------------------
      1          6           0       -2.538740   -8.639220    0.434221
      2          6           0       -2.639508   -7.146763    0.233188
      3          6           0       -1.526547   -6.347091    0.393751
      4          6           0       -1.595844   -4.944616    0.206242
      5          7           0       -0.476982   -4.183521    0.307573
      6          6           0       -0.580687   -2.875293    0.129009
      7          6           0        0.712441   -2.135013    0.117527
      8          6           0        1.730224   -2.517084    1.006000
      9          6           0        2.975344   -1.897739    0.980576
     10          6           0        3.232475   -0.875129    0.058208
     11          7           0        4.500004   -0.236019    0.034855
     12          6           0        5.325327   -0.079349   -1.085056
     13          6           0        5.138394   -0.527222   -2.396994
     14          6           0        6.140506   -0.252307   -3.323471
     15          6           0        7.307047    0.446057   -2.962750
     16          6           0        7.495702    0.876149   -1.654106
     17          6           0        6.503756    0.611871   -0.701665
     18          6           0        6.383924    0.884563    0.713418
     19          6           0        7.176221    1.528342    1.668311
     20          6           0        6.686297    1.604235    2.968934
     21          7           0        5.497997    1.106416    3.362791
     22          6           0        4.732471    0.489503    2.460950
     23          6           0        5.142899    0.347460    1.131850
     24          6           0        2.229410   -0.492071   -0.841199
     25          6           0        0.987760   -1.121153   -0.813550
     26          6           0       -1.875249   -2.259952   -0.083790
     27          6           0       -2.114444   -0.789733   -0.086935
     28          6           0       -1.489990    0.073653    0.827182
     29          6           0       -1.795008    1.431525    0.851869
     30          6           0       -2.718286    1.961909   -0.057724
     31          7           0       -3.014232    3.350632   -0.048664
     32          6           0       -4.288709    3.921902    0.042420
     33          6           0       -5.532786    3.299652    0.190139
     34          6           0       -6.657231    4.115565    0.279958
     35          6           0       -6.556852    5.517856    0.230280
     36          6           0       -5.316735    6.132501    0.097734
     37          6           0       -4.168948    5.335431    0.005858
     38          6           0       -2.758179    5.629853   -0.114766
     39          6           0       -1.994614    6.796616   -0.214166
     40          6           0       -0.615757    6.656823   -0.343565
     41          7           0        0.026713    5.473415   -0.386353
     42          6           0       -0.690090    4.352404   -0.289802
     43          6           0       -2.080146    4.387500   -0.142792
     44          6           0       -3.348004    1.110517   -0.974990
     45          6           0       -3.060192   -0.250291   -0.973534
     46          7           0       -2.957857   -3.004853   -0.249485
     47          6           0       -2.843796   -4.352211   -0.134703
     48          6           0       -3.977564   -5.183824   -0.307541
     49          6           0       -3.896670   -6.550139   -0.132664
     50          6           0       -5.120343   -7.414082   -0.317742
     51          1           0       -1.519885   -8.930849    0.703878
     52          1           0       -2.817054   -9.189726   -0.473588
     53          1           0       -3.209619   -8.986186    1.230629
     54          1           0       -0.562962   -6.774368    0.656809
     55          1           0        1.539097   -3.323811    1.705597
     56          1           0        3.758173   -2.213554    1.662897
     57          1           0        4.248366   -1.076551   -2.684288
     58          1           0        6.016564   -0.589375   -4.349027
     59          1           0        8.066604    0.645200   -3.713020
     60          1           0        8.401155    1.406132   -1.370860
     61          1           0        8.138784    1.962044    1.412671
     62          1           0        7.270609    2.095142    3.744447
     63          1           0        3.774995    0.106642    2.806798
     64          1           0        2.422274    0.304291   -1.552820
     65          1           0        0.226939   -0.816897   -1.524665
     66          1           0       -0.778998   -0.319790    1.545900
     67          1           0       -1.331728    2.082103    1.586795
     68          1           0       -5.620703    2.219714    0.241081
     69          1           0       -7.634625    3.654811    0.394678
     70          1           0       -7.456034    6.122752    0.301658
     71          1           0       -5.236248    7.215914    0.070514
     72          1           0       -2.452484    7.781557   -0.197735
     73          1           0        0.017124    7.538277   -0.423062
     74          1           0       -0.144168    3.412653   -0.333866
     75          1           0       -4.051513    1.521579   -1.692123
     76          1           0       -3.562602   -0.913427   -1.669745
     77          1           0       -4.917892   -4.707567   -0.570742
     78          1           0       -4.971307   -8.162908   -1.106270
     79          1           0       -5.989936   -6.809475   -0.590029
     80          1           0       -5.368114   -7.966443    0.597749
 ---------------------------------------------------------------------

 The electronic state is 1-A.
 Alpha  occ. eigenvalues --  -14.39185 -14.39085 -14.34738 -14.34711 -14.32109
 Alpha  occ. eigenvalues --  -14.32007 -10.24918 -10.24881 -10.24700 -10.24629
 Alpha  occ. eigenvalues --  -10.23364 -10.23241 -10.23194 -10.23149 -10.22984
 Alpha  occ. eigenvalues --  -10.22868 -10.21773 -10.21669 -10.21347 -10.21306
 Alpha  occ. eigenvalues --  -10.21267 -10.21201 -10.20848 -10.20738 -10.20698
 Alpha  occ. eigenvalues --  -10.20666 -10.20557 -10.20553 -10.20502 -10.20441
 Alpha  occ. eigenvalues --  -10.20427 -10.20325 -10.20200 -10.20072 -10.19692
 Alpha  occ. eigenvalues --  -10.19684 -10.19675 -10.19622 -10.19599 -10.19543
 Alpha  occ. eigenvalues --  -10.19542 -10.19535 -10.19520 -10.19482 -10.19468
 Alpha  occ. eigenvalues --  -10.19409 -10.19374 -10.19249 -10.18897 -10.18756
 Alpha  occ. eigenvalues --   -0.99925  -0.99804  -0.98497  -0.92654  -0.92546
 Alpha  occ. eigenvalues --   -0.91645  -0.88060  -0.87407  -0.86502  -0.84934
 Alpha  occ. eigenvalues --   -0.84749  -0.81872  -0.81373  -0.79735  -0.77920
 Alpha  occ. eigenvalues --   -0.76707  -0.76662  -0.76418  -0.76285  -0.75599
 Alpha  occ. eigenvalues --   -0.75456  -0.74200  -0.74079  -0.73280  -0.73011
 Alpha  occ. eigenvalues --   -0.70774  -0.70048  -0.66558  -0.66172  -0.64834
 Alpha  occ. eigenvalues --   -0.64215  -0.63188  -0.62970  -0.61991  -0.61552
 Alpha  occ. eigenvalues --   -0.61167  -0.60961  -0.60743  -0.58567  -0.58461
 Alpha  occ. eigenvalues --   -0.58408  -0.58293  -0.54612  -0.54498  -0.53696
 Alpha  occ. eigenvalues --   -0.53012  -0.52663  -0.51704  -0.51692  -0.51111
 Alpha  occ. eigenvalues --   -0.50944  -0.48371  -0.48358  -0.47797  -0.47423
 Alpha  occ. eigenvalues --   -0.47328  -0.47180  -0.46145  -0.46035  -0.45328
 Alpha  occ. eigenvalues --   -0.45062  -0.44854  -0.44529  -0.44201  -0.44166
 Alpha  occ. eigenvalues --   -0.44024  -0.43890  -0.43749  -0.43665  -0.43597
 Alpha  occ. eigenvalues --   -0.43410  -0.43283  -0.43062  -0.42434  -0.42121
 Alpha  occ. eigenvalues --   -0.41116  -0.40876  -0.40309  -0.40114  -0.39901
 Alpha  occ. eigenvalues --   -0.38966  -0.38883  -0.38506  -0.38058  -0.37423
 Alpha  occ. eigenvalues --   -0.37257  -0.37106  -0.36977  -0.36499  -0.36281
 Alpha  occ. eigenvalues --   -0.35803  -0.35566  -0.35476  -0.35272  -0.34602
 Alpha  occ. eigenvalues --   -0.34452  -0.34239  -0.34103  -0.33257  -0.32983
 Alpha  occ. eigenvalues --   -0.30778  -0.29824  -0.29671  -0.27687  -0.27313
 Alpha  occ. eigenvalues --   -0.26836  -0.26252  -0.25801  -0.25683  -0.25049
 Alpha  occ. eigenvalues --   -0.24665  -0.24574  -0.23823  -0.23493  -0.23010
 Alpha  occ. eigenvalues --   -0.22876  -0.20537  -0.20213
 Alpha virt. eigenvalues --   -0.07595  -0.05509  -0.03988  -0.03869  -0.02318
 Alpha virt. eigenvalues --   -0.01410  -0.00848  -0.00251   0.00035   0.00162
 Alpha virt. eigenvalues --    0.01116   0.02546   0.02736   0.03437   0.03557

 Mulliken charges:
               1
     1  C   -0.535650
     2  C    0.139318
     3  C   -0.232797
     4  C    0.296338
     5  N   -0.541716
     6  C    0.190717
     7  C    0.094100
     8  C   -0.165230
     9  C   -0.160282
    10  C    0.279335
    11  N   -0.741489
    12  C    0.314952
    13  C   -0.172308
    14  C   -0.139155
    15  C   -0.144383
    16  C   -0.191967
    17  C    0.063555
    18  C    0.084642
    19  C   -0.206528
    20  C    0.024191
    21  N   -0.427430
    22  C    0.008394
    23  C    0.291290
    24  C   -0.163515
    25  C   -0.174474
    26  C    0.191403
    27  C    0.094009
    28  C   -0.173491
    29  C   -0.160434
    30  C    0.276562
    31  N   -0.739987
    32  C    0.313997
    33  C   -0.173392
    34  C   -0.139636
    35  C   -0.144681
    36  C   -0.192609
    37  C    0.062936
    38  C    0.084495
    39  C   -0.207251
    40  C    0.023807
    41  N   -0.426134
    42  C    0.007181
    43  C    0.289858
    44  C   -0.161254
    45  C   -0.165105
    46  N   -0.543209
    47  C    0.296750
    48  C   -0.232896
    49  C    0.139439
    50  C   -0.535582
    51  H    0.164572
    52  H    0.164585
    53  H    0.164760
    54  H    0.140219
    55  H    0.156248
    56  H    0.157066
    57  H    0.144763
    58  H    0.132053
    59  H    0.129149
    60  H    0.135225
    61  H    0.134601
    62  H    0.136029
    63  H    0.144157
    64  H    0.158744
    65  H    0.150261
    66  H    0.152390
    67  H    0.159266
    68  H    0.146665
    69  H    0.132258
    70  H    0.129152
    71  H    0.135166
    72  H    0.134468
    73  H    0.136582
    74  H    0.145456
    75  H    0.154607
    76  H    0.154487
    77  H    0.138975
    78  H    0.164595
    79  H    0.163930
    80  H    0.164891
 Sum of Mulliken charges =  -0.00000

 Dipole moment (field-independent basis, Debye):
    X=             -3.7308    Y=             -4.1587    Z=             -2.3045  Tot=              6.0435
 Quadrupole moment (field-independent basis, Debye-Ang):
   XX=           -259.3670   YY=           -252.4847   ZZ=           -288.5405
   XY=              5.8197   XZ=             -9.7093   YZ=             -2.3543

 1\1\GINC-NODE18\FOpt\RB3LYP\6-31G(d)\C44H30N6\WYKGROUP\05-Nov-2022\0\\
 #p b3lyp/6-31g(d) opt SCF=XQC\\Gaussian input prepared by ASE\\0,1\C,1
 .0533638798,8.6733652104,-0.3420138905\C,0.3895848203,7.3335917817,-0.
 1360942581\C,1.09225986,6.1677472963,-0.3619097743\C,0.4917710959,4.89
 88986872,-0.1712944992\N,1.2180960035,3.7649035651,-0.3383072903\C,0.6
 222452952,2.5964431363,-0.1545648175\C,1.5229476503,1.4111626515,-0.21
 91526444\C,2.5598003542,1.3874870243,-1.1655263119\C,3.4642757098,0.33
 19314102,-1.213331763\C,3.3514789097,-0.7312581407,-0.3080606461\N,4.2

 Normal termination of Gaussian 16 at Sat Nov  5 01:11:56 2022.
