 Gaussian 16, Revision B.01,
 Gaussian 16:  ES64L-G16RevB.01 20-Dec-2017

 -------------------------------------------------------------------
 #p b3lyp/6-31g(d) 6D 10F nosymm GFInput td=(50-50,nstate=2) SCF=XQC
 -------------------------------------------------------------------

 ------------------------------
 Gaussian input prepared by ASE
 ------------------------------
 Symbolic Z-matrix:
 Charge =  0 Multiplicity = 1

                          Input orientation:
 ---------------------------------------------------------------------
 Center     Atomic      Atomic             Coordinates (Angstroms)
 Number     Number       Type             X           Y           Z
 ---------------------------------------------------------------------
      1          6           0        1.053364    8.673365   -0.342014
      2          6           0        0.389585    7.333592   -0.136094
      3          6           0        1.092260    6.167747   -0.361910
      4          6           0        0.491771    4.898899   -0.171294
      5          7           0        1.218096    3.764904   -0.338307
      6          6           0        0.622245    2.596443   -0.154565
      7          6           0        1.522948    1.411163   -0.219153
      8          6           0        2.559800    1.387487   -1.165526
      9          6           0        3.464276    0.331931   -1.213332
     10          6           0        3.351479   -0.731258   -0.308061
     11          7           0        4.268736   -1.813688   -0.359255
     12          6           0        5.026536   -2.305233    0.710337
     13          6           0        5.099841   -1.850546    2.031172
     14          6           0        5.963656   -2.515292    2.897257
     15          6           0        6.744329   -3.604050    2.468535
     16          6           0        6.679718   -4.043111    1.150897
     17          6           0        5.819706   -3.391513    0.258292
     18          6           0        5.527163   -3.563084   -1.147468
     19          6           0        5.953155   -4.442098   -2.147404
     20          6           0        5.403285   -4.291056   -3.417142
     21          7           0        4.483854   -3.360960   -3.740520
     22          6           0        4.069146   -2.515872   -2.795125
     23          6           0        4.573261   -2.575720   -1.492274
     24          6           0        2.328359   -0.714475    0.648365
     25          6           0        1.430752    0.348748    0.693751
     26          6           0       -0.796316    2.528751    0.133396
     27          6           0       -1.589312    1.267936    0.149883
     28          6           0       -1.401054    0.251080   -0.799618
     29          6           0       -2.212248   -0.880013   -0.807012
     30          6           0       -3.218920   -1.030187    0.154844
     31          7           0       -4.032964   -2.193583    0.162506
     32          6           0       -5.432209   -2.221447    0.145949
     33          6           0       -6.341166   -1.160779    0.071609
     34          6           0       -7.697816   -1.472349    0.047420
     35          6           0       -8.149661   -2.803868    0.090505
     36          6           0       -7.242195   -3.855639    0.149934
     37          6           0       -5.871325   -3.570553    0.174802
     38          6           0       -4.682759   -4.393594    0.212479
     39          6           0       -4.430443   -5.767519    0.266474
     40          6           0       -3.101429   -6.178498    0.314975
     41          7           0       -2.047079   -5.339828    0.320601
     42          6           0       -2.274095   -4.026300    0.266691
     43          6           0       -3.573525   -3.514144    0.201313
     44          6           0       -3.416525   -0.022400    1.107792
     45          6           0       -2.621408    1.118702    1.090096
     46          7           0       -1.492169    3.632226    0.362533
     47          6           0       -0.868112    4.831206    0.241873
     48          6           0       -1.576800    6.034276    0.481175
     49          6           0       -0.979071    7.265020    0.302474
     50          6           0       -1.757142    8.532571    0.559275
     51          1           0        2.089194    8.551605   -0.670736
     52          1           0        1.060965    9.267523    0.580782
     53          1           0        0.529130    9.272508   -1.097617
     54          1           0        2.130529    6.192258   -0.680748
     55          1           0        2.661067    2.221013   -1.852370
     56          1           0        4.270385    0.333905   -1.940178
     57          1           0        4.511299   -1.004948    2.370334
     58          1           0        6.036269   -2.180500    3.928461
     59          1           0        7.405245   -4.100515    3.172952
     60          1           0        7.290201   -4.876993    0.814881
     61          1           0        6.682642   -5.222076   -1.948760
     62          1           0        5.707330   -4.952515   -4.225759
     63          1           0        3.319661   -1.782595   -3.084143
     64          1           0        2.233377   -1.539412    1.347114
     65          1           0        0.650928    0.348184    1.448058
     66          1           0       -0.632669    0.353344   -1.558559
     67          1           0       -2.079543   -1.642337   -1.568096
     68          1           0       -6.003626   -0.130919    0.026387
     69          1           0       -8.422815   -0.664964   -0.009665
     70          1           0       -9.215960   -3.009233    0.071631
     71          1           0       -7.589195   -4.885255    0.171908
     72          1           0       -5.236290   -6.495896    0.276440
     73          1           0       -2.859068   -7.238367    0.356883
     74          1           0       -1.403440   -3.374451    0.279135
     75          1           0       -4.184985   -0.143763    1.864704
     76          1           0       -2.787268    1.908720    1.814828
     77          1           0       -2.612780    5.955608    0.798772
     78          1           0       -1.285769    9.145785    1.338059
     79          1           0       -2.777657    8.307969    0.881742
     80          1           0       -1.818734    9.158931   -0.339889
 ---------------------------------------------------------------------

 SCF Done:  E(RB3LYP) =  -2023.32969344     A.U. after   15 cycles

 Excitation energies and oscillator strengths:

 Excited state symmetry could not be determined.
 Excited State   1:      Triplet-?Sym    2.5734 eV  481.79 nm  f=0.0000  <S**2>=2.000
     163 ->169         0.55814
     164 ->170        -0.20225
     167 ->169         0.24437
     168 ->170         0.18906
 This state for optimization and/or second-order correction.
 Total Energy, E(TD-HF/TD-DFT) =  -2023.23512312
 Copying the excited state density for this state as the 1-particle RhoCI density.

 Excited state symmetry could not be determined.
 Excited State   2:      Triplet-?Sym    2.7251 eV  454.97 nm  f=0.0000  <S**2>=2.000
     164 ->169        -0.34696
     167 ->169         0.10990
     167 ->170         0.11595
     168 ->169         0.56526

 Excited state symmetry could not be determined.
 Excited State   3:      Singlet-?Sym    3.0491 eV  406.62 nm  f=0.1832  <S**2>=0.000
     168 ->169         0.70160

 Excited state symmetry could not be determined.
 Excited State   4:      Singlet-?Sym    3.1352 eV  395.46 nm  f=0.0594  <S**2>=0.000
     167 ->169         0.69889

 Alpha  occ. eigenvalues --  -14.39185 -14.39085 -14.34738 -14.34711 -14.32109
 Alpha  occ. eigenvalues --  -14.32007 -10.24918 -10.24881 -10.24700 -10.24629
 Alpha  occ. eigenvalues --  -10.23364 -10.23241 -10.23194 -10.23149 -10.22984
 Alpha  occ. eigenvalues --  -10.22868 -10.21773 -10.21669 -10.21347 -10.21306
 Alpha  occ. eigenvalues --  -10.21267 -10.21201 -10.20848 -10.20738 -10.20698
 Alpha  occ. eigenvalues --  -10.20666 -10.20557 -10.20553 -10.20502 -10.20441
 Alpha  occ. eigenvalues --  -10.20427 -10.20325 -10.20200 -10.20072 -10.19692
 Alpha  occ. eigenvalues --  -10.19684 -10.19675 -10.19622 -10.19599 -10.19543
 Alpha  occ. eigenvalues --  -10.19542 -10.19535 -10.19520 -10.19482 -10.19468
 Alpha  occ. eigenvalues --  -10.19409 -10.19374 -10.19249 -10.18897 -10.18756
 Alpha  occ. eigenvalues --   -0.99925  -0.99804  -0.98497  -0.92654  -0.92546
 Alpha  occ. eigenvalues --   -0.91645  -0.88060  -0.87407  -0.86502  -0.84934
 Alpha  occ. eigenvalues --   -0.84749  -0.81872  -0.81373  -0.79735  -0.77919
 Alpha  occ. eigenvalues --   -0.76707  -0.76662  -0.76418  -0.76285  -0.75599
 Alpha  occ. eigenvalues --   -0.75456  -0.74200  -0.74079  -0.73280  -0.73011
 Alpha  occ. eigenvalues --   -0.70774  -0.70048  -0.66558  -0.66171  -0.64834
 Alpha  occ. eigenvalues --   -0.64215  -0.63188  -0.62970  -0.61991  -0.61552
 Alpha  occ. eigenvalues --   -0.61167  -0.60961  -0.60743  -0.58567  -0.58461
 Alpha  occ. eigenvalues --   -0.58408  -0.58293  -0.54612  -0.54498  -0.53696
 Alpha  occ. eigenvalues --   -0.53012  -0.52663  -0.51704  -0.51692  -0.51111
 Alpha  occ. eigenvalues --   -0.50944  -0.48371  -0.48358  -0.47797  -0.47423
 Alpha  occ. eigenvalues --   -0.47328  -0.47180  -0.46145  -0.46035  -0.45328
 Alpha  occ. eigenvalues --   -0.45062  -0.44854  -0.44529  -0.44201  -0.44166
 Alpha  occ. eigenvalues --   -0.44024  -0.43890  -0.43749  -0.43665  -0.43597
 Alpha  occ. eigenvalues --   -0.43410  -0.43283  -0.43062  -0.42434  -0.42121
 Alpha  occ. eigenvalues --   -0.41116  -0.40876  -0.40309  -0.40114  -0.39901
 Alpha  occ. eigenvalues --   -0.38966  -0.38883  -0.38506  -0.38058  -0.37423
 Alpha  occ. eigenvalues --   -0.37257  -0.37106  -0.36977  -0.36499  -0.36281
 Alpha  occ. eigenvalues --   -0.35803  -0.35566  -0.35476  -0.35272  -0.34602
 Alpha  occ. eigenvalues --   -0.34452  -0.34239  -0.34103  -0.33257  -0.32983
 Alpha  occ. eigenvalues --   -0.30778  -0.29824  -0.29671  -0.27687  -0.27313
 Alpha  occ. eigenvalues --   -0.26836  -0.26252  -0.25801  -0.25683  -0.25049
 Alpha  occ. eigenvalues --   -0.24665  -0.24574  -0.23823  -0.23493  -0.23010
 Alpha  occ. eigenvalues --   -0.22876  -0.20537  -0.20213
 Alpha virt. eigenvalues --   -0.07595  -0.05509  -0.03988  -0.03869  -0.02318
 Alpha virt. eigenvalues --   -0.01410  -0.00848  -0.00251   0.00035   0.00162
 Alpha virt. eigenvalues --    0.01116   0.02546   0.02736   0.03437   0.03557

 Mulliken charges:
               1
     1  C   -0.535649
     2  C    0.139334
     3  C   -0.232800
     4  C    0.296338
     5  N   -0.541722
     6  C    0.190707
     7  C    0.094121
     8  C   -0.165239
     9  C   -0.160286
    10  C    0.279354
    11  N   -0.741490
    12  C    0.314961
    13  C   -0.172315
    14  C   -0.139158
    15  C   -0.144380
    16  C   -0.191961
    17  C    0.063548
    18  C    0.084632
    19  C   -0.206526
    20  C    0.024197
    21  N   -0.427437
    22  C    0.008396
    23  C    0.291288
    24  C   -0.163517
    25  C   -0.174483
    26  C    0.191405
    27  C    0.094018
    28  C   -0.173492
    29  C   -0.160440
    30  C    0.276567
    31  N   -0.739986
    32  C    0.313984
    33  C   -0.173395
    34  C   -0.139626
    35  C   -0.144684
    36  C   -0.192620
    37  C    0.062951
    38  C    0.084501
    39  C   -0.207261
    40  C    0.023812
    41  N   -0.426136
    42  C    0.007193
    43  C    0.289852
    44  C   -0.161256
    45  C   -0.165110
    46  N   -0.543216
    47  C    0.296767
    48  C   -0.232895
    49  C    0.139424
    50  C   -0.535583
    51  H    0.164571
    52  H    0.164584
    53  H    0.164760
    54  H    0.140219
    55  H    0.156248
    56  H    0.157066
    57  H    0.144763
    58  H    0.132053
    59  H    0.129148
    60  H    0.135225
    61  H    0.134601
    62  H    0.136029
    63  H    0.144157
    64  H    0.158741
    65  H    0.150263
    66  H    0.152391
    67  H    0.159266
    68  H    0.146669
    69  H    0.132257
    70  H    0.129152
    71  H    0.135166
    72  H    0.134468
    73  H    0.136582
    74  H    0.145451
    75  H    0.154606
    76  H    0.154488
    77  H    0.138975
    78  H    0.164596
    79  H    0.163930
    80  H    0.164892
 Sum of Mulliken charges =  -0.00000

 Dipole moment (field-independent basis, Debye):
    X=             -1.6842    Y=              5.2280    Z=              2.5210  Tot=              6.0435
 Quadrupole moment (field-independent basis, Debye-Ang):
   XX=           -261.8568   YY=           -252.0292   ZZ=           -289.8853
   XY=             -1.3506   XZ=              6.7381   YZ=             -5.9548

 Normal termination of Gaussian 16 at Sat Nov  5 10:45:45 2022.
