 Gaussian 16, Revision B.01,
 Gaussian 16:  ES64L-G16RevB.01 20-Dec-2017

 -----------------------------
 #p b3lyp/6-31g(d) opt SCF=XQC
 -----------------------------

 ------------------------------
 Gaussian input prepared by ASE
 ------------------------------
 Symbolic Z-matrix:
 Charge =  0 Multiplicity = 1

 SCF Done:  E(RB3LYP) =  -1455.52257068     A.U. after   16 cycles
 SCF Done:  E(RB3LYP) =  -1455.52965232     A.U. after   12 cycles
 SCF Done:  E(RB3LYP) =  -1455.52987280     A.U. after   10 cycles
 SCF Done:  E(RB3LYP) =  -1455.52989936     A.U. after    9 cycles
 SCF Done:  E(RB3LYP) =  -1455.52990115     A.U. after    8 cycles
 Optimization completed.
    -- Stationary point found.

                         Standard orientation:
 ---------------------------------------------------------------------
 Center     Atomic      Atomic             Coordinates (Angstroms)
 Number     Number       Type             X           Y           Z
 ---------------------------------------------------------------------
      1          6           0       -9.337850    0.000025   -0.096591
      2          6           0       -7.830712    0.000008   -0.010757
      3          6           0       -7.170822    0.000366    1.227137
      4          6           0       -5.780811    0.000375    1.260065
      5          6           0       -5.061083    0.000023    0.056851
      6          6           0       -3.565993    0.000008    0.026087
      7          6           0       -2.861531   -1.223779    0.012218
      8          6           0       -3.539229   -2.486185    0.022880
      9          6           0       -2.848214   -3.668281    0.009325
     10          6           0       -1.426149   -3.667988   -0.015872
     11          6           0       -0.735977   -2.485445   -0.027170
     12          6           0       -1.415214   -1.223804   -0.013973
     13          6           0       -0.711717   -0.000018   -0.025920
     14          6           0        0.785704   -0.000032   -0.052530
     15          6           0        1.483208   -0.000557   -1.272039
     16          6           0        2.873259   -0.000568   -1.301622
     17          6           0        3.605070   -0.000052   -0.102881
     18          6           0        5.062741   -0.000072   -0.156395
     19          7           0        5.819053   -0.000528   -1.214472
     20          6           0        7.118890   -0.000309   -0.717242
     21          6           0        8.357522   -0.000585   -1.365636
     22          6           0        9.499313   -0.000236   -0.565516
     23          6           0        9.416922    0.000371    0.839600
     24          6           0        8.186022    0.000653    1.501391
     25          6           0        7.066174    0.000297    0.684498
     26          8           0        5.742351    0.000450    1.046162
     27          6           0        2.917574    0.000473    1.120343
     28          6           0        1.525309    0.000481    1.139770
     29          6           0       -1.415196    1.223780   -0.014223
     30          6           0       -0.735941    2.485409   -0.027734
     31          6           0       -1.426096    3.667964   -0.016699
     32          6           0       -2.848160    3.668283    0.008515
     33          6           0       -3.539193    2.486200    0.022342
     34          6           0       -2.861512    1.223782    0.011971
     35          6           0       -5.815365   -0.000322   -1.123510
     36          7           0       -7.153004   -0.000334   -1.169413
     37          1           0       -9.765487   -0.882116    0.395982
     38          1           0       -9.645583   -0.000758   -1.144329
     39          1           0       -9.765367    0.883005    0.394587
     40          1           0       -7.744576    0.000629    2.150319
     41          1           0       -5.249825    0.000645    2.208580
     42          1           0       -4.623446   -2.493030    0.040456
     43          1           0       -3.386485   -4.612207    0.016478
     44          1           0       -0.887441   -4.611612   -0.027178
     45          1           0        0.348250   -2.491020   -0.047522
     46          1           0        0.924262   -0.000954   -2.203587
     47          1           0        3.409896   -0.000969   -2.244614
     48          1           0        8.417383   -0.001054   -2.449188
     49          1           0       10.478801   -0.000436   -1.035164
     50          1           0       10.331637    0.000628    1.425289
     51          1           0        8.110362    0.001121    2.583488
     52          1           0        3.475530    0.000870    2.050687
     53          1           0        1.000342    0.000888    2.090884
     54          1           0        0.348285    2.490963   -0.048125
     55          1           0       -0.887375    4.611578   -0.028243
     56          1           0       -3.386418    4.612218    0.015448
     57          1           0       -4.623409    2.493064    0.039904
     58          1           0       -5.306148   -0.000608   -2.086363
 ---------------------------------------------------------------------

 The electronic state is 1-A.
 Alpha  occ. eigenvalues --  -19.22378 -14.33278 -14.32597 -10.28788 -10.24934
 Alpha  occ. eigenvalues --  -10.22990 -10.22017 -10.21996 -10.21453 -10.20958
 Alpha  occ. eigenvalues --  -10.20774 -10.20449 -10.20431 -10.20398 -10.20336
 Alpha  occ. eigenvalues --  -10.20333 -10.20321 -10.20294 -10.20286 -10.20254
 Alpha  occ. eigenvalues --  -10.20084 -10.20000 -10.19908 -10.19844 -10.19722
 Alpha  occ. eigenvalues --  -10.19656 -10.19450 -10.19172 -10.19172 -10.19128
 Alpha  occ. eigenvalues --  -10.19128 -10.18943 -10.18943 -10.18938 -10.18938
 Alpha  occ. eigenvalues --  -10.18153  -1.12812  -0.93982  -0.92798  -0.88878
 Alpha  occ. eigenvalues --   -0.87117  -0.85346  -0.84838  -0.82326  -0.80845
 Alpha  occ. eigenvalues --   -0.79084  -0.77957  -0.76583  -0.75735  -0.75212
 Alpha  occ. eigenvalues --   -0.75062  -0.73877  -0.73315  -0.71280  -0.69070
 Alpha  occ. eigenvalues --   -0.65717  -0.64197  -0.63185  -0.62993  -0.61818
 Alpha  occ. eigenvalues --   -0.61389  -0.60505  -0.60369  -0.58988  -0.58691
 Alpha  occ. eigenvalues --   -0.56902  -0.54162  -0.53023  -0.52580  -0.51622
 Alpha  occ. eigenvalues --   -0.51205  -0.50357  -0.49434  -0.48698  -0.47779
 Alpha  occ. eigenvalues --   -0.46688  -0.46553  -0.46184  -0.46023  -0.45278
 Alpha  occ. eigenvalues --   -0.44881  -0.44739  -0.44323  -0.43333  -0.42991
 Alpha  occ. eigenvalues --   -0.42894  -0.42494  -0.41828  -0.40964  -0.40828
 Alpha  occ. eigenvalues --   -0.40800  -0.39918  -0.39442  -0.37942  -0.37865
 Alpha  occ. eigenvalues --   -0.37710  -0.37526  -0.37322  -0.37028  -0.36206
 Alpha  occ. eigenvalues --   -0.36067  -0.35815  -0.35645  -0.35091  -0.34559
 Alpha  occ. eigenvalues --   -0.33848  -0.33015  -0.32111  -0.30196  -0.29406
 Alpha  occ. eigenvalues --   -0.28987  -0.28421  -0.27345  -0.26414  -0.25394
 Alpha  occ. eigenvalues --   -0.25117  -0.24960  -0.24576  -0.24114  -0.22198
 Alpha  occ. eigenvalues --   -0.19380
 Alpha virt. eigenvalues --   -0.06562  -0.05589  -0.02536  -0.01750  -0.01265
 Alpha virt. eigenvalues --   -0.00509   0.00116   0.00956   0.01319   0.03868
 Alpha virt. eigenvalues --    0.06108   0.06308   0.09113   0.10100   0.10426

 Mulliken charges:
               1
     1  C   -0.520454
     2  C    0.311041
     3  C   -0.170179
     4  C   -0.114818
     5  C   -0.019030
     6  C   -0.081437
     7  C    0.108769
     8  C   -0.197802
     9  C   -0.133660
    10  C   -0.133885
    11  C   -0.198390
    12  C    0.107592
    13  C   -0.081526
    14  C    0.012266
    15  C   -0.156469
    16  C   -0.164026
    17  C    0.077020
    18  C    0.486218
    19  N   -0.541609
    20  C    0.251009
    21  C   -0.173346
    22  C   -0.143332
    23  C   -0.145006
    24  C   -0.186074
    25  C    0.336387
    26  O   -0.529535
    27  C   -0.172504
    28  C   -0.156304
    29  C    0.107592
    30  C   -0.198390
    31  C   -0.133886
    32  C   -0.133660
    33  C   -0.197802
    34  C    0.108769
    35  C    0.018720
    36  N   -0.460822
    37  H    0.161230
    38  H    0.178612
    39  H    0.161248
    40  H    0.132919
    41  H    0.147793
    42  H    0.144537
    43  H    0.131646
    44  H    0.131932
    45  H    0.146246
    46  H    0.146382
    47  H    0.169480
    48  H    0.146622
    49  H    0.133725
    50  H    0.135455
    51  H    0.147698
    52  H    0.156377
    53  H    0.143881
    54  H    0.146246
    55  H    0.131932
    56  H    0.131645
    57  H    0.144535
    58  H    0.148423
 Sum of Mulliken charges =  -0.00000

 Dipole moment (field-independent basis, Debye):
    X=              0.2137    Y=              0.0010    Z=              2.7728  Tot=              2.7810
 Quadrupole moment (field-independent basis, Debye-Ang):
   XX=           -181.1416   YY=           -196.5794   ZZ=           -200.9863
   XY=             -0.0018   XZ=             -7.7102   YZ=              0.0029

 Normal termination of Gaussian 16 at Fri Nov  4 23:36:20 2022.
