 Gaussian 16, Revision B.01,
 Gaussian 16:  ES64L-G16RevB.01 20-Dec-2017

 -------------------------------------------------------------------
 #p b3lyp/6-31g(d) 6D 10F nosymm GFInput td=(50-50,nstate=2) SCF=XQC
 -------------------------------------------------------------------

 ------------------------------
 Gaussian input prepared by ASE
 ------------------------------
 Symbolic Z-matrix:
 Charge =  0 Multiplicity = 1

                          Input orientation:
 ---------------------------------------------------------------------
 Center     Atomic      Atomic             Coordinates (Angstroms)
 Number     Number       Type             X           Y           Z
 ---------------------------------------------------------------------
      1          6           0       -9.031226   -0.340060   -0.425355
      2          6           0       -7.527176   -0.299673   -0.302739
      3          6           0       -6.886721   -0.584038    0.912493
      4          6           0       -5.498864   -0.535117    0.980848
      5          6           0       -4.761868   -0.202705   -0.164608
      6          6           0       -3.268096   -0.133437   -0.155131
      7          6           0       -2.507436   -1.284191   -0.457248
      8          6           0       -3.125864   -2.535349   -0.781605
      9          6           0       -2.380575   -3.646426   -1.073305
     10          6           0       -0.959839   -3.581269   -1.060282
     11          6           0       -0.325235   -2.406654   -0.756259
     12          6           0       -1.062448   -1.218092   -0.444628
     13          6           0       -0.416439   -0.002889   -0.130532
     14          6           0        1.079598    0.065429   -0.116973
     15          6           0        1.794649    0.400866   -1.278825
     16          6           0        3.183489    0.465517   -1.270961
     17          6           0        3.896361    0.194129   -0.091686
     18          6           0        5.353101    0.267583   -0.105206
     19          7           0        6.124457    0.564836   -1.109290
     20          6           0        7.415251    0.493274   -0.593979
     21          6           0        8.662178    0.707338   -1.188936
     22          6           0        9.790549    0.553089   -0.384656
     23          6           0        9.687079    0.196286    0.972962
     24          6           0        8.447673   -0.020828    1.581086
     25          6           0        7.341472    0.138542    0.761151
     26          8           0        6.013776   -0.006909    1.076393
     27          6           0        3.191249   -0.141831    1.074022
     28          6           0        1.800352   -0.204018    1.056273
     29          6           0       -1.176085    1.148463    0.169512
     30          6           0       -0.556024    2.399652    0.490958
     31          6           0       -1.300437    3.511844    0.780358
     32          6           0       -2.721200    3.447273    0.767504
     33          6           0       -3.356724    2.272431    0.466021
     34          6           0       -2.621072    1.082342    0.156889
     35          6           0       -5.497469    0.063293   -1.326645
     36          7           0       -6.832821    0.019794   -1.406181
     37          1           0       -9.424803   -1.334670   -0.181385
     38          1           0       -9.322787   -0.089520   -1.447450
     39          1           0       -9.506630    0.372326    0.260340
     40          1           0       -7.473699   -0.839980    1.790794
     41          1           0       -4.982800   -0.751968    1.912664
     42          1           0       -4.208734   -2.591017   -0.794778
     43          1           0       -2.874479   -4.583034   -1.317454
     44          1           0       -0.377784   -4.468609   -1.293943
     45          1           0        0.758265   -2.362294   -0.748888
     46          1           0        1.250410    0.612167   -2.194989
     47          1           0        3.733698    0.724788   -2.169439
     48          1           0        8.738298    0.982333   -2.235956
     49          1           0       10.775947    0.711528   -0.813436
     50          1           0       10.591876    0.086624    1.563768
     51          1           0        8.355795   -0.296108    2.626283
     52          1           0        3.734519   -0.352871    1.988995
     53          1           0        1.261676   -0.464850    1.962918
     54          1           0        0.526958    2.454782    0.501084
     55          1           0       -0.806003    4.449273    1.020192
     56          1           0       -3.302755    4.336035    0.997024
     57          1           0       -4.440231    2.230021    0.456275
     58          1           0       -4.974353    0.326551   -2.245031
 ---------------------------------------------------------------------

 SCF Done:  E(RB3LYP) =  -1455.52990528     A.U. after   15 cycles

 Excitation energies and oscillator strengths:

 Excited state symmetry could not be determined.
 Excited State   1:      Triplet-?Sym    1.7326 eV  715.59 nm  f=0.0000  <S**2>=2.000
     121 ->122         0.69953
     121 <-122         0.13886
 This state for optimization and/or second-order correction.
 Total Energy, E(TD-HF/TD-DFT) =  -1455.46623321
 Copying the excited state density for this state as the 1-particle RhoCI density.

 Excited state symmetry could not be determined.
 Excited State   2:      Triplet-?Sym    2.8455 eV  435.72 nm  f=0.0000  <S**2>=2.000
     120 ->123         0.65941

 Excited state symmetry could not be determined.
 Excited State   3:      Singlet-?Sym    3.1489 eV  393.74 nm  f=0.2404  <S**2>=0.000
     121 ->122         0.69891

 Excited state symmetry could not be determined.
 Excited State   4:      Singlet-?Sym    3.2383 eV  382.87 nm  f=0.0000  <S**2>=0.000
     121 ->123         0.70366

 Alpha  occ. eigenvalues --  -19.22378 -14.33278 -14.32597 -10.28788 -10.24934
 Alpha  occ. eigenvalues --  -10.22990 -10.22017 -10.21996 -10.21454 -10.20958
 Alpha  occ. eigenvalues --  -10.20774 -10.20449 -10.20431 -10.20398 -10.20336
 Alpha  occ. eigenvalues --  -10.20333 -10.20321 -10.20294 -10.20286 -10.20254
 Alpha  occ. eigenvalues --  -10.20084 -10.20000 -10.19908 -10.19844 -10.19722
 Alpha  occ. eigenvalues --  -10.19656 -10.19450 -10.19172 -10.19172 -10.19128
 Alpha  occ. eigenvalues --  -10.19128 -10.18943 -10.18943 -10.18938 -10.18938
 Alpha  occ. eigenvalues --  -10.18153  -1.12812  -0.93982  -0.92798  -0.88878
 Alpha  occ. eigenvalues --   -0.87117  -0.85346  -0.84838  -0.82326  -0.80845
 Alpha  occ. eigenvalues --   -0.79084  -0.77957  -0.76583  -0.75735  -0.75212
 Alpha  occ. eigenvalues --   -0.75062  -0.73877  -0.73315  -0.71280  -0.69070
 Alpha  occ. eigenvalues --   -0.65717  -0.64197  -0.63185  -0.62993  -0.61818
 Alpha  occ. eigenvalues --   -0.61389  -0.60505  -0.60369  -0.58988  -0.58691
 Alpha  occ. eigenvalues --   -0.56902  -0.54162  -0.53023  -0.52580  -0.51622
 Alpha  occ. eigenvalues --   -0.51205  -0.50357  -0.49434  -0.48698  -0.47779
 Alpha  occ. eigenvalues --   -0.46688  -0.46553  -0.46184  -0.46023  -0.45278
 Alpha  occ. eigenvalues --   -0.44881  -0.44739  -0.44323  -0.43333  -0.42991
 Alpha  occ. eigenvalues --   -0.42894  -0.42494  -0.41828  -0.40964  -0.40828
 Alpha  occ. eigenvalues --   -0.40800  -0.39918  -0.39442  -0.37942  -0.37865
 Alpha  occ. eigenvalues --   -0.37710  -0.37526  -0.37322  -0.37028  -0.36206
 Alpha  occ. eigenvalues --   -0.36067  -0.35815  -0.35645  -0.35091  -0.34559
 Alpha  occ. eigenvalues --   -0.33848  -0.33015  -0.32111  -0.30196  -0.29406
 Alpha  occ. eigenvalues --   -0.28987  -0.28421  -0.27345  -0.26414  -0.25394
 Alpha  occ. eigenvalues --   -0.25117  -0.24960  -0.24576  -0.24114  -0.22198
 Alpha  occ. eigenvalues --   -0.19380
 Alpha virt. eigenvalues --   -0.06562  -0.05589  -0.02536  -0.01750  -0.01265
 Alpha virt. eigenvalues --   -0.00509   0.00116   0.00956   0.01319   0.03868
 Alpha virt. eigenvalues --    0.06108   0.06308   0.09113   0.10100   0.10426

 Mulliken charges:
               1
     1  C   -0.520450
     2  C    0.311046
     3  C   -0.170187
     4  C   -0.114810
     5  C   -0.019040
     6  C   -0.081432
     7  C    0.108767
     8  C   -0.197803
     9  C   -0.133655
    10  C   -0.133888
    11  C   -0.198397
    12  C    0.107600
    13  C   -0.081517
    14  C    0.012257
    15  C   -0.156465
    16  C   -0.164027
    17  C    0.077014
    18  C    0.486213
    19  N   -0.541614
    20  C    0.251008
    21  C   -0.173344
    22  C   -0.143324
    23  C   -0.145011
    24  C   -0.186074
    25  C    0.336392
    26  O   -0.529534
    27  C   -0.172496
    28  C   -0.156307
    29  C    0.107588
    30  C   -0.198393
    31  C   -0.133880
    32  C   -0.133663
    33  C   -0.197808
    34  C    0.108779
    35  C    0.018713
    36  N   -0.460821
    37  H    0.161229
    38  H    0.178611
    39  H    0.161247
    40  H    0.132920
    41  H    0.147792
    42  H    0.144538
    43  H    0.131645
    44  H    0.131932
    45  H    0.146248
    46  H    0.146382
    47  H    0.169480
    48  H    0.146621
    49  H    0.133725
    50  H    0.135455
    51  H    0.147697
    52  H    0.156377
    53  H    0.143880
    54  H    0.146248
    55  H    0.131931
    56  H    0.131645
    57  H    0.144538
    58  H    0.148423
 Sum of Mulliken charges =  -0.00000

 Dipole moment (field-independent basis, Debye):
    X=              0.1717    Y=             -0.6888    Z=              2.6889  Tot=              2.7810
 Quadrupole moment (field-independent basis, Debye-Ang):
   XX=           -180.8461   YY=           -196.7021   ZZ=           -201.5519
   XY=              2.3620   XZ=             -6.2047   YZ=              0.9505

 Normal termination of Gaussian 16 at Sat Nov  5 10:04:08 2022.
