 Gaussian 16, Revision B.01,
 Gaussian 16:  ES64L-G16RevB.01 20-Dec-2017

 -----------------------------
 #p b3lyp/6-31g(d) opt SCF=XQC
 -----------------------------

 ------------------------------
 Gaussian input prepared by ASE
 ------------------------------
 Symbolic Z-matrix:
 Charge =  0 Multiplicity = 1

 SCF Done:  E(RB3LYP) =  -2440.91378775     A.U. after   16 cycles
 SCF Done:  E(RB3LYP) =  -2440.92640110     A.U. after   13 cycles
 SCF Done:  E(RB3LYP) =  -2440.92581905     A.U. after   13 cycles
 SCF Done:  E(RB3LYP) =  -2440.93034169     A.U. after   13 cycles
 SCF Done:  E(RB3LYP) =  -2440.93088960     A.U. after   12 cycles
 SCF Done:  E(RB3LYP) =  -2440.93099756     A.U. after   11 cycles
 SCF Done:  E(RB3LYP) =  -2440.93102057     A.U. after   10 cycles
 SCF Done:  E(RB3LYP) =  -2440.93103462     A.U. after   11 cycles
 SCF Done:  E(RB3LYP) =  -2440.93104211     A.U. after   11 cycles
 SCF Done:  E(RB3LYP) =  -2440.93105108     A.U. after   11 cycles
 SCF Done:  E(RB3LYP) =  -2440.93106460     A.U. after   11 cycles
 SCF Done:  E(RB3LYP) =  -2440.93107968     A.U. after   11 cycles
 SCF Done:  E(RB3LYP) =  -2440.93108378     A.U. after   11 cycles
 SCF Done:  E(RB3LYP) =  -2440.93108447     A.U. after   10 cycles
 SCF Done:  E(RB3LYP) =  -2440.93108457     A.U. after    7 cycles
 SCF Done:  E(RB3LYP) =  -2440.93108461     A.U. after    7 cycles
 SCF Done:  E(RB3LYP) =  -2440.93108461     A.U. after    5 cycles
 Optimization completed.
    -- Stationary point found.

                         Standard orientation:
 ---------------------------------------------------------------------
 Center     Atomic      Atomic             Coordinates (Angstroms)
 Number     Number       Type             X           Y           Z
 ---------------------------------------------------------------------
      1          6           0        2.972828    5.880929    0.703837
      2          6           0        1.985546    5.860027   -0.282892
      3          6           0        1.320819    4.672327   -0.587026
      4          6           0        1.629245    3.480015    0.088307
      5          6           0        0.901681    2.218119   -0.192400
      6          6           0       -0.478046    2.107698   -0.111953
      7          6           0       -1.487526    3.162800    0.136395
      8          6           0       -2.501390    3.442569   -0.794604
      9          6           0       -3.439363    4.444392   -0.547078
     10          6           0       -3.377513    5.188653    0.632337
     11          6           0       -2.370317    4.924787    1.562454
     12          6           0       -1.434871    3.920315    1.318100
     13          7           0       -0.833298    0.764736   -0.228252
     14          6           0       -2.188829    0.306123   -0.140001
     15          6           0       -2.894265   -0.015416   -1.303694
     16          6           0       -4.214804   -0.449781   -1.221655
     17          6           0       -4.863312   -0.562607    0.020931
     18          6           0       -6.297737   -0.957102    0.119659
     19          6           0       -7.167612   -0.106109    0.744162
     20          6           0       -8.569427   -0.371776    0.848856
     21          6           0       -9.430036    0.550083    1.490374
     22          6           0      -10.786756    0.311907    1.579265
     23          6           0      -11.322024   -0.863913    1.020452
     24          6           0      -10.498326   -1.777929    0.388217
     25          6           0       -9.103626   -1.564779    0.284177
     26          6           0       -8.193436   -2.503053   -0.360104
     27          6           0       -8.644952   -3.725701   -0.910297
     28          6           0       -7.774612   -4.628652   -1.490969
     29          6           0       -6.398874   -4.347733   -1.534541
     30          6           0       -5.924777   -3.160208   -1.011704
     31          6           0       -6.795809   -2.205458   -0.432221
     32          6           0       -4.140993   -0.226955    1.176994
     33          6           0       -2.817292    0.203520    1.101664
     34          6           0        0.324190   -0.000337   -0.343321
     35          6           0        0.474234   -1.430010   -0.249648
     36          6           0       -0.598015   -2.354478   -0.199772
     37          6           0       -0.378889   -3.707183   -0.019913
     38          6           0        0.929817   -4.192712    0.113380
     39          6           0        1.994649   -3.313569    0.053264
     40          6           0        1.814799   -1.922394   -0.132541
     41          6           0        2.953307   -1.017888   -0.277640
     42          6           0        4.291843   -1.500354   -0.166039
     43          6           0        5.401409   -0.731397   -0.416420
     44          6           0        6.750022   -1.337363   -0.220375
     45          6           0        7.653956   -1.494712   -1.313230
     46          6           0        8.875759   -2.101496   -1.143041
     47          6           0        9.281733   -2.591968    0.127269
     48          6           0       10.537195   -3.221069    0.338992
     49          6           0       10.892185   -3.684738    1.586185
     50          6           0       10.004577   -3.539417    2.680800
     51          6           0        8.779894   -2.934610    2.507051
     52          6           0        8.382828   -2.446197    1.232744
     53          6           0        7.127465   -1.816921    1.021283
     54          6           0        5.217702    0.603590   -0.922948
     55          6           0        6.308912    1.419125   -1.319375
     56          6           0        6.107054    2.636174   -1.936640
     57          6           0        4.796035    3.076535   -2.199402
     58          6           0        3.718290    2.334503   -1.762206
     59          6           0        3.886052    1.114486   -1.059348
     60          6           0        2.755575    0.348756   -0.572638
     61          6           0        1.419027    0.883116   -0.398202
     62          6           0        2.621873    3.516852    1.081855
     63          6           0        3.287651    4.703456    1.384966
     64          1           0        3.492753    6.805849    0.939284
     65          1           0        1.732013    6.770326   -0.820409
     66          1           0        0.557058    4.663343   -1.359194
     67          1           0       -2.548896    2.877414   -1.720354
     68          1           0       -4.215343    4.647305   -1.280518
     69          1           0       -4.107116    5.971114    0.823497
     70          1           0       -2.312460    5.500587    2.482360
     71          1           0       -0.651001    3.719119    2.041691
     72          1           0       -2.400872    0.074461   -2.267090
     73          1           0       -4.758664   -0.683921   -2.131996
     74          1           0       -6.796175    0.831416    1.150834
     75          1           0       -9.000835    1.455420    1.913208
     76          1           0      -11.438361    1.026226    2.074791
     77          1           0      -12.389460   -1.056805    1.084322
     78          1           0      -10.944795   -2.672298   -0.032119
     79          1           0       -9.699734   -3.974051   -0.873253
     80          1           0       -8.155766   -5.559211   -1.902557
     81          1           0       -5.707709   -5.063132   -1.971612
     82          1           0       -4.860280   -2.955978   -1.032879
     83          1           0       -4.621980   -0.316739    2.146607
     84          1           0       -2.265247    0.453286    2.002109
     85          1           0       -1.614765   -2.005109   -0.299142
     86          1           0       -1.224339   -4.389006    0.016450
     87          1           0        1.111669   -5.254853    0.252574
     88          1           0        2.995197   -3.720459    0.132998
     89          1           0        4.462106   -2.526119    0.136148
     90          1           0        7.355076   -1.143549   -2.296511
     91          1           0        9.547411   -2.222175   -1.990115
     92          1           0       11.216093   -3.330939   -0.503697
     93          1           0       11.855899   -4.164155    1.735754
     94          1           0       10.295540   -3.908400    3.660716
     95          1           0        8.097040   -2.821686    3.346023
     96          1           0        6.452531   -1.701344    1.866103
     97          1           0        7.318862    1.063584   -1.147419
     98          1           0        6.958372    3.238731   -2.242383
     99          1           0        4.627975    4.003087   -2.741272
    100          1           0        2.717274    2.674437   -1.987100
    101          1           0        2.871569    2.604251    1.615380
    102          1           0        4.054130    4.707584    2.155708
 ---------------------------------------------------------------------

 The electronic state is 1-A.
 Alpha  occ. eigenvalues --  -14.38873 -10.24056 -10.22060 -10.21889 -10.21384
 Alpha  occ. eigenvalues --  -10.20762 -10.20682 -10.20639 -10.20590 -10.20525
 Alpha  occ. eigenvalues --  -10.20504 -10.20500 -10.20377 -10.20313 -10.20224
 Alpha  occ. eigenvalues --  -10.19970 -10.19596 -10.19582 -10.19565 -10.19520
 Alpha  occ. eigenvalues --  -10.19494 -10.19489 -10.19485 -10.19457 -10.19427
 Alpha  occ. eigenvalues --  -10.19399 -10.19374 -10.19265 -10.19254 -10.19219
 Alpha  occ. eigenvalues --  -10.19210 -10.19186 -10.19131 -10.19072 -10.19067
 Alpha  occ. eigenvalues --  -10.19053 -10.19008 -10.18881 -10.18843 -10.18803
 Alpha  occ. eigenvalues --  -10.18710 -10.18672 -10.18623 -10.18617 -10.18589
 Alpha  occ. eigenvalues --  -10.18586 -10.18516 -10.18380 -10.18355 -10.18319
 Alpha  occ. eigenvalues --  -10.18262 -10.18181 -10.18134 -10.18103 -10.18043
 Alpha  occ. eigenvalues --  -10.17993 -10.17906 -10.17849 -10.17817 -10.17773
 Alpha  occ. eigenvalues --  -10.17571 -10.17556 -10.17395  -0.99156  -0.88902
 Alpha  occ. eigenvalues --   -0.87805  -0.87134  -0.86571  -0.85693  -0.85081
 Alpha  occ. eigenvalues --   -0.85018  -0.84577  -0.82624  -0.82173  -0.81401
 Alpha  occ. eigenvalues --   -0.80043  -0.78791  -0.78072  -0.77251  -0.76510
 Alpha  occ. eigenvalues --   -0.76201  -0.76106  -0.75619  -0.74991  -0.74852
 Alpha  occ. eigenvalues --   -0.74462  -0.73347  -0.73243  -0.73052  -0.72620
 Alpha  occ. eigenvalues --   -0.72140  -0.71292  -0.71247  -0.69628  -0.69167
 Alpha  occ. eigenvalues --   -0.64601  -0.63566  -0.63481  -0.62873  -0.62531
 Alpha  occ. eigenvalues --   -0.62081  -0.61622  -0.61310  -0.60775  -0.60435
 Alpha  occ. eigenvalues --   -0.60337  -0.59731  -0.59319  -0.59044  -0.58496
 Alpha  occ. eigenvalues --   -0.58428  -0.57819  -0.57296  -0.55067  -0.54408
 Alpha  occ. eigenvalues --   -0.53744  -0.53487  -0.53363  -0.51546  -0.50956
 Alpha  occ. eigenvalues --   -0.50763  -0.50504  -0.49916  -0.49580  -0.49089
 Alpha  occ. eigenvalues --   -0.48954  -0.48601  -0.48508  -0.47645  -0.47110
 Alpha  occ. eigenvalues --   -0.46743  -0.46034  -0.45902  -0.45294  -0.44981
 Alpha  occ. eigenvalues --   -0.44832  -0.44292  -0.44146  -0.43954  -0.43833
 Alpha  occ. eigenvalues --   -0.43466  -0.43428  -0.43234  -0.43060  -0.42722
 Alpha  occ. eigenvalues --   -0.42547  -0.42270  -0.42056  -0.41879  -0.41545
 Alpha  occ. eigenvalues --   -0.41237  -0.41191  -0.40915  -0.40846  -0.40697
 Alpha  occ. eigenvalues --   -0.40436  -0.40214  -0.40120  -0.39849  -0.39236
 Alpha  occ. eigenvalues --   -0.38977  -0.38248  -0.38087  -0.37967  -0.37624
 Alpha  occ. eigenvalues --   -0.37350  -0.36633  -0.36580  -0.36403  -0.36262
 Alpha  occ. eigenvalues --   -0.36197  -0.36065  -0.35577  -0.35257  -0.35034
 Alpha  occ. eigenvalues --   -0.34524  -0.34172  -0.34023  -0.33755  -0.33642
 Alpha  occ. eigenvalues --   -0.33269  -0.33213  -0.32667  -0.32643  -0.32572
 Alpha  occ. eigenvalues --   -0.31785  -0.31684  -0.31350  -0.30952  -0.28724
 Alpha  occ. eigenvalues --   -0.28597  -0.27752  -0.27314  -0.26914  -0.26552
 Alpha  occ. eigenvalues --   -0.26082  -0.25965  -0.25556  -0.25126  -0.24807
 Alpha  occ. eigenvalues --   -0.23762  -0.23630  -0.22729  -0.22353  -0.21613
 Alpha  occ. eigenvalues --   -0.21362  -0.21007  -0.19238  -0.18291
 Alpha virt. eigenvalues --   -0.04948  -0.04086  -0.03703  -0.02893  -0.02763
 Alpha virt. eigenvalues --   -0.02321  -0.01988  -0.01154  -0.00510  -0.00318
 Alpha virt. eigenvalues --   -0.00076   0.00511   0.00595   0.01185   0.03055

 Mulliken charges:
               1
     1  C   -0.128111
     2  C   -0.134894
     3  C   -0.160245
     4  C    0.060011
     5  C   -0.068970
     6  C    0.190845
     7  C    0.074978
     8  C   -0.149451
     9  C   -0.137652
    10  C   -0.124758
    11  C   -0.136756
    12  C   -0.145054
    13  N   -0.655805
    14  C    0.211200
    15  C   -0.138763
    16  C   -0.179067
    17  C    0.071021
    18  C    0.030029
    19  C   -0.263239
    20  C    0.149757
    21  C   -0.204086
    22  C   -0.130049
    23  C   -0.136686
    24  C   -0.191557
    25  C    0.070636
    26  C    0.048992
    27  C   -0.189653
    28  C   -0.135182
    29  C   -0.127923
    30  C   -0.221780
    31  C    0.105414
    32  C   -0.179154
    33  C   -0.117245
    34  C    0.179771
    35  C    0.154299
    36  C   -0.207081
    37  C   -0.139038
    38  C   -0.135238
    39  C   -0.198979
    40  C    0.039564
    41  C    0.086464
    42  C   -0.273843
    43  C    0.035636
    44  C    0.051642
    45  C   -0.168970
    46  C   -0.199476
    47  C    0.139675
    48  C   -0.192922
    49  C   -0.135104
    50  C   -0.137208
    51  C   -0.189913
    52  C    0.138688
    53  C   -0.244944
    54  C    0.097130
    55  C   -0.221168
    56  C   -0.129844
    57  C   -0.138748
    58  C   -0.176090
    59  C    0.053848
    60  C   -0.014025
    61  C   -0.015368
    62  C   -0.149597
    63  C   -0.132926
    64  H    0.124669
    65  H    0.125657
    66  H    0.131493
    67  H    0.132119
    68  H    0.131327
    69  H    0.129947
    70  H    0.132740
    71  H    0.144719
    72  H    0.151245
    73  H    0.151373
    74  H    0.138577
    75  H    0.132300
    76  H    0.132412
    77  H    0.131703
    78  H    0.135632
    79  H    0.135084
    80  H    0.131975
    81  H    0.132541
    82  H    0.144807
    83  H    0.145856
    84  H    0.152662
    85  H    0.148849
    86  H    0.124540
    87  H    0.126254
    88  H    0.136845
    89  H    0.137798
    90  H    0.141805
    91  H    0.129845
    92  H    0.128513
    93  H    0.128512
    94  H    0.128719
    95  H    0.129793
    96  H    0.132876
    97  H    0.142739
    98  H    0.124474
    99  H    0.126552
   100  H    0.145418
   101  H    0.136440
   102  H    0.128153
 Sum of Mulliken charges =  -0.00000

 Dipole moment (field-independent basis, Debye):
    X=             -3.9315    Y=              0.2125    Z=              0.4387  Tot=              3.9616
 Quadrupole moment (field-independent basis, Debye-Ang):
   XX=           -315.5941   YY=           -334.4660   ZZ=           -346.4063
   XY=             -2.8078   XZ=              1.0464   YZ=              3.1950

 Normal termination of Gaussian 16 at Sat Nov  5 01:40:37 2022.
