 Gaussian 16, Revision B.01,
 Gaussian 16:  ES64L-G16RevB.01 20-Dec-2017

 -------------------------------------------------------------------
 #p b3lyp/6-31g(d) 6D 10F nosymm GFInput td=(50-50,nstate=2) SCF=XQC
 -------------------------------------------------------------------

 ------------------------------
 Gaussian input prepared by ASE
 ------------------------------
 Symbolic Z-matrix:
 Charge =  0 Multiplicity = 1

                          Input orientation:
 ---------------------------------------------------------------------
 Center     Atomic      Atomic             Coordinates (Angstroms)
 Number     Number       Type             X           Y           Z
 ---------------------------------------------------------------------
      1          6           0       -3.232746   -5.336004   -2.137990
      2          6           0       -2.256921   -4.867138   -3.019311
      3          6           0       -1.544453   -3.704811   -2.725409
      4          6           0       -1.792665   -2.986020   -1.544503
      5          6           0       -1.013913   -1.772531   -1.195911
      6          6           0        0.370158   -1.760494   -1.115185
      7          6           0        1.335340   -2.834375   -1.445589
      8          6           0        2.325218   -2.655688   -2.425978
      9          6           0        3.221287   -3.680407   -2.728834
     10          6           0        3.140544   -4.904062   -2.061809
     11          6           0        2.156621   -5.096395   -1.090165
     12          6           0        1.263230   -4.070999   -0.783329
     13          7           0        0.782416   -0.544684   -0.571928
     14          6           0        2.157626   -0.232211   -0.313594
     15          6           0        2.862999    0.594411   -1.193569
     16          6           0        4.202120    0.889927   -0.951394
     17          6           0        4.869205    0.359275    0.166962
     18          6           0        6.320546    0.608177    0.400640
     19          6           0        7.159520   -0.467303    0.502337
     20          6           0        8.572721   -0.332540    0.679331
     21          6           0        9.399537   -1.477806    0.761550
     22          6           0       10.766306   -1.357806    0.912753
     23          6           0       11.345994   -0.077029    0.982821
     24          6           0       10.555815    1.055659    0.903708
     25          6           0        9.152026    0.966117    0.752708
     26          6           0        8.276366    2.128652    0.677654
     27          6           0        8.774534    3.448746    0.780739
     28          6           0        7.937871    4.548081    0.742655
     29          6           0        6.550758    4.369276    0.610698
     30          6           0        6.031251    3.093910    0.501618
     31          6           0        6.866327    1.949989    0.513347
     32          6           0        4.146262   -0.475366    1.033920
     33          6           0        2.804228   -0.770671    0.799596
     34          6           0       -0.341767    0.216029   -0.262280
     35          6           0       -0.428080    1.421110    0.522311
     36          6           0        0.684061    2.167580    0.983583
     37          6           0        0.526364    3.265659    1.807919
     38          6           0       -0.758243    3.666145    2.202394
     39          6           0       -1.861112    2.963947    1.754094
     40          6           0       -1.744401    1.836524    0.907019
     41          6           0       -2.922957    1.156191    0.374537
     42          6           0       -4.237749    1.565589    0.749535
     43          6           0       -5.382678    1.053960    0.190525
     44          6           0       -6.701165    1.530010    0.699794
     45          6           0       -7.609880    2.231182   -0.148017
     46          6           0       -8.801948    2.716473    0.335119
     47          6           0       -9.171439    2.535666    1.695211
     48          6           0      -10.395678    3.021181    2.226523
     49          6           0      -10.715675    2.826667    3.551764
     50          6           0       -9.822724    2.135648    4.407497
     51          6           0       -8.627734    1.653728    3.922132
     52          6           0       -8.267097    1.838574    2.559839
     53          6           0       -7.042962    1.352782    2.028673
     54          6           0       -5.263352    0.132291   -0.908927
     55          6           0       -6.393662   -0.349080   -1.618624
     56          6           0       -6.252323   -1.114376   -2.757623
     57          6           0       -4.964920   -1.412231   -3.243019
     58          6           0       -3.850804   -1.014430   -2.533240
     59          6           0       -3.956968   -0.289530   -1.319220
     60          6           0       -2.788568    0.102988   -0.556344
     61          6           0       -1.474738   -0.491512   -0.707176
     62          6           0       -2.774449   -3.471937   -0.664849
     63          6           0       -3.487930   -4.632773   -0.959075
     64          1           0       -3.789862   -6.240406   -2.368013
     65          1           0       -2.049630   -5.405780   -3.940584
     66          1           0       -0.789972   -3.344038   -3.418413
     67          1           0        2.386723   -1.711768   -2.958803
     68          1           0        3.979157   -3.523657   -3.491928
     69          1           0        3.837395   -5.703249   -2.300146
     70          1           0        2.084244   -6.046397   -0.567309
     71          1           0        0.497288   -4.224172   -0.029415
     72          1           0        2.355088    1.003435   -2.062115
     73          1           0        4.745178    1.521681   -1.648030
     74          1           0        6.752161   -1.471286    0.410815
     75          1           0        8.936066   -2.459765    0.701656
     76          1           0       11.391723   -2.243973    0.975576
     77          1           0       12.421507    0.025146    1.099179
     78          1           0       11.036087    2.026276    0.959881
     79          1           0        9.839521    3.612791    0.901185
     80          1           0        8.354577    5.548082    0.826184
     81          1           0        5.886541    5.229073    0.600623
     82          1           0        4.958671    2.960870    0.416863
     83          1           0        4.641846   -0.887109    1.908233
     84          1           0        2.252197   -1.410936    1.480227
     85          1           0        1.683354    1.878657    0.694361
     86          1           0        1.401175    3.814635    2.146036
     87          1           0       -0.891875    4.529667    2.848197
     88          1           0       -2.841932    3.312083    2.053774
     89          1           0       -4.359516    2.317290    1.519353
     90          1           0       -7.337979    2.396462   -1.186400
     91          1           0       -9.477391    3.257893   -0.323559
     92          1           0      -11.078781    3.551271    1.566619
     93          1           0      -11.655724    3.202651    3.946607
     94          1           0      -10.085977    1.987289    5.451399
     95          1           0       -7.940855    1.122667    4.577179
     96          1           0       -6.364043    0.816805    2.687773
     97          1           0       -7.385057   -0.090510   -1.263300
     98          1           0       -7.132632   -1.462288   -3.291766
     99          1           0       -4.843776   -1.960131   -4.173339
    100          1           0       -2.868262   -1.233208   -2.926828
    101          1           0       -2.977852   -2.929459    0.253945
    102          1           0       -4.244932   -4.988528   -0.264858
 ---------------------------------------------------------------------

 SCF Done:  E(RB3LYP) =  -2440.93108323     A.U. after   16 cycles

 Excitation energies and oscillator strengths:

 Excited state symmetry could not be determined.
 Excited State   1:      Triplet-?Sym    2.4261 eV  511.04 nm  f=0.0000  <S**2>=2.000
     208 -> 211        0.23803
     208 -> 213        0.16076
     209 -> 211        0.50078
     209 -> 214       -0.25219
 This state for optimization and/or second-order correction.
 Total Energy, E(TD-HF/TD-DFT) =  -2440.84192471
 Copying the excited state density for this state as the 1-particle RhoCI density.

 Excited state symmetry could not be determined.
 Excited State   2:      Triplet-?Sym    2.6569 eV  466.65 nm  f=0.0000  <S**2>=2.000
     203 -> 212        0.27673
     206 -> 210        0.59970
     206 -> 216        0.10477

 Excited state symmetry could not be determined.
 Excited State   3:      Singlet-?Sym    3.2691 eV  379.26 nm  f=0.0088  <S**2>=0.000
     208 -> 210       -0.10095
     209 -> 210        0.68664

 Excited state symmetry could not be determined.
 Excited State   4:      Singlet-?Sym    3.3617 eV  368.82 nm  f=0.2205  <S**2>=0.000
     208 -> 211       -0.13656
     208 -> 214        0.15438
     209 -> 211        0.63186
     209 -> 213        0.16289

 Alpha  occ. eigenvalues --  -14.38873 -10.24056 -10.22060 -10.21890 -10.21384
 Alpha  occ. eigenvalues --  -10.20762 -10.20682 -10.20639 -10.20590 -10.20525
 Alpha  occ. eigenvalues --  -10.20504 -10.20500 -10.20377 -10.20313 -10.20224
 Alpha  occ. eigenvalues --  -10.19970 -10.19596 -10.19582 -10.19565 -10.19520
 Alpha  occ. eigenvalues --  -10.19494 -10.19489 -10.19485 -10.19457 -10.19427
 Alpha  occ. eigenvalues --  -10.19398 -10.19374 -10.19265 -10.19254 -10.19219
 Alpha  occ. eigenvalues --  -10.19210 -10.19186 -10.19131 -10.19072 -10.19067
 Alpha  occ. eigenvalues --  -10.19053 -10.19008 -10.18881 -10.18843 -10.18803
 Alpha  occ. eigenvalues --  -10.18710 -10.18672 -10.18623 -10.18617 -10.18589
 Alpha  occ. eigenvalues --  -10.18586 -10.18516 -10.18380 -10.18355 -10.18319
 Alpha  occ. eigenvalues --  -10.18262 -10.18181 -10.18134 -10.18102 -10.18043
 Alpha  occ. eigenvalues --  -10.17993 -10.17906 -10.17849 -10.17817 -10.17773
 Alpha  occ. eigenvalues --  -10.17571 -10.17556 -10.17395  -0.99156  -0.88902
 Alpha  occ. eigenvalues --   -0.87805  -0.87134  -0.86571  -0.85693  -0.85081
 Alpha  occ. eigenvalues --   -0.85018  -0.84577  -0.82624  -0.82173  -0.81401
 Alpha  occ. eigenvalues --   -0.80043  -0.78791  -0.78072  -0.77251  -0.76510
 Alpha  occ. eigenvalues --   -0.76201  -0.76106  -0.75619  -0.74991  -0.74852
 Alpha  occ. eigenvalues --   -0.74462  -0.73347  -0.73243  -0.73052  -0.72620
 Alpha  occ. eigenvalues --   -0.72140  -0.71292  -0.71247  -0.69628  -0.69167
 Alpha  occ. eigenvalues --   -0.64601  -0.63566  -0.63481  -0.62873  -0.62531
 Alpha  occ. eigenvalues --   -0.62081  -0.61622  -0.61310  -0.60775  -0.60435
 Alpha  occ. eigenvalues --   -0.60337  -0.59731  -0.59319  -0.59044  -0.58496
 Alpha  occ. eigenvalues --   -0.58428  -0.57819  -0.57296  -0.55067  -0.54408
 Alpha  occ. eigenvalues --   -0.53744  -0.53487  -0.53363  -0.51546  -0.50956
 Alpha  occ. eigenvalues --   -0.50763  -0.50504  -0.49916  -0.49580  -0.49089
 Alpha  occ. eigenvalues --   -0.48955  -0.48601  -0.48508  -0.47645  -0.47110
 Alpha  occ. eigenvalues --   -0.46743  -0.46034  -0.45902  -0.45294  -0.44981
 Alpha  occ. eigenvalues --   -0.44832  -0.44292  -0.44146  -0.43954  -0.43833
 Alpha  occ. eigenvalues --   -0.43466  -0.43428  -0.43234  -0.43060  -0.42722
 Alpha  occ. eigenvalues --   -0.42547  -0.42270  -0.42056  -0.41879  -0.41545
 Alpha  occ. eigenvalues --   -0.41237  -0.41191  -0.40915  -0.40846  -0.40697
 Alpha  occ. eigenvalues --   -0.40436  -0.40214  -0.40120  -0.39849  -0.39236
 Alpha  occ. eigenvalues --   -0.38977  -0.38248  -0.38087  -0.37967  -0.37624
 Alpha  occ. eigenvalues --   -0.37350  -0.36633  -0.36580  -0.36402  -0.36262
 Alpha  occ. eigenvalues --   -0.36197  -0.36065  -0.35577  -0.35257  -0.35034
 Alpha  occ. eigenvalues --   -0.34524  -0.34172  -0.34023  -0.33755  -0.33642
 Alpha  occ. eigenvalues --   -0.33269  -0.33213  -0.32667  -0.32643  -0.32572
 Alpha  occ. eigenvalues --   -0.31785  -0.31684  -0.31350  -0.30952  -0.28724
 Alpha  occ. eigenvalues --   -0.28597  -0.27752  -0.27314  -0.26914  -0.26552
 Alpha  occ. eigenvalues --   -0.26082  -0.25965  -0.25556  -0.25126  -0.24807
 Alpha  occ. eigenvalues --   -0.23762  -0.23630  -0.22729  -0.22353  -0.21613
 Alpha  occ. eigenvalues --   -0.21362  -0.21007  -0.19238  -0.18291
 Alpha virt. eigenvalues --   -0.04948  -0.04086  -0.03703  -0.02893  -0.02763
 Alpha virt. eigenvalues --   -0.02321  -0.01988  -0.01154  -0.00510  -0.00318
 Alpha virt. eigenvalues --   -0.00076   0.00511   0.00595   0.01185   0.03055

 Mulliken charges:
               1
     1  C   -0.128125
     2  C   -0.134888
     3  C   -0.160238
     4  C    0.060019
     5  C   -0.068951
     6  C    0.190824
     7  C    0.074952
     8  C   -0.149435
     9  C   -0.137652
    10  C   -0.124758
    11  C   -0.136759
    12  C   -0.145046
    13  N   -0.655750
    14  C    0.211219
    15  C   -0.138773
    16  C   -0.179059
    17  C    0.071011
    18  C    0.030034
    19  C   -0.263249
    20  C    0.149746
    21  C   -0.204086
    22  C   -0.130047
    23  C   -0.136686
    24  C   -0.191561
    25  C    0.070651
    26  C    0.048990
    27  C   -0.189645
    28  C   -0.135185
    29  C   -0.127925
    30  C   -0.221777
    31  C    0.105416
    32  C   -0.179141
    33  C   -0.117266
    34  C    0.179686
    35  C    0.154334
    36  C   -0.207099
    37  C   -0.139036
    38  C   -0.135235
    39  C   -0.198987
    40  C    0.039579
    41  C    0.086445
    42  C   -0.273836
    43  C    0.035644
    44  C    0.051641
    45  C   -0.168970
    46  C   -0.199476
    47  C    0.139669
    48  C   -0.192917
    49  C   -0.135106
    50  C   -0.137208
    51  C   -0.189911
    52  C    0.138687
    53  C   -0.244944
    54  C    0.097120
    55  C   -0.221175
    56  C   -0.129834
    57  C   -0.138757
    58  C   -0.176070
    59  C    0.053846
    60  C   -0.014024
    61  C   -0.015357
    62  C   -0.149615
    63  C   -0.132908
    64  H    0.124669
    65  H    0.125657
    66  H    0.131491
    67  H    0.132122
    68  H    0.131325
    69  H    0.129946
    70  H    0.132740
    71  H    0.144719
    72  H    0.151245
    73  H    0.151372
    74  H    0.138579
    75  H    0.132300
    76  H    0.132411
    77  H    0.131703
    78  H    0.135632
    79  H    0.135085
    80  H    0.131975
    81  H    0.132540
    82  H    0.144805
    83  H    0.145856
    84  H    0.152659
    85  H    0.148851
    86  H    0.124542
    87  H    0.126254
    88  H    0.136844
    89  H    0.137796
    90  H    0.141808
    91  H    0.129845
    92  H    0.128512
    93  H    0.128511
    94  H    0.128720
    95  H    0.129792
    96  H    0.132877
    97  H    0.142741
    98  H    0.124474
    99  H    0.126551
   100  H    0.145417
   101  H    0.136439
   102  H    0.128152
 Sum of Mulliken charges =  -0.00000

 Dipole moment (field-independent basis, Debye):
    X=              3.9233    Y=             -0.5275    Z=              0.1552  Tot=              3.9616
 Quadrupole moment (field-independent basis, Debye-Ang):
   XX=           -316.0163   YY=           -334.4927   ZZ=           -346.0978
   XY=             -2.2851   XZ=             -3.0266   YZ=              3.5753

 Normal termination of Gaussian 16 at Sat Nov  5 12:31:49 2022.
