 Gaussian 16, Revision B.01,
 Gaussian 16:  ES64L-G16RevB.01 20-Dec-2017

 -----------------------------
 #p b3lyp/6-31g(d) opt SCF=XQC
 -----------------------------

 ------------------------------
 Gaussian input prepared by ASE
 ------------------------------
 Symbolic Z-matrix:
 Charge =  0 Multiplicity = 1

 SCF Done:  E(RB3LYP) =  -1556.00495186     A.U. after   15 cycles
 SCF Done:  E(RB3LYP) =  -1556.01251960     A.U. after   13 cycles
 SCF Done:  E(RB3LYP) =  -1556.01277202     A.U. after   12 cycles
 SCF Done:  E(RB3LYP) =  -1556.01285515     A.U. after   11 cycles
 SCF Done:  E(RB3LYP) =  -1556.01288688     A.U. after   11 cycles
 SCF Done:  E(RB3LYP) =  -1556.01289996     A.U. after   11 cycles
 SCF Done:  E(RB3LYP) =  -1556.01290503     A.U. after   11 cycles
 SCF Done:  E(RB3LYP) =  -1556.01290601     A.U. after   10 cycles
 SCF Done:  E(RB3LYP) =  -1556.01290694     A.U. after   10 cycles
 SCF Done:  E(RB3LYP) =  -1556.01290766     A.U. after    9 cycles
 SCF Done:  E(RB3LYP) =  -1556.01290876     A.U. after   11 cycles
 SCF Done:  E(RB3LYP) =  -1556.01290909     A.U. after    9 cycles
 SCF Done:  E(RB3LYP) =  -1556.01290929     A.U. after    9 cycles
 SCF Done:  E(RB3LYP) =  -1556.01290947     A.U. after    7 cycles
 SCF Done:  E(RB3LYP) =  -1556.01290951     A.U. after    7 cycles
 Optimization completed.
    -- Stationary point found.

                         Standard orientation:
 ---------------------------------------------------------------------
 Center     Atomic      Atomic             Coordinates (Angstroms)
 Number     Number       Type             X           Y           Z
 ---------------------------------------------------------------------
      1          6           0       -2.331969    6.045132   -0.800832
      2          6           0       -3.433563    5.958434    0.050707
      3          7           0       -3.676938    4.896743    0.829750
      4          6           0       -2.814391    3.879204    0.769432
      5          6           0       -1.678036    3.841372   -0.059860
      6          6           0       -0.775470    2.667075   -0.077142
      7          6           0        0.637634    2.842459   -0.227799
      8          6           0        1.484487    1.770144   -0.253430
      9          6           0        1.002581    0.427187   -0.125178
     10          6           0        1.869259   -0.684825   -0.160598
     11          6           0        3.342721   -0.482565   -0.339571
     12          6           0        3.923243   -0.579311   -1.637120
     13          6           0        5.273802   -0.396125   -1.824208
     14          6           0        6.131839   -0.105240   -0.730068
     15          6           0        7.530332    0.089903   -0.886877
     16          6           0        8.328798    0.369809    0.199128
     17          6           0        7.763938    0.467562    1.495030
     18          6           0        6.412193    0.283903    1.679811
     19          6           0        5.560151   -0.005974    0.579782
     20          6           0        4.161717   -0.200678    0.737428
     21          6           0        1.344969   -1.991072   -0.040678
     22          6           0        2.192123   -3.145949   -0.063977
     23          6           0        1.680670   -4.409589    0.066991
     24          6           0        0.282119   -4.602510    0.237698
     25          6           0       -0.565722   -3.527481    0.267102
     26          6           0       -0.079305   -2.187073    0.123827
     27          6           0       -0.946723   -1.072361    0.156353
     28          6           0       -2.419834   -1.268408    0.338268
     29          6           0       -3.016569   -1.044975    1.613040
     30          6           0       -4.368280   -1.215950    1.802328
     31          6           0       -5.212145   -1.619833    0.733281
     32          6           0       -6.611546   -1.804789    0.893015
     33          6           0       -7.395995   -2.196169   -0.168484
     34          6           0       -6.815442   -2.420983   -1.441369
     35          6           0       -5.462282   -2.250409   -1.628271
     36          6           0       -4.624513   -1.847557   -0.553188
     37          6           0       -3.225256   -1.662144   -0.713837
     38          6           0       -0.420625    0.233797    0.034784
     39          6           0       -1.268046    1.385694    0.043120
     40          6           0       -1.445625    4.973139   -0.855904
     41          1           0       -2.178649    6.928840   -1.413531
     42          1           0       -4.151210    6.774818    0.113764
     43          1           0       -3.021358    3.041615    1.433493
     44          1           0        1.042790    3.847835   -0.300439
     45          1           0        2.551259    1.929800   -0.364188
     46          1           0        3.279171   -0.800584   -2.483697
     47          1           0        5.702434   -0.471746   -2.820988
     48          1           0        7.960714    0.014008   -1.882815
     49          1           0        9.397242    0.516961    0.066588
     50          1           0        8.404485    0.688738    2.344494
     51          1           0        5.976332    0.358389    2.673366
     52          1           0        3.732841   -0.125419    1.734047
     53          1           0        3.260253   -3.002410   -0.183810
     54          1           0        2.344845   -5.269476    0.047191
     55          1           0       -0.113016   -5.608593    0.349987
     56          1           0       -1.630281   -3.680138    0.403686
     57          1           0       -2.383452   -0.738113    2.440995
     58          1           0       -4.808768   -1.043452    2.781652
     59          1           0       -7.054083   -1.630208    1.870982
     60          1           0       -8.465509   -2.333528   -0.034249
     61          1           0       -7.445188   -2.728868   -2.271702
     62          1           0       -5.014484   -2.421644   -2.604411
     63          1           0       -2.784790   -1.833869   -1.693287
     64          1           0       -2.338396    1.231370    0.116031
     65          1           0       -0.592032    5.001402   -1.527819
 ---------------------------------------------------------------------

 The electronic state is 1-A.
 Alpha  occ. eigenvalues --  -14.32604 -10.21847 -10.21795 -10.20556 -10.20494
 Alpha  occ. eigenvalues --  -10.20220 -10.20177 -10.20174 -10.20144 -10.20126
 Alpha  occ. eigenvalues --  -10.20083 -10.20068 -10.20055 -10.20048 -10.20026
 Alpha  occ. eigenvalues --  -10.20000 -10.19885 -10.19827 -10.19725 -10.19435
 Alpha  occ. eigenvalues --  -10.19388 -10.19351 -10.19350 -10.19302 -10.19297
 Alpha  occ. eigenvalues --  -10.19276 -10.19274 -10.19208 -10.19202 -10.19182
 Alpha  occ. eigenvalues --  -10.19171 -10.19169 -10.19113 -10.19104 -10.18952
 Alpha  occ. eigenvalues --  -10.18936 -10.18913 -10.18887 -10.18668 -10.18643
 Alpha  occ. eigenvalues --   -0.93621  -0.88862  -0.87557  -0.87036  -0.85231
 Alpha  occ. eigenvalues --   -0.83348  -0.82635  -0.81407  -0.79215  -0.79099
 Alpha  occ. eigenvalues --   -0.77362  -0.77039  -0.76697  -0.74701  -0.74277
 Alpha  occ. eigenvalues --   -0.73687  -0.73008  -0.72105  -0.72015  -0.69400
 Alpha  occ. eigenvalues --   -0.65437  -0.63765  -0.63339  -0.62380  -0.62114
 Alpha  occ. eigenvalues --   -0.61774  -0.60679  -0.60136  -0.59767  -0.59592
 Alpha  occ. eigenvalues --   -0.58658  -0.56972  -0.53900  -0.53038  -0.51707
 Alpha  occ. eigenvalues --   -0.51438  -0.51300  -0.50829  -0.50670  -0.49931
 Alpha  occ. eigenvalues --   -0.49057  -0.48144  -0.47074  -0.46094  -0.45833
 Alpha  occ. eigenvalues --   -0.44994  -0.44817  -0.44727  -0.44242  -0.43703
 Alpha  occ. eigenvalues --   -0.43296  -0.42883  -0.42533  -0.42069  -0.41852
 Alpha  occ. eigenvalues --   -0.41674  -0.41361  -0.40954  -0.40171  -0.40143
 Alpha  occ. eigenvalues --   -0.39505  -0.39162  -0.38954  -0.38834  -0.38698
 Alpha  occ. eigenvalues --   -0.38490  -0.37301  -0.36948  -0.36328  -0.35902
 Alpha  occ. eigenvalues --   -0.35048  -0.34601  -0.34116  -0.33943  -0.33390
 Alpha  occ. eigenvalues --   -0.33169  -0.32361  -0.32025  -0.31376  -0.30863
 Alpha  occ. eigenvalues --   -0.29150  -0.28627  -0.28401  -0.28067  -0.26503
 Alpha  occ. eigenvalues --   -0.25167  -0.24951  -0.24366  -0.24166  -0.23042
 Alpha  occ. eigenvalues --   -0.21712  -0.21563  -0.19026
 Alpha virt. eigenvalues --   -0.06663  -0.04168  -0.03995  -0.02932  -0.01707
 Alpha virt. eigenvalues --   -0.01233  -0.01021  -0.00048   0.01467   0.03121
 Alpha virt. eigenvalues --    0.03290   0.04217   0.06751   0.09375   0.09575

 Mulliken charges:
               1
     1  C   -0.144959
     2  C    0.040183
     3  N   -0.412913
     4  C    0.001216
     5  C    0.066342
     6  C    0.101790
     7  C   -0.179323
     8  C   -0.203573
     9  C    0.109434
    10  C   -0.079596
    11  C    0.004906
    12  C   -0.152777
    13  C   -0.196245
    14  C    0.138438
    15  C   -0.192303
    16  C   -0.134381
    17  C   -0.136511
    18  C   -0.189628
    19  C    0.139510
    20  C   -0.229227
    21  C    0.105611
    22  C   -0.198745
    23  C   -0.134163
    24  C   -0.134681
    25  C   -0.197534
    26  C    0.101903
    27  C   -0.073877
    28  C    0.007427
    29  C   -0.155837
    30  C   -0.194979
    31  C    0.138721
    32  C   -0.191194
    33  C   -0.134025
    34  C   -0.136109
    35  C   -0.189320
    36  C    0.140467
    37  C   -0.230936
    38  C    0.112022
    39  C   -0.278429
    40  C   -0.141849
    41  H    0.137190
    42  H    0.140873
    43  H    0.146395
    44  H    0.131152
    45  H    0.148551
    46  H    0.138327
    47  H    0.132725
    48  H    0.130934
    49  H    0.131535
    50  H    0.131969
    51  H    0.133070
    52  H    0.137657
    53  H    0.147207
    54  H    0.130438
    55  H    0.130537
    56  H    0.147666
    57  H    0.138537
    58  H    0.134301
    59  H    0.132011
    60  H    0.131690
    61  H    0.131528
    62  H    0.132177
    63  H    0.137072
    64  H    0.156684
    65  H    0.144919
 Sum of Mulliken charges =  -0.00000

 Dipole moment (field-independent basis, Debye):
    X=              1.8170    Y=             -0.5735    Z=             -1.2469  Tot=              2.2771
 Quadrupole moment (field-independent basis, Debye-Ang):
   XX=           -206.4623   YY=           -218.1536   ZZ=           -217.2371
   XY=             11.2241   XZ=              1.8973   YZ=             -5.3872

 1\1\GINC-NODE15\FOpt\RB3LYP\6-31G(d)\C39H25N1\WYKGROUP\05-Nov-2022\0\\
 #p b3lyp/6-31g(d) opt SCF=XQC\\Gaussian input prepared by ASE\\0,1\C,-
 1.9699613952,6.1988212108,-0.8924829278\C,-3.1489792784,6.158674157,-0
 .1478693161\N,-3.5170780989,5.1013161684,0.5868570811\C,-2.7051357073,
 4.0412418938,0.5887568951\C,-1.4999092194,3.9549533626,-0.1326594937\C
 ,-0.660090881,2.735726485,-0.0869405794\C,0.7679449444,2.8394503084,-0
 .1034828222\C,1.5582883468,1.7250562409,-0.0694474963\C,0.9993571499,0
 .407398228,-0.0095274137\C,1.8083211676,-0.7475417781,0.0159023114\C,3

 Normal termination of Gaussian 16 at Sat Nov  5 00:05:28 2022.
