 Gaussian 16, Revision B.01,
 Gaussian 16:  ES64L-G16RevB.01 20-Dec-2017

 -------------------------------------------------------------------
 #p b3lyp/6-31g(d) 6D 10F nosymm GFInput td=(50-50,nstate=2) SCF=XQC
 -------------------------------------------------------------------

 ------------------------------
 Gaussian input prepared by ASE
 ------------------------------
 Symbolic Z-matrix:
 Charge =  0 Multiplicity = 1

                          Input orientation:
 ---------------------------------------------------------------------
 Center     Atomic      Atomic             Coordinates (Angstroms)
 Number     Number       Type             X           Y           Z
 ---------------------------------------------------------------------
      1          6           0       -1.969961    6.198821   -0.892483
      2          6           0       -3.148979    6.158674   -0.147869
      3          7           0       -3.517078    5.101316    0.586857
      4          6           0       -2.705136    4.041242    0.588757
      5          6           0       -1.499909    3.954953   -0.132659
      6          6           0       -0.660091    2.735726   -0.086941
      7          6           0        0.767945    2.839450   -0.103483
      8          6           0        1.558288    1.725056   -0.069447
      9          6           0        0.999357    0.407398   -0.009527
     10          6           0        1.808321   -0.747542    0.015902
     11          6           0        3.300368   -0.619754   -0.022794
     12          6           0        3.993483   -0.730144   -1.262715
     13          6           0        5.363110   -0.614926   -1.321165
     14          6           0        6.129198   -0.382740   -0.147630
     15          6           0        7.544275   -0.258449   -0.171303
     16          6           0        8.251330   -0.034034    0.988444
     17          6           0        7.573993    0.076570    2.228188
     18          6           0        6.203377   -0.039030    2.284223
     19          6           0        5.443849   -0.270446    1.105396
     20          6           0        4.028775   -0.394313    1.129916
     21          6           0        1.209873   -2.026238    0.064253
     22          6           0        1.996129   -3.223122    0.099206
     23          6           0        1.411569   -4.460076    0.160479
     24          6           0       -0.004747   -4.582320    0.198022
     25          6           0       -0.796287   -3.465211    0.167699
     26          6           0       -0.231601   -2.150144    0.093194
     27          6           0       -1.040895   -0.992434    0.064861
     28          6           0       -2.532553   -1.114072    0.106627
     29          6           0       -3.233274   -0.876047    1.324574
     30          6           0       -4.603634   -0.979040    1.385318
     31          6           0       -5.363670   -1.325114    0.236114
     32          6           0       -6.779408   -1.439222    0.262792
     33          6           0       -7.480433   -1.775989   -0.873197
     34          6           0       -6.796047   -2.014576   -2.090782
     35          6           0       -5.424489   -1.912089   -2.149024
     36          6           0       -4.671128   -1.566804   -0.994391
     37          6           0       -3.255426   -1.452221   -1.021986
     38          6           0       -0.440499    0.286101    0.015034
     39          6           0       -1.225781    1.480212   -0.034891
     40          6           0       -1.137592    5.083070   -0.884109
     41          1           0       -1.715875    7.081028   -1.472998
     42          1           0       -3.827246    7.010329   -0.137159
     43          1           0       -3.015017    3.207224    1.216257
     44          1           0        1.228340    3.823290   -0.120975
     45          1           0        2.637432    1.830539   -0.078501
     46          1           0        3.420635   -0.907033   -2.168827
     47          1           0        5.878268   -0.700127   -2.275296
     48          1           0        8.061081   -0.344025   -1.124439
     49          1           0        9.333532    0.059150    0.957642
     50          1           0        8.143062    0.253508    3.136847
     51          1           0        5.681274    0.045453    3.234457
     52          1           0        3.513371   -0.309457    2.083858
     53          1           0        3.076655   -3.133689    0.080963
     54          1           0        2.030443   -5.352943    0.187145
     55          1           0       -0.458902   -5.567884    0.255900
     56          1           0       -1.875280   -3.564145    0.202790
     57          1           0       -2.665266   -0.612889    2.212619
     58          1           0       -5.124067   -0.796266    2.322656
     59          1           0       -7.301647   -1.254243    1.198627
     60          1           0       -8.563363   -1.859359   -0.840637
     61          1           0       -7.360534   -2.278901   -2.980902
     62          1           0       -4.897019   -2.094021   -3.082497
     63          1           0       -2.734964   -1.634221   -1.959439
     64          1           0       -2.304691    1.380715   -0.063755
     65          1           0       -0.224847    5.075471   -1.473792
 ---------------------------------------------------------------------

 SCF Done:  E(RB3LYP) =  -1556.01290974     A.U. after   15 cycles

 Excitation energies and oscillator strengths:

 Excited state symmetry could not be determined.
 Excited State   1:      Triplet-?Sym    1.6911 eV  733.16 nm  f=0.0000  <S**2>=2.000
     133 ->134         0.69064
     133 <-134         0.13335
 This state for optimization and/or second-order correction.
 Total Energy, E(TD-HF/TD-DFT) =  -1555.95076326
 Copying the excited state density for this state as the 1-particle RhoCI density.

 Excited state symmetry could not be determined.
 Excited State   2:      Triplet-?Sym    2.7098 eV  457.54 nm  f=0.0000  <S**2>=2.000
     123 ->144         0.11554
     129 ->140        -0.13692
     131 ->135        -0.30442
     132 ->134        -0.11042
     132 ->136        -0.56394
     132 ->137         0.11712

 Excited state symmetry could not be determined.
 Excited State   3:      Singlet-?Sym    3.0223 eV  410.23 nm  f=0.1828  <S**2>=0.000
     133 ->134         0.70018

 Excited state symmetry could not be determined.
 Excited State   4:      Singlet-?Sym    3.4806 eV  356.21 nm  f=0.0041  <S**2>=0.000
     130 ->134        -0.21043
     131 ->134         0.14288
     132 ->134         0.19706
     133 ->135         0.57177
     133 ->136         0.21957
     133 ->137         0.10098

 Alpha  occ. eigenvalues --  -14.32604 -10.21847 -10.21795 -10.20556 -10.20494
 Alpha  occ. eigenvalues --  -10.20220 -10.20177 -10.20174 -10.20144 -10.20126
 Alpha  occ. eigenvalues --  -10.20083 -10.20068 -10.20055 -10.20048 -10.20026
 Alpha  occ. eigenvalues --  -10.20000 -10.19885 -10.19827 -10.19725 -10.19434
 Alpha  occ. eigenvalues --  -10.19388 -10.19351 -10.19350 -10.19302 -10.19297
 Alpha  occ. eigenvalues --  -10.19276 -10.19274 -10.19208 -10.19202 -10.19182
 Alpha  occ. eigenvalues --  -10.19171 -10.19169 -10.19113 -10.19104 -10.18952
 Alpha  occ. eigenvalues --  -10.18936 -10.18913 -10.18887 -10.18668 -10.18643
 Alpha  occ. eigenvalues --   -0.93621  -0.88862  -0.87557  -0.87036  -0.85231
 Alpha  occ. eigenvalues --   -0.83348  -0.82635  -0.81407  -0.79215  -0.79099
 Alpha  occ. eigenvalues --   -0.77362  -0.77039  -0.76697  -0.74701  -0.74277
 Alpha  occ. eigenvalues --   -0.73687  -0.73008  -0.72105  -0.72015  -0.69400
 Alpha  occ. eigenvalues --   -0.65437  -0.63765  -0.63339  -0.62380  -0.62114
 Alpha  occ. eigenvalues --   -0.61774  -0.60679  -0.60136  -0.59767  -0.59592
 Alpha  occ. eigenvalues --   -0.58658  -0.56972  -0.53900  -0.53038  -0.51707
 Alpha  occ. eigenvalues --   -0.51438  -0.51300  -0.50829  -0.50670  -0.49931
 Alpha  occ. eigenvalues --   -0.49057  -0.48144  -0.47074  -0.46094  -0.45833
 Alpha  occ. eigenvalues --   -0.44994  -0.44817  -0.44727  -0.44242  -0.43703
 Alpha  occ. eigenvalues --   -0.43296  -0.42883  -0.42533  -0.42069  -0.41852
 Alpha  occ. eigenvalues --   -0.41674  -0.41361  -0.40954  -0.40171  -0.40143
 Alpha  occ. eigenvalues --   -0.39505  -0.39162  -0.38954  -0.38834  -0.38698
 Alpha  occ. eigenvalues --   -0.38490  -0.37301  -0.36948  -0.36328  -0.35902
 Alpha  occ. eigenvalues --   -0.35048  -0.34601  -0.34116  -0.33943  -0.33390
 Alpha  occ. eigenvalues --   -0.33169  -0.32361  -0.32025  -0.31376  -0.30863
 Alpha  occ. eigenvalues --   -0.29150  -0.28627  -0.28401  -0.28067  -0.26503
 Alpha  occ. eigenvalues --   -0.25167  -0.24951  -0.24366  -0.24166  -0.23042
 Alpha  occ. eigenvalues --   -0.21712  -0.21563  -0.19026
 Alpha virt. eigenvalues --   -0.06663  -0.04168  -0.03995  -0.02932  -0.01707
 Alpha virt. eigenvalues --   -0.01233  -0.01021  -0.00048   0.01467   0.03121
 Alpha virt. eigenvalues --    0.03290   0.04217   0.06751   0.09375   0.09575

 Mulliken charges:
               1
     1  C   -0.144949
     2  C    0.040183
     3  N   -0.412913
     4  C    0.001230
     5  C    0.066332
     6  C    0.101782
     7  C   -0.179325
     8  C   -0.203571
     9  C    0.109429
    10  C   -0.079609
    11  C    0.004920
    12  C   -0.152778
    13  C   -0.196241
    14  C    0.138447
    15  C   -0.192316
    16  C   -0.134382
    17  C   -0.136502
    18  C   -0.189629
    19  C    0.139513
    20  C   -0.229246
    21  C    0.105639
    22  C   -0.198759
    23  C   -0.134159
    24  C   -0.134679
    25  C   -0.197538
    26  C    0.101899
    27  C   -0.073873
    28  C    0.007417
    29  C   -0.155834
    30  C   -0.194982
    31  C    0.138716
    32  C   -0.191188
    33  C   -0.134028
    34  C   -0.136110
    35  C   -0.189316
    36  C    0.140464
    37  C   -0.230936
    38  C    0.112045
    39  C   -0.278440
    40  C   -0.141850
    41  H    0.137189
    42  H    0.140871
    43  H    0.146394
    44  H    0.131151
    45  H    0.148550
    46  H    0.138324
    47  H    0.132725
    48  H    0.130935
    49  H    0.131535
    50  H    0.131967
    51  H    0.133070
    52  H    0.137657
    53  H    0.147209
    54  H    0.130438
    55  H    0.130537
    56  H    0.147667
    57  H    0.138537
    58  H    0.134301
    59  H    0.132011
    60  H    0.131690
    61  H    0.131527
    62  H    0.132177
    63  H    0.137071
    64  H    0.156683
    65  H    0.144921
 Sum of Mulliken charges =  -0.00000

 Dipole moment (field-independent basis, Debye):
    X=              1.8939    Y=             -0.6513    Z=             -1.0837  Tot=              2.2772
 Quadrupole moment (field-independent basis, Debye-Ang):
   XX=           -205.8760   YY=           -219.1880   ZZ=           -216.9800
   XY=             11.0826   XZ=              2.8958   YZ=             -4.5418

 Normal termination of Gaussian 16 at Sat Nov  5 10:08:00 2022.
