 Gaussian 16, Revision B.01,
 Gaussian 16:  ES64L-G16RevB.01 20-Dec-2017

 -------------------------------------------------------------------
 #p b3lyp/6-31g(d) 6D 10F nosymm GFInput td=(50-50,nstate=2) SCF=XQC
 -------------------------------------------------------------------

 ------------------------------
 Gaussian input prepared by ASE
 ------------------------------
 Symbolic Z-matrix:
 Charge =  0 Multiplicity = 1

                          Input orientation:
 ---------------------------------------------------------------------
 Center     Atomic      Atomic             Coordinates (Angstroms)
 Number     Number       Type             X           Y           Z
 ---------------------------------------------------------------------
      1          6           0        4.677161    3.017652   -1.864063
      2          6           0        4.004835    3.524668   -0.565999
      3          6           0        3.795812    5.045827   -0.698039
      4          6           0        4.951557    3.273103    0.631635
      5          6           0        2.680923    2.765938   -0.344036
      6          6           0        1.416759    3.429501   -0.296918
      7          6           0        0.247976    2.738804   -0.108782
      8          6           0        0.230032    1.319907    0.054396
      9          6           0       -0.970712    0.597181    0.237228
     10          6           0       -2.280369    1.326721    0.289682
     11          6           0       -2.749265    1.788091    1.486435
     12          6           0       -3.990414    2.493679    1.608571
     13          6           0       -4.435471    2.952746    2.870573
     14          6           0       -5.629789    3.633193    2.999372
     15          6           0       -6.417157    3.874182    1.857751
     16          6           0       -6.000905    3.434236    0.614134
     17          6           0       -4.782347    2.734335    0.449147
     18          6           0       -4.302444    2.252125   -0.839490
     19          6           0       -5.027171    2.450305   -2.038467
     20          6           0       -4.559327    1.987810   -3.254247
     21          6           0       -3.334722    1.300720   -3.323383
     22          6           0       -2.601761    1.089891   -2.172061
     23          6           0       -3.057794    1.552840   -0.914281
     24          6           0       -0.931588   -0.805597    0.385688
     25          6           0       -2.129451   -1.573790    0.566598
     26          6           0       -2.124331   -2.937833    0.726291
     27          6           0       -3.402914   -3.768516    0.917514
     28          6           0       -4.674968   -2.900893    0.902456
     29          6           0       -3.337683   -4.506697    2.276438
     30          6           0       -3.514202   -4.807918   -0.224042
     31          6           0       -0.852856   -3.600851    0.715662
     32          6           0        0.317157   -2.916436    0.543352
     33          6           0        0.337157   -1.495608    0.360780
     34          6           0        1.536085   -0.776019    0.177419
     35          6           0        2.850138   -1.493397    0.164277
     36          6           0        3.684554   -1.474276    1.319626
     37          6           0        4.896157   -2.125534    1.330896
     38          6           0        5.355459   -2.837423    0.190478
     39          6           0        6.600789   -3.520609    0.166427
     40          6           0        7.011121   -4.198683   -0.959364
     41          6           0        6.192466   -4.224532   -2.115622
     42          6           0        4.979904   -3.572669   -2.123497
     43          6           0        4.526795   -2.863981   -0.977802
     44          6           0        3.281123   -2.181161   -0.954614
     45          6           0        1.497267    0.629701    0.019742
     46          6           0        2.685037    1.397031   -0.188101
     47          1           0        4.030612    3.188172   -2.732573
     48          1           0        5.623518    3.545555   -2.035808
     49          1           0        4.895609    1.945964   -1.815783
     50          1           0        3.343331    5.476689    0.202513
     51          1           0        4.763276    5.538172   -0.848405
     52          1           0        3.161189    5.299511   -1.554841
     53          1           0        4.504378    3.630659    1.566372
     54          1           0        5.177111    2.208910    0.754791
     55          1           0        5.901483    3.802136    0.485213
     56          1           0        1.367150    4.506056   -0.415073
     57          1           0       -0.693168    3.277323   -0.081820
     58          1           0       -2.166615    1.619273    2.389006
     59          1           0       -3.815490    2.758610    3.742716
     60          1           0       -5.961080    3.980943    3.974001
     61          1           0       -7.358374    4.409143    1.951639
     62          1           0       -6.631312    3.636624   -0.244895
     63          1           0       -5.974684    2.977373   -2.013832
     64          1           0       -5.141131    2.157342   -4.156319
     65          1           0       -2.965348    0.937001   -4.278338
     66          1           0       -1.655951    0.560613   -2.219510
     67          1           0       -3.064649   -1.029628    0.576814
     68          1           0       -4.793788   -2.368824   -0.047942
     69          1           0       -4.672584   -2.160152    1.709873
     70          1           0       -5.557067   -3.536799    1.039168
     71          1           0       -3.271566   -3.793336    3.105811
     72          1           0       -2.472123   -5.174570    2.340311
     73          1           0       -4.238504   -5.115440    2.422163
     74          1           0       -2.654209   -5.485570   -0.247840
     75          1           0       -3.576459   -4.311776   -1.199253
     76          1           0       -4.415737   -5.419375   -0.095069
     77          1           0       -0.811283   -4.677992    0.850188
     78          1           0        1.259194   -3.453624    0.544397
     79          1           0        3.345536   -0.935588    2.200137
     80          1           0        5.519700   -2.104276    2.221886
     81          1           0        7.226695   -3.498715    1.055658
     82          1           0        7.965978   -4.717401   -0.965599
     83          1           0        6.527055   -4.762783   -2.998367
     84          1           0        4.349755   -3.591234   -3.009686
     85          1           0        2.656802   -2.203411   -1.844865
     86          1           0        3.624127    0.856663   -0.226604
 ---------------------------------------------------------------------

 SCF Done:  E(RB3LYP) =  -1777.07309170     A.U. after   16 cycles

 Excitation energies and oscillator strengths:

 Excited state symmetry could not be determined.
 Excited State   1:      Triplet-?Sym    1.7097 eV  725.17 nm  f=0.0000  <S**2>=2.000
     158 ->159         0.69658
     158 <-159         0.13607
 This state for optimization and/or second-order correction.
 Total Energy, E(TD-HF/TD-DFT) =  -1777.01026055
 Copying the excited state density for this state as the 1-particle RhoCI density.

 Excited state symmetry could not be determined.
 Excited State   2:      Triplet-?Sym    2.7116 eV  457.23 nm  f=0.0000  <S**2>=2.000
     153 ->163         0.14331
     156 ->159        -0.12319
     156 ->160        -0.64182
     158 ->160         0.10842
     156 <-160        -0.10326

 Excited state symmetry could not be determined.
 Excited State   3:      Singlet-?Sym    3.0712 eV  403.70 nm  f=0.1984  <S**2>=0.000
     158 ->159         0.69960

 Excited state symmetry could not be determined.
 Excited State   4:      Singlet-?Sym    3.3557 eV  369.48 nm  f=0.0003  <S**2>=0.000
     158 ->160        -0.17752
     158 ->161         0.68042

 Alpha  occ. eigenvalues --  -10.19985 -10.19952 -10.19927 -10.19896 -10.19793
 Alpha  occ. eigenvalues --  -10.19758 -10.19731 -10.19711 -10.19676 -10.19601
 Alpha  occ. eigenvalues --  -10.19483 -10.19409 -10.19323 -10.19309 -10.19273
 Alpha  occ. eigenvalues --  -10.19221 -10.19141 -10.19124 -10.19104 -10.19052
 Alpha  occ. eigenvalues --  -10.19027 -10.19016 -10.19004 -10.18950 -10.18943
 Alpha  occ. eigenvalues --  -10.18919 -10.18878 -10.18856 -10.18792 -10.18783
 Alpha  occ. eigenvalues --  -10.18751 -10.18742 -10.18690 -10.18453 -10.18144
 Alpha  occ. eigenvalues --  -10.18079 -10.18039 -10.17983 -10.17679 -10.17592
 Alpha  occ. eigenvalues --  -10.17108 -10.17067 -10.17057 -10.16976 -10.16938
 Alpha  occ. eigenvalues --  -10.16795  -0.88497  -0.87649  -0.86849  -0.84907
 Alpha  occ. eigenvalues --   -0.84401  -0.83008  -0.82579  -0.80935  -0.80443
 Alpha  occ. eigenvalues --   -0.78307  -0.77682  -0.76941  -0.76646  -0.74977
 Alpha  occ. eigenvalues --   -0.73835  -0.73568  -0.72438  -0.71980  -0.71813
 Alpha  occ. eigenvalues --   -0.71590  -0.69037  -0.68123  -0.67965  -0.67870
 Alpha  occ. eigenvalues --   -0.67607  -0.64341  -0.62798  -0.62703  -0.61976
 Alpha  occ. eigenvalues --   -0.61253  -0.61214  -0.60396  -0.59482  -0.58528
 Alpha  occ. eigenvalues --   -0.57968  -0.56570  -0.56307  -0.53881  -0.52771
 Alpha  occ. eigenvalues --   -0.52679  -0.52158  -0.51171  -0.50751  -0.49724
 Alpha  occ. eigenvalues --   -0.49308  -0.48343  -0.47654  -0.47360  -0.46622
 Alpha  occ. eigenvalues --   -0.45593  -0.45343  -0.45111  -0.44693  -0.43735
 Alpha  occ. eigenvalues --   -0.43393  -0.43312  -0.43230  -0.43193  -0.43022
 Alpha  occ. eigenvalues --   -0.42659  -0.42245  -0.41989  -0.41806  -0.41701
 Alpha  occ. eigenvalues --   -0.41650  -0.41313  -0.40829  -0.40237  -0.39773
 Alpha  occ. eigenvalues --   -0.39439  -0.39217  -0.39044  -0.38919  -0.38790
 Alpha  occ. eigenvalues --   -0.38430  -0.37837  -0.37285  -0.37140  -0.36998
 Alpha  occ. eigenvalues --   -0.36258  -0.36112  -0.36070  -0.35804  -0.35743
 Alpha  occ. eigenvalues --   -0.35461  -0.35169  -0.34773  -0.34554  -0.33314
 Alpha  occ. eigenvalues --   -0.33068  -0.32919  -0.32680  -0.32408  -0.32341
 Alpha  occ. eigenvalues --   -0.32044  -0.31895  -0.31382  -0.30859  -0.30366
 Alpha  occ. eigenvalues --   -0.30049  -0.28446  -0.28168  -0.28106  -0.27998
 Alpha  occ. eigenvalues --   -0.25910  -0.24440  -0.23971  -0.22788  -0.22106
 Alpha  occ. eigenvalues --   -0.21422  -0.20890  -0.18282
 Alpha virt. eigenvalues --   -0.05705  -0.03824  -0.03744  -0.03040  -0.01031
 Alpha virt. eigenvalues --   -0.00482   0.00848   0.01554   0.03401   0.03936
 Alpha virt. eigenvalues --    0.04754   0.06755   0.07932   0.08705   0.08819

 Mulliken charges:
               1
     1  C   -0.438136
     2  C    0.019048
     3  C   -0.458143
     4  C   -0.439076
     5  C    0.185551
     6  C   -0.195689
     7  C   -0.202155
     8  C    0.113601
     9  C   -0.109961
    10  C   -0.033474
    11  C   -0.245040
    12  C    0.149631
    13  C   -0.205431
    14  C   -0.130270
    15  C   -0.137729
    16  C   -0.191839
    17  C    0.068952
    18  C    0.048034
    19  C   -0.190486
    20  C   -0.135783
    21  C   -0.127454
    22  C   -0.208457
    23  C    0.123460
    24  C    0.132391
    25  C   -0.301387
    26  C    0.193653
    27  C    0.011905
    28  C   -0.455604
    29  C   -0.440891
    30  C   -0.441154
    31  C   -0.189437
    32  C   -0.204449
    33  C    0.101531
    34  C   -0.079110
    35  C    0.010179
    36  C   -0.154094
    37  C   -0.197020
    38  C    0.138265
    39  C   -0.192492
    40  C   -0.134726
    41  C   -0.136715
    42  C   -0.189932
    43  C    0.139714
    44  C   -0.231393
    45  C    0.115815
    46  C   -0.292298
    47  H    0.145261
    48  H    0.136094
    49  H    0.148971
    50  H    0.145017
    51  H    0.140806
    52  H    0.145532
    53  H    0.144524
    54  H    0.147858
    55  H    0.136151
    56  H    0.126042
    57  H    0.143197
    58  H    0.136839
    59  H    0.131717
    60  H    0.130151
    61  H    0.129190
    62  H    0.133729
    63  H    0.132474
    64  H    0.128702
    65  H    0.130068
    66  H    0.147733
    67  H    0.142240
    68  H    0.151206
    69  H    0.148925
    70  H    0.138366
    71  H    0.147750
    72  H    0.142470
    73  H    0.138728
    74  H    0.142154
    75  H    0.148561
    76  H    0.138656
    77  H    0.124327
    78  H    0.143091
    79  H    0.138431
    80  H    0.131629
    81  H    0.130077
    82  H    0.130401
    83  H    0.130669
    84  H    0.131832
    85  H    0.136235
    86  H    0.142288
 Sum of Mulliken charges =  -0.00000

 Dipole moment (field-independent basis, Debye):
    X=              0.1454    Y=             -0.1524    Z=             -0.0836  Tot=              0.2266
 Quadrupole moment (field-independent basis, Debye-Ang):
   XX=           -244.6031   YY=           -258.3731   ZZ=           -255.6455
   XY=             -8.0592   XZ=              0.6493   YZ=              3.1300

 Normal termination of Gaussian 16 at Sat Nov  5 10:48:29 2022.
