 Gaussian 16, Revision B.01,
 Gaussian 16:  ES64L-G16RevB.01 20-Dec-2017

 -----------------------------
 #p b3lyp/6-31g(d) opt SCF=XQC
 -----------------------------

 ------------------------------
 Gaussian input prepared by ASE
 ------------------------------
 Symbolic Z-matrix:
 Charge =  0 Multiplicity = 1

 SCF Done:  E(RB3LYP) =  -1777.06267527     A.U. after   16 cycles
 SCF Done:  E(RB3LYP) =  -1777.07234091     A.U. after   13 cycles
 SCF Done:  E(RB3LYP) =  -1777.07284444     A.U. after   12 cycles
 SCF Done:  E(RB3LYP) =  -1777.07302326     A.U. after   12 cycles
 SCF Done:  E(RB3LYP) =  -1777.07308355     A.U. after   11 cycles
 SCF Done:  E(RB3LYP) =  -1777.07309305     A.U. after   11 cycles
 SCF Done:  E(RB3LYP) =  -1777.07309496     A.U. after   10 cycles
 SCF Done:  E(RB3LYP) =  -1777.07309566     A.U. after   10 cycles
 SCF Done:  E(RB3LYP) =  -1777.07309629     A.U. after   10 cycles
 SCF Done:  E(RB3LYP) =  -1777.07309654     A.U. after   10 cycles
 SCF Done:  E(RB3LYP) =  -1777.07309660     A.U. after    7 cycles
 SCF Done:  E(RB3LYP) =  -1777.07309662     A.U. after    6 cycles
 Optimization completed.
    -- Stationary point found.

                         Standard orientation:
 ---------------------------------------------------------------------
 Center     Atomic      Atomic             Coordinates (Angstroms)
 Number     Number       Type             X           Y           Z
 ---------------------------------------------------------------------
      1          6           0       -3.693230    4.462252    1.097948
      2          6           0       -2.776614    4.610187   -0.139787
      3          6           0       -2.109824    5.998228   -0.078268
      4          6           0       -3.637871    4.548639   -1.423664
      5          6           0       -1.746573    3.462816   -0.155236
      6          6           0       -0.338753    3.696836   -0.092604
      7          6           0        0.563249    2.664906   -0.097202
      8          6           0        0.145996    1.300730   -0.168905
      9          6           0        1.067524    0.229147   -0.162460
     10          6           0        2.539682    0.511084   -0.103789
     11          6           0        3.240350    0.688235   -1.262507
     12          6           0        4.646775    0.961911   -1.279556
     13          6           0        5.330315    1.137955   -2.505626
     14          6           0        6.685198    1.401623   -2.533294
     15          6           0        7.397933    1.496875   -1.323228
     16          6           0        6.749358    1.328286   -0.113133
     17          6           0        5.362049    1.057153   -0.051285
     18          6           0        4.635797    0.872502    1.198468
     19          6           0        5.270482    0.952050    2.460568
     20          6           0        4.568671    0.775339    3.638336
     21          6           0        3.188678    0.508979    3.603687
     22          6           0        2.537757    0.424577    2.388614
     23          6           0        3.232492    0.601319    1.167793
     24          6           0        0.600134   -1.100774   -0.227366
     25          6           0        1.504361   -2.214318   -0.216544
     26          6           0        1.082387   -3.519135   -0.290934
     27          6           0        2.043974   -4.717686   -0.276858
     28          6           0        3.518065   -4.286980   -0.164311
     29          6           0        1.875685   -5.526909   -1.585552
     30          6           0        1.712996   -5.626001    0.931988
     31          6           0       -0.328749   -3.753894   -0.390629
     32          6           0       -1.232422   -2.729052   -0.401471
     33          6           0       -0.818310   -1.360551   -0.310915
     34          6           0       -1.739169   -0.292445   -0.316425
     35          6           0       -3.207946   -0.565296   -0.415328
     36          6           0       -3.881413   -0.401183   -1.660703
     37          6           0       -5.230262   -0.645366   -1.775703
     38          6           0       -5.995960   -1.068000   -0.656157
     39          6           0       -7.390061   -1.328614   -0.738191
     40          6           0       -8.097457   -1.735739    0.370594
     41          6           0       -7.441084   -1.901276    1.615410
     42          6           0       -6.090819   -1.657143    1.727123
     43          6           0       -5.331489   -1.236137    0.601809
     44          6           0       -3.937260   -0.975892    0.684761
     45          6           0       -1.271997    1.041241   -0.242603
     46          6           0       -2.169490    2.153447   -0.225481
     47          1           0       -3.110187    4.507937    2.024979
     48          1           0       -4.435322    5.269993    1.122849
     49          1           0       -4.234374    3.510583    1.090477
     50          1           0       -1.462020    6.180039   -0.943526
     51          1           0       -2.881103    6.776763   -0.074862
     52          1           0       -1.510600    6.125176    0.830591
     53          1           0       -3.015095    4.659414   -2.318890
     54          1           0       -4.176345    3.599055   -1.506644
     55          1           0       -4.380606    5.356115   -1.424353
     56          1           0        0.038033    4.711851   -0.036279
     57          1           0        1.624682    2.882038   -0.045288
     58          1           0        2.721345    0.621199   -2.215793
     59          1           0        4.765208    1.061382   -3.431634
     60          1           0        7.199214    1.534988   -3.481231
     61          1           0        8.464568    1.704183   -1.337406
     62          1           0        7.328146    1.408196    0.800608
     63          1           0        6.334082    1.156605    2.516256
     64          1           0        5.087150    0.843264    4.590982
     65          1           0        2.635497    0.370342    4.528586
     66          1           0        1.472931    0.219599    2.355874
     67          1           0        2.560402   -1.988404   -0.149091
     68          1           0        3.709860   -3.728625    0.758688
     69          1           0        3.825977   -3.662774   -1.010585
     70          1           0        4.162018   -5.173779   -0.155453
     71          1           0        2.116821   -4.911091   -2.459471
     72          1           0        0.853115   -5.898493   -1.710477
     73          1           0        2.546756   -6.394633   -1.585080
     74          1           0        0.684383   -6.000126    0.895210
     75          1           0        1.837701   -5.081837    1.875071
     76          1           0        2.382315   -6.494902    0.949313
     77          1           0       -0.696604   -4.773512   -0.462184
     78          1           0       -2.291656   -2.947342   -0.481329
     79          1           0       -3.308423   -0.080432   -2.526277
     80          1           0       -5.728740   -0.518786   -2.734150
     81          1           0       -7.890732   -1.200535   -1.695214
     82          1           0       -9.163623   -1.931896    0.295282
     83          1           0       -8.009963   -2.222764    2.483699
     84          1           0       -5.584805   -1.783670    2.681431
     85          1           0       -3.438295   -1.103721    1.642629
     86          1           0       -3.230650    1.935043   -0.265600
 ---------------------------------------------------------------------

 The electronic state is 1-A.
 Alpha  occ. eigenvalues --  -10.19985 -10.19952 -10.19927 -10.19896 -10.19793
 Alpha  occ. eigenvalues --  -10.19758 -10.19731 -10.19711 -10.19676 -10.19601
 Alpha  occ. eigenvalues --  -10.19483 -10.19409 -10.19323 -10.19309 -10.19273
 Alpha  occ. eigenvalues --  -10.19221 -10.19141 -10.19124 -10.19104 -10.19052
 Alpha  occ. eigenvalues --  -10.19027 -10.19016 -10.19004 -10.18950 -10.18943
 Alpha  occ. eigenvalues --  -10.18919 -10.18878 -10.18856 -10.18792 -10.18783
 Alpha  occ. eigenvalues --  -10.18751 -10.18742 -10.18690 -10.18453 -10.18144
 Alpha  occ. eigenvalues --  -10.18079 -10.18039 -10.17983 -10.17679 -10.17592
 Alpha  occ. eigenvalues --  -10.17108 -10.17067 -10.17057 -10.16976 -10.16938
 Alpha  occ. eigenvalues --  -10.16795  -0.88497  -0.87649  -0.86849  -0.84907
 Alpha  occ. eigenvalues --   -0.84401  -0.83008  -0.82579  -0.80935  -0.80443
 Alpha  occ. eigenvalues --   -0.78308  -0.77682  -0.76941  -0.76646  -0.74977
 Alpha  occ. eigenvalues --   -0.73835  -0.73568  -0.72438  -0.71980  -0.71813
 Alpha  occ. eigenvalues --   -0.71590  -0.69037  -0.68123  -0.67965  -0.67870
 Alpha  occ. eigenvalues --   -0.67607  -0.64341  -0.62798  -0.62703  -0.61976
 Alpha  occ. eigenvalues --   -0.61253  -0.61214  -0.60396  -0.59482  -0.58528
 Alpha  occ. eigenvalues --   -0.57968  -0.56570  -0.56307  -0.53881  -0.52771
 Alpha  occ. eigenvalues --   -0.52679  -0.52158  -0.51171  -0.50751  -0.49724
 Alpha  occ. eigenvalues --   -0.49308  -0.48343  -0.47654  -0.47360  -0.46622
 Alpha  occ. eigenvalues --   -0.45593  -0.45343  -0.45111  -0.44693  -0.43735
 Alpha  occ. eigenvalues --   -0.43393  -0.43312  -0.43230  -0.43193  -0.43022
 Alpha  occ. eigenvalues --   -0.42659  -0.42245  -0.41989  -0.41806  -0.41701
 Alpha  occ. eigenvalues --   -0.41650  -0.41313  -0.40829  -0.40237  -0.39773
 Alpha  occ. eigenvalues --   -0.39439  -0.39217  -0.39044  -0.38919  -0.38790
 Alpha  occ. eigenvalues --   -0.38430  -0.37837  -0.37285  -0.37140  -0.36998
 Alpha  occ. eigenvalues --   -0.36258  -0.36112  -0.36070  -0.35804  -0.35743
 Alpha  occ. eigenvalues --   -0.35461  -0.35169  -0.34773  -0.34554  -0.33314
 Alpha  occ. eigenvalues --   -0.33068  -0.32919  -0.32680  -0.32408  -0.32341
 Alpha  occ. eigenvalues --   -0.32044  -0.31895  -0.31382  -0.30859  -0.30366
 Alpha  occ. eigenvalues --   -0.30049  -0.28446  -0.28168  -0.28106  -0.27999
 Alpha  occ. eigenvalues --   -0.25910  -0.24440  -0.23971  -0.22788  -0.22106
 Alpha  occ. eigenvalues --   -0.21422  -0.20890  -0.18282
 Alpha virt. eigenvalues --   -0.05705  -0.03824  -0.03744  -0.03040  -0.01031
 Alpha virt. eigenvalues --   -0.00482   0.00848   0.01554   0.03401   0.03936
 Alpha virt. eigenvalues --    0.04754   0.06755   0.07932   0.08705   0.08819

 Mulliken charges:
               1
     1  C   -0.438143
     2  C    0.019054
     3  C   -0.458142
     4  C   -0.439067
     5  C    0.185543
     6  C   -0.195694
     7  C   -0.202158
     8  C    0.113603
     9  C   -0.109952
    10  C   -0.033495
    11  C   -0.245022
    12  C    0.149636
    13  C   -0.205431
    14  C   -0.130279
    15  C   -0.137727
    16  C   -0.191829
    17  C    0.068931
    18  C    0.048034
    19  C   -0.190490
    20  C   -0.135783
    21  C   -0.127450
    22  C   -0.208462
    23  C    0.123475
    24  C    0.132376
    25  C   -0.301377
    26  C    0.193669
    27  C    0.011889
    28  C   -0.455614
    29  C   -0.440887
    30  C   -0.441143
    31  C   -0.189440
    32  C   -0.204456
    33  C    0.101550
    34  C   -0.079109
    35  C    0.010153
    36  C   -0.154091
    37  C   -0.197025
    38  C    0.138277
    39  C   -0.192491
    40  C   -0.134721
    41  C   -0.136720
    42  C   -0.189937
    43  C    0.139700
    44  C   -0.231373
    45  C    0.115803
    46  C   -0.292282
    47  H    0.145261
    48  H    0.136095
    49  H    0.148971
    50  H    0.145017
    51  H    0.140806
    52  H    0.145532
    53  H    0.144523
    54  H    0.147854
    55  H    0.136149
    56  H    0.126041
    57  H    0.143199
    58  H    0.136840
    59  H    0.131717
    60  H    0.130152
    61  H    0.129191
    62  H    0.133729
    63  H    0.132474
    64  H    0.128701
    65  H    0.130068
    66  H    0.147734
    67  H    0.142239
    68  H    0.151209
    69  H    0.148929
    70  H    0.138368
    71  H    0.147748
    72  H    0.142470
    73  H    0.138728
    74  H    0.142151
    75  H    0.148559
    76  H    0.138655
    77  H    0.124327
    78  H    0.143091
    79  H    0.138431
    80  H    0.131630
    81  H    0.130078
    82  H    0.130401
    83  H    0.130670
    84  H    0.131833
    85  H    0.136236
    86  H    0.142291
 Sum of Mulliken charges =  -0.00000

 Dipole moment (field-independent basis, Debye):
    X=             -0.1933    Y=             -0.0914    Z=              0.0749  Tot=              0.2266
 Quadrupole moment (field-independent basis, Debye-Ang):
   XX=           -241.1677   YY=           -262.3469   ZZ=           -255.0819
   XY=              2.6521   XZ=              0.7222   YZ=             -2.2919

 Normal termination of Gaussian 16 at Sat Nov  5 00:20:41 2022.
