 Gaussian 16, Revision B.01,
 Gaussian 16:  ES64L-G16RevB.01 20-Dec-2017

 -----------------------------
 #p b3lyp/6-31g(d) opt SCF=XQC
 -----------------------------

 ------------------------------
 Gaussian input prepared by ASE
 ------------------------------
 Symbolic Z-matrix:
 Charge =  0 Multiplicity = 1

 SCF Done:  E(RB3LYP) =  -1803.13843095     A.U. after   14 cycles
 SCF Done:  E(RB3LYP) =  -1803.14629246     A.U. after   14 cycles
 SCF Done:  E(RB3LYP) =  -1803.14730676     A.U. after   13 cycles
 SCF Done:  E(RB3LYP) =  -1803.14762913     A.U. after   11 cycles
 SCF Done:  E(RB3LYP) =  -1803.14765554     A.U. after   10 cycles
 SCF Done:  E(RB3LYP) =  -1803.14765996     A.U. after    9 cycles
 SCF Done:  E(RB3LYP) =  -1803.14766254     A.U. after    9 cycles
 SCF Done:  E(RB3LYP) =  -1803.14766351     A.U. after    9 cycles
 SCF Done:  E(RB3LYP) =  -1803.14766389     A.U. after    9 cycles
 SCF Done:  E(RB3LYP) =  -1803.14766395     A.U. after    7 cycles
 Optimization completed.
    -- Stationary point found.

                         Standard orientation:
 ---------------------------------------------------------------------
 Center     Atomic      Atomic             Coordinates (Angstroms)
 Number     Number       Type             X           Y           Z
 ---------------------------------------------------------------------
      1          6           0       -2.730232    5.470255   -0.642391
      2          6           0       -2.276784    4.388406    0.114920
      3          6           0       -3.081779    3.263527    0.285265
      4          6           0       -4.356647    3.189995   -0.302766
      5          6           0       -5.206600    1.983492   -0.137295
      6          6           0       -6.617576    2.095479   -0.041186
      7          6           0       -7.412254    0.976597    0.096976
      8          6           0       -6.847216   -0.318690    0.148687
      9          6           0       -7.660407   -1.492875    0.284562
     10          6           0       -7.104485   -2.736620    0.326691
     11          6           0       -5.684811   -2.907550    0.241745
     12          6           0       -5.059071   -4.172011    0.271768
     13          6           0       -3.687352   -4.265742    0.193056
     14          6           0       -2.916172   -3.078667    0.090617
     15          6           0       -1.431999   -3.110632    0.023274
     16          6           0       -0.687633   -4.238392    0.406064
     17          6           0        0.702659   -4.238260    0.338984
     18          6           0        1.405194   -3.107820   -0.106797
     19          6           0        2.887660   -3.079565   -0.179801
     20          6           0        3.645138   -4.268915   -0.337411
     21          6           0        5.017919   -4.185056   -0.411484
     22          6           0        5.654091   -2.927930   -0.328931
     23          6           0        7.075715   -2.767020   -0.403589
     24          6           0        7.642291   -1.529988   -0.325313
     25          6           0        6.839076   -0.352768   -0.158811
     26          6           0        7.415981    0.935061   -0.067951
     27          6           0        6.631124    2.055983    0.105578
     28          6           0        5.219548    1.952543    0.199999
     29          6           0        4.383308    3.163086    0.401924
     30          6           0        3.245088    3.124052    1.225698
     31          6           0        2.461591    4.260557    1.419713
     32          6           0        2.797788    5.462844    0.794212
     33          6           0        3.924839    5.516986   -0.027826
     34          6           0        4.708865    4.380460   -0.220497
     35          6           0        4.642653    0.689707    0.104638
     36          6           0        5.422858   -0.468856   -0.074194
     37          6           0        4.815989   -1.787256   -0.174156
     38          7           0        3.471595   -1.883461   -0.108981
     39          6           0        0.660896   -1.974723   -0.478208
     40          6           0       -0.725038   -1.977731   -0.418215
     41          7           0       -3.494176   -1.878101    0.043357
     42          6           0       -4.836885   -1.771072    0.112991
     43          6           0       -5.431981   -0.444274    0.061723
     44          6           0       -4.642336    0.712452   -0.081035
     45          6           0       -4.798686    4.287535   -1.061567
     46          6           0       -3.995763    5.414843   -1.228731
     47          1           0       -2.102641    6.347293   -0.775572
     48          1           0       -1.293882    4.421081    0.577953
     49          1           0       -2.728639    2.438736    0.897519
     50          1           0       -7.075708    3.080221   -0.052316
     51          1           0       -8.491691    1.082354    0.176708
     52          1           0       -8.738686   -1.369760    0.351204
     53          1           0       -7.729882   -3.620717    0.425817
     54          1           0       -5.670252   -5.068480    0.349494
     55          1           0       -3.208066   -5.238153    0.189568
     56          1           0       -1.187647   -5.120243    0.794491
     57          1           0        1.243094   -5.118178    0.675744
     58          1           0        3.147373   -5.228136   -0.428950
     59          1           0        5.620577   -5.080813   -0.544390
     60          1           0        7.693669   -3.653360   -0.526489
     61          1           0        8.721848   -1.414666   -0.384772
     62          1           0        8.497794    1.031304   -0.123801
     63          1           0        7.100663    3.030748    0.201914
     64          1           0        2.989272    2.200563    1.737239
     65          1           0        1.593634    4.209079    2.072322
     66          1           0        2.188885    6.349749    0.947765
     67          1           0        4.191679    6.445016   -0.526826
     68          1           0        5.569472    4.429292   -0.882048
     69          1           0        3.566207    0.570744    0.149095
     70          1           0        1.192760   -1.094356   -0.821943
     71          1           0       -1.288121   -1.100900   -0.716510
     72          1           0       -3.570482    0.581609   -0.171908
     73          1           0       -5.768428    4.245105   -1.549659
     74          1           0       -4.356153    6.247110   -1.827844
 ---------------------------------------------------------------------

 The electronic state is 1-A.
 Alpha  occ. eigenvalues --  -14.32565 -14.32521 -10.23331 -10.23296 -10.22768
 Alpha  occ. eigenvalues --  -10.22745 -10.20787 -10.20752 -10.20384 -10.20340
 Alpha  occ. eigenvalues --  -10.19997 -10.19955 -10.19856 -10.19841 -10.19836
 Alpha  occ. eigenvalues --  -10.19803 -10.19783 -10.19751 -10.19673 -10.19669
 Alpha  occ. eigenvalues --  -10.19662 -10.19637 -10.19624 -10.19589 -10.19578
 Alpha  occ. eigenvalues --  -10.19558 -10.19272 -10.19213 -10.19165 -10.19123
 Alpha  occ. eigenvalues --  -10.19094 -10.19047 -10.18860 -10.18832 -10.18777
 Alpha  occ. eigenvalues --  -10.18738 -10.18723 -10.18666 -10.18634 -10.18623
 Alpha  occ. eigenvalues --  -10.18609 -10.18504 -10.18431 -10.18390 -10.18382
 Alpha  occ. eigenvalues --  -10.18301  -0.94605  -0.94549  -0.87282  -0.87125
 Alpha  occ. eigenvalues --   -0.85712  -0.85203  -0.84855  -0.82772  -0.82654
 Alpha  occ. eigenvalues --   -0.80284  -0.79872  -0.78746  -0.77415  -0.75945
 Alpha  occ. eigenvalues --   -0.75662  -0.75125  -0.74334  -0.74208  -0.74020
 Alpha  occ. eigenvalues --   -0.73227  -0.72219  -0.71272  -0.70590  -0.65941
 Alpha  occ. eigenvalues --   -0.64827  -0.64328  -0.63174  -0.62657  -0.62263
 Alpha  occ. eigenvalues --   -0.61169  -0.60601  -0.59698  -0.58669  -0.58419
 Alpha  occ. eigenvalues --   -0.58326  -0.58305  -0.57855  -0.54275  -0.54204
 Alpha  occ. eigenvalues --   -0.53420  -0.52845  -0.51593  -0.50850  -0.50654
 Alpha  occ. eigenvalues --   -0.50099  -0.49030  -0.48438  -0.47649  -0.47021
 Alpha  occ. eigenvalues --   -0.46251  -0.46035  -0.44829  -0.44782  -0.44510
 Alpha  occ. eigenvalues --   -0.44275  -0.44173  -0.43533  -0.43379  -0.42852
 Alpha  occ. eigenvalues --   -0.42659  -0.42496  -0.42397  -0.41856  -0.41690
 Alpha  occ. eigenvalues --   -0.41557  -0.41457  -0.41183  -0.41155  -0.40646
 Alpha  occ. eigenvalues --   -0.40203  -0.40109  -0.39974  -0.38079  -0.37686
 Alpha  occ. eigenvalues --   -0.37588  -0.37176  -0.36523  -0.36018  -0.35905
 Alpha  occ. eigenvalues --   -0.35805  -0.35451  -0.35228  -0.34506  -0.34184
 Alpha  occ. eigenvalues --   -0.33891  -0.33508  -0.33449  -0.32935  -0.32886
 Alpha  occ. eigenvalues --   -0.32774  -0.32202  -0.29759  -0.29604  -0.28903
 Alpha  occ. eigenvalues --   -0.27516  -0.25604  -0.25564  -0.25175  -0.25045
 Alpha  occ. eigenvalues --   -0.24767  -0.24692  -0.24634  -0.24077  -0.23040
 Alpha  occ. eigenvalues --   -0.22312  -0.20949  -0.20041
 Alpha virt. eigenvalues --   -0.06726  -0.04904  -0.03982  -0.03964  -0.02856
 Alpha virt. eigenvalues --   -0.01320   0.00080   0.00164   0.00325   0.00803
 Alpha virt. eigenvalues --    0.02242   0.03096   0.03283   0.04226   0.07545

 Mulliken charges:
               1
     1  C   -0.125914
     2  C   -0.136419
     3  C   -0.172136
     4  C    0.089815
     5  C    0.093803
     6  C   -0.171327
     7  C   -0.213496
     8  C    0.135007
     9  C   -0.188873
    10  C   -0.200826
    11  C    0.169184
    12  C   -0.164931
    13  C   -0.174633
    14  C    0.263698
    15  C    0.105759
    16  C   -0.191934
    17  C   -0.190147
    18  C    0.110603
    19  C    0.253348
    20  C   -0.174783
    21  C   -0.163766
    22  C    0.166874
    23  C   -0.200226
    24  C   -0.188630
    25  C    0.134180
    26  C   -0.212797
    27  C   -0.170176
    28  C    0.092708
    29  C    0.088295
    30  C   -0.170014
    31  C   -0.138148
    32  C   -0.126707
    33  C   -0.133786
    34  C   -0.174605
    35  C   -0.240966
    36  C    0.085129
    37  C    0.192687
    38  N   -0.593042
    39  C   -0.167936
    40  C   -0.169473
    41  N   -0.601785
    42  C    0.193256
    43  C    0.085342
    44  C   -0.240792
    45  C   -0.175432
    46  C   -0.133998
    47  H    0.128592
    48  H    0.132563
    49  H    0.139088
    50  H    0.133401
    51  H    0.130458
    52  H    0.132872
    53  H    0.131535
    54  H    0.139471
    55  H    0.140403
    56  H    0.129550
    57  H    0.129886
    58  H    0.140751
    59  H    0.139778
    60  H    0.131722
    61  H    0.132985
    62  H    0.130710
    63  H    0.133556
    64  H    0.140598
    65  H    0.131880
    66  H    0.128242
    67  H    0.129852
    68  H    0.131542
    69  H    0.164668
    70  H    0.156797
    71  H    0.161203
    72  H    0.165929
    73  H    0.130701
    74  H    0.129274
 Sum of Mulliken charges =  -0.00000

 Dipole moment (field-independent basis, Debye):
    X=              0.0870    Y=             -1.9383    Z=             -0.0833  Tot=              1.9420
 Quadrupole moment (field-independent basis, Debye-Ang):
   XX=           -216.1948   YY=           -218.0561   ZZ=           -268.6564
   XY=              0.2586   XZ=             -3.7674   YZ=             -4.7781

 1\1\GINC-NODE07\FOpt\RB3LYP\6-31G(d)\C44H28N2\WYKGROUP\04-Nov-2022\0\\
 #p b3lyp/6-31g(d) opt SCF=XQC\\Gaussian input prepared by ASE\\0,1\C,2
 .6501150086,5.1018210671,-1.7793412869\C,2.0385957315,3.8712086414,-2.
 0266641589\C,2.7985928434,2.7034921428,-2.0617454264\C,4.1870714673,2.
 7367074564,-1.8438001864\C,4.9939774797,1.4901033765,-1.8620360106\C,6
 .3214278921,1.4902652982,-2.3625425317\C,7.0801084908,0.3383616406,-2.
 3671870236\C,6.5598507121,-0.8808306664,-1.874631226\C,7.3385474954,-2
 .0858209455,-1.8655838084\C,6.8281887833,-3.2535325088,-1.3821489979\C

 Normal termination of Gaussian 16 at Fri Nov  4 23:56:03 2022.
