 Gaussian 16, Revision B.01,
 Gaussian 16:  ES64L-G16RevB.01 20-Dec-2017

 -------------------------------------------------------------------
 #p b3lyp/6-31g(d) 6D 10F nosymm GFInput td=(50-50,nstate=2) SCF=XQC
 -------------------------------------------------------------------

 ------------------------------
 Gaussian input prepared by ASE
 ------------------------------
 Symbolic Z-matrix:
 Charge =  0 Multiplicity = 1

                          Input orientation:
 ---------------------------------------------------------------------
 Center     Atomic      Atomic             Coordinates (Angstroms)
 Number     Number       Type             X           Y           Z
 ---------------------------------------------------------------------
      1          6           0        2.650115    5.101821   -1.779341
      2          6           0        2.038596    3.871209   -2.026664
      3          6           0        2.798593    2.703492   -2.061745
      4          6           0        4.187071    2.736707   -1.843800
      5          6           0        4.993977    1.490103   -1.862036
      6          6           0        6.321428    1.490265   -2.362543
      7          6           0        7.080108    0.338362   -2.367187
      8          6           0        6.559851   -0.880831   -1.874631
      9          6           0        7.338547   -2.085821   -1.865584
     10          6           0        6.828189   -3.253533   -1.382149
     11          6           0        5.491023   -3.312724   -0.871863
     12          6           0        4.917420   -4.492740   -0.352386
     13          6           0        3.622452   -4.482815    0.116181
     14          6           0        2.874666   -3.277754    0.061376
     15          6           0        1.466680   -3.206059    0.531230
     16          6           0        0.678860   -4.353518    0.718660
     17          6           0       -0.639839   -4.256495    1.153440
     18          6           0       -1.226343   -3.007658    1.411487
     19          6           0       -2.632874   -2.876957    1.868019
     20          6           0       -3.284150   -3.922528    2.572142
     21          6           0       -4.586507   -3.744565    2.983531
     22          6           0       -5.256927   -2.534918    2.702123
     23          6           0       -6.608310   -2.280597    3.104078
     24          6           0       -7.210058   -1.092706    2.813913
     25          6           0       -6.516876   -0.063869    2.093000
     26          6           0       -7.133449    1.169313    1.778868
     27          6           0       -6.458220    2.143402    1.073323
     28          6           0       -5.123541    1.938595    0.638753
     29          6           0       -4.409219    2.986898   -0.133443
     30          6           0       -3.538186    2.642858   -1.181589
     31          6           0       -2.870299    3.625821   -1.910193
     32          6           0       -3.057560    4.976046   -1.607540
     33          6           0       -3.918760    5.333363   -0.568511
     34          6           0       -4.587522    4.350011    0.159011
     35          6           0       -4.506468    0.730579    0.949519
     36          6           0       -5.174696   -0.278094    1.669949
     37          6           0       -4.525946   -1.539396    1.993527
     38          7           0       -3.248107   -1.724927    1.601607
     39          6           0       -0.441846   -1.858473    1.212059
     40          6           0        0.874678   -1.955899    0.785799
     41          7           0        3.408900   -2.150924   -0.410353
     42          6           0        4.678064   -2.143874   -0.866801
     43          6           0        5.226201   -0.896428   -1.377278
     44          6           0        4.472527    0.292644   -1.381118
     45          6           0        4.787574    3.983356   -1.596751
     46          6           0        4.028633    5.152333   -1.565866
     47          1           0        2.057706    6.012365   -1.751665
     48          1           0        0.966155    3.819836   -2.196353
     49          1           0        2.315711    1.755375   -2.280244
     50          1           0        6.736735    2.407234   -2.770480
     51          1           0        8.093377    0.355802   -2.761788
     52          1           0        8.353773   -2.047892   -2.253091
     53          1           0        7.427978   -4.160610   -1.375945
     54          1           0        5.509730   -5.404495   -0.319066
     55          1           0        3.190435   -5.382528    0.539487
     56          1           0        1.079107   -5.337103    0.493022
     57          1           0       -1.226114   -5.165290    1.253970
     58          1           0       -2.752939   -4.837757    2.809683
     59          1           0       -5.104072   -4.526049    3.535481
     60          1           0       -7.143584   -3.055215    3.648154
     61          1           0       -8.235323   -0.905313    3.123740
     62          1           0       -8.161320    1.337570    2.091715
     63          1           0       -6.964041    3.070471    0.819151
     64          1           0       -3.405154    1.596671   -1.441868
     65          1           0       -2.212127    3.335535   -2.725325
     66          1           0       -2.539366    5.742635   -2.177416
     67          1           0       -4.065943    6.380779   -0.318112
     68          1           0       -5.236111    4.640012    0.981148
     69          1           0       -3.479999    0.544326    0.655352
     70          1           0       -0.884868   -0.887762    1.405781
     71          1           0        1.472331   -1.062685    0.644898
     72          1           0        3.470311    0.254159   -0.970838
     73          1           0        5.854475    4.033570   -1.397664
     74          1           0        4.514687    6.103290   -1.363586
 ---------------------------------------------------------------------

 SCF Done:  E(RB3LYP) =  -1803.14767247     A.U. after   14 cycles

 Excitation energies and oscillator strengths:

 Excited state symmetry could not be determined.
 Excited State   1:      Triplet-?Sym    2.3718 eV  522.74 nm  f=0.0000  <S**2>=2.000
     149 ->154         0.11017
     151 ->158         0.10267
     152 ->155         0.23483
     153 ->154         0.57857
 This state for optimization and/or second-order correction.
 Total Energy, E(TD-HF/TD-DFT) =  -1803.06050976
 Copying the excited state density for this state as the 1-particle RhoCI density.

 Excited state symmetry could not be determined.
 Excited State   2:      Triplet-?Sym    2.5622 eV  483.89 nm  f=0.0000  <S**2>=2.000
     145 ->154         0.10489
     150 ->156         0.12003
     151 ->155        -0.11034
     152 ->154         0.43183
     152 ->158        -0.16420
     153 ->155         0.35467
     153 ->156         0.12293
     153 ->157        -0.15863

 Excited state symmetry could not be determined.
 Excited State   3:      Singlet-?Sym    3.1836 eV  389.44 nm  f=0.5311  <S**2>=0.000
     152 ->155         0.11583
     153 ->154         0.69392

 Excited state symmetry could not be determined.
 Excited State   4:      Singlet-?Sym    3.4918 eV  355.07 nm  f=0.1843  <S**2>=0.000
     152 ->154         0.69317

 Alpha  occ. eigenvalues --  -14.32565 -14.32521 -10.23331 -10.23297 -10.22768
 Alpha  occ. eigenvalues --  -10.22745 -10.20787 -10.20752 -10.20383 -10.20340
 Alpha  occ. eigenvalues --  -10.19997 -10.19955 -10.19856 -10.19841 -10.19836
 Alpha  occ. eigenvalues --  -10.19803 -10.19783 -10.19751 -10.19673 -10.19669
 Alpha  occ. eigenvalues --  -10.19662 -10.19637 -10.19624 -10.19589 -10.19578
 Alpha  occ. eigenvalues --  -10.19558 -10.19272 -10.19213 -10.19165 -10.19123
 Alpha  occ. eigenvalues --  -10.19094 -10.19047 -10.18860 -10.18832 -10.18777
 Alpha  occ. eigenvalues --  -10.18738 -10.18723 -10.18666 -10.18634 -10.18623
 Alpha  occ. eigenvalues --  -10.18609 -10.18504 -10.18431 -10.18390 -10.18382
 Alpha  occ. eigenvalues --  -10.18301  -0.94605  -0.94549  -0.87282  -0.87125
 Alpha  occ. eigenvalues --   -0.85712  -0.85203  -0.84855  -0.82772  -0.82654
 Alpha  occ. eigenvalues --   -0.80284  -0.79872  -0.78746  -0.77415  -0.75945
 Alpha  occ. eigenvalues --   -0.75662  -0.75125  -0.74334  -0.74208  -0.74020
 Alpha  occ. eigenvalues --   -0.73227  -0.72219  -0.71272  -0.70590  -0.65941
 Alpha  occ. eigenvalues --   -0.64827  -0.64328  -0.63174  -0.62657  -0.62263
 Alpha  occ. eigenvalues --   -0.61169  -0.60601  -0.59698  -0.58669  -0.58419
 Alpha  occ. eigenvalues --   -0.58326  -0.58305  -0.57855  -0.54275  -0.54204
 Alpha  occ. eigenvalues --   -0.53420  -0.52845  -0.51593  -0.50850  -0.50654
 Alpha  occ. eigenvalues --   -0.50099  -0.49030  -0.48438  -0.47649  -0.47021
 Alpha  occ. eigenvalues --   -0.46251  -0.46035  -0.44829  -0.44782  -0.44510
 Alpha  occ. eigenvalues --   -0.44275  -0.44173  -0.43533  -0.43379  -0.42852
 Alpha  occ. eigenvalues --   -0.42659  -0.42496  -0.42398  -0.41856  -0.41690
 Alpha  occ. eigenvalues --   -0.41557  -0.41457  -0.41183  -0.41155  -0.40646
 Alpha  occ. eigenvalues --   -0.40203  -0.40110  -0.39974  -0.38079  -0.37686
 Alpha  occ. eigenvalues --   -0.37588  -0.37176  -0.36523  -0.36018  -0.35905
 Alpha  occ. eigenvalues --   -0.35806  -0.35451  -0.35228  -0.34506  -0.34184
 Alpha  occ. eigenvalues --   -0.33891  -0.33508  -0.33449  -0.32935  -0.32886
 Alpha  occ. eigenvalues --   -0.32774  -0.32202  -0.29759  -0.29604  -0.28903
 Alpha  occ. eigenvalues --   -0.27516  -0.25604  -0.25564  -0.25175  -0.25045
 Alpha  occ. eigenvalues --   -0.24767  -0.24692  -0.24634  -0.24077  -0.23040
 Alpha  occ. eigenvalues --   -0.22312  -0.20949  -0.20041
 Alpha virt. eigenvalues --   -0.06726  -0.04904  -0.03982  -0.03964  -0.02856
 Alpha virt. eigenvalues --   -0.01320   0.00080   0.00164   0.00325   0.00803
 Alpha virt. eigenvalues --    0.02242   0.03096   0.03283   0.04226   0.07544

 Mulliken charges:
               1
     1  C   -0.125919
     2  C   -0.136416
     3  C   -0.172127
     4  C    0.089802
     5  C    0.093809
     6  C   -0.171333
     7  C   -0.213495
     8  C    0.135021
     9  C   -0.188877
    10  C   -0.200825
    11  C    0.169212
    12  C   -0.164962
    13  C   -0.174612
    14  C    0.263676
    15  C    0.105772
    16  C   -0.191938
    17  C   -0.190152
    18  C    0.110607
    19  C    0.253332
    20  C   -0.174769
    21  C   -0.163783
    22  C    0.166885
    23  C   -0.200225
    24  C   -0.188628
    25  C    0.134174
    26  C   -0.212797
    27  C   -0.170170
    28  C    0.092706
    29  C    0.088287
    30  C   -0.170011
    31  C   -0.138153
    32  C   -0.126699
    33  C   -0.133795
    34  C   -0.174601
    35  C   -0.240957
    36  C    0.085129
    37  C    0.192677
    38  N   -0.593027
    39  C   -0.167936
    40  C   -0.169479
    41  N   -0.601757
    42  C    0.193223
    43  C    0.085328
    44  C   -0.240792
    45  C   -0.175428
    46  C   -0.133991
    47  H    0.128591
    48  H    0.132561
    49  H    0.139091
    50  H    0.133401
    51  H    0.130459
    52  H    0.132871
    53  H    0.131535
    54  H    0.139474
    55  H    0.140404
    56  H    0.129551
    57  H    0.129886
    58  H    0.140752
    59  H    0.139779
    60  H    0.131722
    61  H    0.132986
    62  H    0.130710
    63  H    0.133556
    64  H    0.140597
    65  H    0.131881
    66  H    0.128241
    67  H    0.129853
    68  H    0.131543
    69  H    0.164665
    70  H    0.156799
    71  H    0.161207
    72  H    0.165925
    73  H    0.130701
    74  H    0.129273
 Sum of Mulliken charges =  -0.00000

 Dipole moment (field-independent basis, Debye):
    X=             -0.0053    Y=             -1.8189    Z=              0.6805  Tot=              1.9421
 Quadrupole moment (field-independent basis, Debye-Ang):
   XX=           -222.1355   YY=           -219.0746   ZZ=           -261.1321
   XY=             -4.2442   XZ=            -16.5944   YZ=             -9.4919

 Normal termination of Gaussian 16 at Sat Nov  5 10:21:57 2022.
