 Gaussian 16, Revision B.01,
 Gaussian 16:  ES64L-G16RevB.01 20-Dec-2017

 -----------------------------
 #p b3lyp/6-31g(d) opt SCF=XQC
 -----------------------------

 ------------------------------
 Gaussian input prepared by ASE
 ------------------------------
 Symbolic Z-matrix:
 Charge =  0 Multiplicity = 1

 SCF Done:  E(RB3LYP) =  -2247.97941480     A.U. after   15 cycles
 SCF Done:  E(RB3LYP) =  -2247.99037280     A.U. after   13 cycles
 SCF Done:  E(RB3LYP) =  -2247.99053375     A.U. after   12 cycles
 SCF Done:  E(RB3LYP) =  -2247.99127937     A.U. after   12 cycles
 SCF Done:  E(RB3LYP) =  -2247.99134925     A.U. after   11 cycles
 SCF Done:  E(RB3LYP) =  -2247.99138384     A.U. after   11 cycles
 SCF Done:  E(RB3LYP) =  -2247.99139914     A.U. after   11 cycles
 SCF Done:  E(RB3LYP) =  -2247.99140324     A.U. after   10 cycles
 SCF Done:  E(RB3LYP) =  -2247.99140462     A.U. after   10 cycles
 SCF Done:  E(RB3LYP) =  -2247.99140479     A.U. after    8 cycles
 SCF Done:  E(RB3LYP) =  -2247.99140482     A.U. after    7 cycles
 Optimization completed.
    -- Stationary point found.

                         Standard orientation:
 ---------------------------------------------------------------------
 Center     Atomic      Atomic             Coordinates (Angstroms)
 Number     Number       Type             X           Y           Z
 ---------------------------------------------------------------------
      1          6           0       11.927548    1.317246    2.537950
      2          6           0       10.530022    1.532087    2.495063
      3          6           0        9.768771    0.990729    1.482777
      4          6           0       10.358932    0.200964    0.456294
      5          6           0        9.605428   -0.381731   -0.621053
      6          6           0        8.120586   -0.283085   -0.701801
      7          6           0        7.510437    0.214393   -1.890660
      8          6           0        6.143065    0.275856   -2.020181
      9          6           0        5.290034   -0.159952   -0.971551
     10          6           0        3.874921   -0.109938   -1.071053
     11          6           0        3.061133   -0.547188   -0.042218
     12          6           0        1.569946   -0.502976   -0.166332
     13          6           0        0.847572   -1.708633   -0.349517
     14          6           0        1.505205   -2.970684   -0.471543
     15          6           0        0.792338   -4.137301   -0.584837
     16          6           0       -0.624149   -4.102966   -0.576356
     17          6           0       -1.290810   -2.906194   -0.483243
     18          6           0       -0.589282   -1.663186   -0.393576
     19          6           0       -1.280527   -0.413652   -0.347971
     20          6           0       -2.777723   -0.478134   -0.342555
     21          6           0       -3.497964   -0.754460   -1.541809
     22          6           0       -4.870589   -0.844263   -1.539668
     23          6           0       -5.613150   -0.674063   -0.339063
     24          6           0       -7.028409   -0.762951   -0.303827
     25          6           0       -7.738219   -0.605659    0.875219
     26          6           0       -9.220065   -0.754834    0.928538
     27          6           0       -9.761219   -1.668813    1.818593
     28          6           0      -11.152964   -1.895518    1.898913
     29          6           0      -12.012918   -1.201185    1.081652
     30          6           0      -11.516773   -0.234501    0.167895
     31          6           0      -12.397560    0.509734   -0.663022
     32          6           0      -11.920777    1.471212   -1.523225
     33          6           0      -10.532817    1.738595   -1.579140
     34          6           0       -9.650571    1.029253   -0.794426
     35          6           0      -10.103036    0.009536    0.089389
     36          6           0       -7.011296   -0.353093    2.075656
     37          6           0       -5.639585   -0.259452    2.074591
     38          6           0       -4.897606   -0.415083    0.873489
     39          6           0       -3.481426   -0.325493    0.836558
     40          6           0       -0.556574    0.790851   -0.254808
     41          6           0        0.876882    0.713666   -0.090135
     42          6           0        1.594307    1.927611    0.240882
     43          7           0        1.073562    3.107326    0.344611
     44          6           0       -0.271967    3.246605    0.037453
     45          6           0       -0.765208    4.566765    0.044812
     46          6           0       -2.071551    4.840861   -0.314898
     47          6           0       -2.904693    3.782566   -0.704334
     48          6           0       -2.441806    2.474853   -0.695083
     49          6           0       -1.123344    2.152142   -0.297477
     50          6           0        3.666635   -1.059306    1.142364
     51          6           0        5.034550   -1.114331    1.271669
     52          6           0        5.887563   -0.667808    0.225879
     53          6           0        7.301533   -0.715091    0.328289
     54          6           0       10.278742   -1.064766   -1.621223
     55          6           0       11.680583   -1.234822   -1.592648
     56          6           0       12.416976   -0.716151   -0.554243
     57          6           0       11.783245    0.014337    0.485178
     58          6           0       12.536527    0.579480    1.549731
     59          1           0       12.516909    1.745575    3.344175
     60          1           0       10.054298    2.135796    3.263314
     61          1           0        8.701439    1.179165    1.454567
     62          1           0        8.149134    0.563987   -2.696837
     63          1           0        5.697146    0.667770   -2.931265
     64          1           0        3.428289    0.279878   -1.982685
     65          1           0        2.588994   -2.994787   -0.472420
     66          1           0        1.311766   -5.087168   -0.676975
     67          1           0       -1.187259   -5.029618   -0.648218
     68          1           0       -2.373745   -2.899599   -0.482112
     69          1           0       -2.944107   -0.885437   -2.467432
     70          1           0       -5.406478   -1.049377   -2.463549
     71          1           0       -7.558102   -0.981075   -1.227713
     72          1           0       -9.092518   -2.248425    2.449273
     73          1           0      -11.535018   -2.631598    2.600994
     74          1           0      -13.085139   -1.376494    1.127214
     75          1           0      -13.464254    0.307532   -0.598620
     76          1           0      -12.606600    2.034082   -2.150619
     77          1           0      -10.160641    2.515529   -2.241648
     78          1           0       -8.591579    1.257956   -0.836134
     79          1           0       -7.564483   -0.218026    3.000783
     80          1           0       -5.104595   -0.056816    2.999333
     81          1           0       -2.945686   -0.123629    1.760865
     82          1           0        2.657536    1.846912    0.453995
     83          1           0       -0.069088    5.351214    0.324453
     84          1           0       -2.441762    5.862446   -0.313581
     85          1           0       -3.924640    3.980313   -1.023055
     86          1           0       -3.114562    1.699272   -1.025379
     87          1           0        3.027995   -1.402175    1.951560
     88          1           0        5.481750   -1.500464    2.184647
     89          1           0        7.743112   -1.120572    1.235067
     90          1           0        9.707419   -1.507554   -2.432665
     91          1           0       12.168154   -1.789481   -2.389731
     92          1           0       13.495322   -0.851241   -0.516673
     93          1           0       13.612644    0.422337    1.562672
 ---------------------------------------------------------------------

 The electronic state is 1-A.
 Alpha  occ. eigenvalues --  -14.31976 -10.21766 -10.21356 -10.21270 -10.21000
 Alpha  occ. eigenvalues --  -10.20831 -10.20696 -10.20553 -10.20462 -10.20453
 Alpha  occ. eigenvalues --  -10.20432 -10.20398 -10.20373 -10.20319 -10.20264
 Alpha  occ. eigenvalues --  -10.20257 -10.20239 -10.20212 -10.20174 -10.20144
 Alpha  occ. eigenvalues --  -10.20048 -10.20042 -10.19876 -10.19784 -10.19784
 Alpha  occ. eigenvalues --  -10.19674 -10.19619 -10.19616 -10.19610 -10.19533
 Alpha  occ. eigenvalues --  -10.19505 -10.19471 -10.19452 -10.19451 -10.19439
 Alpha  occ. eigenvalues --  -10.19403 -10.19387 -10.19375 -10.19221 -10.19207
 Alpha  occ. eigenvalues --  -10.19136 -10.19135 -10.19128 -10.19111 -10.19090
 Alpha  occ. eigenvalues --  -10.19067 -10.19058 -10.19043 -10.19033 -10.19032
 Alpha  occ. eigenvalues --  -10.18963 -10.18928 -10.18846 -10.18726 -10.18586
 Alpha  occ. eigenvalues --  -10.18492 -10.18301 -10.17986  -0.93488  -0.88824
 Alpha  occ. eigenvalues --   -0.88306  -0.87853  -0.87204  -0.86873  -0.84481
 Alpha  occ. eigenvalues --   -0.83771  -0.83573  -0.82634  -0.81943  -0.81508
 Alpha  occ. eigenvalues --   -0.79708  -0.78443  -0.78327  -0.77444  -0.76588
 Alpha  occ. eigenvalues --   -0.76355  -0.74732  -0.74601  -0.74202  -0.73984
 Alpha  occ. eigenvalues --   -0.73881  -0.73094  -0.72659  -0.72543  -0.71838
 Alpha  occ. eigenvalues --   -0.71247  -0.69698  -0.65755  -0.64410  -0.63654
 Alpha  occ. eigenvalues --   -0.63012  -0.62655  -0.62533  -0.62024  -0.61272
 Alpha  occ. eigenvalues --   -0.61146  -0.61039  -0.61029  -0.59942  -0.59898
 Alpha  occ. eigenvalues --   -0.59432  -0.58850  -0.57851  -0.56512  -0.55413
 Alpha  occ. eigenvalues --   -0.53067  -0.52140  -0.52033  -0.51648  -0.51490
 Alpha  occ. eigenvalues --   -0.51401  -0.51071  -0.50439  -0.50365  -0.50108
 Alpha  occ. eigenvalues --   -0.49831  -0.49113  -0.49031  -0.48418  -0.47974
 Alpha  occ. eigenvalues --   -0.46265  -0.45858  -0.45203  -0.45071  -0.44869
 Alpha  occ. eigenvalues --   -0.44399  -0.44289  -0.44144  -0.44088  -0.43563
 Alpha  occ. eigenvalues --   -0.43373  -0.42960  -0.42541  -0.42485  -0.42301
 Alpha  occ. eigenvalues --   -0.42149  -0.41993  -0.41689  -0.41514  -0.41397
 Alpha  occ. eigenvalues --   -0.41209  -0.41140  -0.40741  -0.40508  -0.40146
 Alpha  occ. eigenvalues --   -0.39875  -0.39152  -0.39059  -0.38897  -0.38591
 Alpha  occ. eigenvalues --   -0.38475  -0.38297  -0.37975  -0.37670  -0.37052
 Alpha  occ. eigenvalues --   -0.36974  -0.35975  -0.35788  -0.35179  -0.35108
 Alpha  occ. eigenvalues --   -0.34433  -0.34115  -0.34029  -0.33863  -0.33619
 Alpha  occ. eigenvalues --   -0.33599  -0.32833  -0.32744  -0.32644  -0.32514
 Alpha  occ. eigenvalues --   -0.32160  -0.32062  -0.31742  -0.31673  -0.29176
 Alpha  occ. eigenvalues --   -0.29014  -0.28710  -0.28187  -0.28015  -0.26682
 Alpha  occ. eigenvalues --   -0.25180  -0.24806  -0.24389  -0.24366  -0.24278
 Alpha  occ. eigenvalues --   -0.24093  -0.22644  -0.22364  -0.22197  -0.20731
 Alpha  occ. eigenvalues --   -0.20608  -0.20032
 Alpha virt. eigenvalues --   -0.06823  -0.04946  -0.04910  -0.04005  -0.03769
 Alpha virt. eigenvalues --   -0.03391  -0.01604  -0.01367  -0.00902  -0.00785
 Alpha virt. eigenvalues --   -0.00170   0.01314   0.02332   0.02440   0.03451

 Mulliken charges:
               1
     1  C   -0.131646
     2  C   -0.136539
     3  C   -0.200109
     4  C    0.094318
     5  C    0.017974
     6  C    0.066567
     7  C   -0.169557
     8  C   -0.195784
     9  C    0.145255
    10  C   -0.229782
    11  C    0.004277
    12  C   -0.071406
    13  C    0.104342
    14  C   -0.196318
    15  C   -0.134679
    16  C   -0.129780
    17  C   -0.203732
    18  C    0.104429
    19  C   -0.048925
    20  C   -0.024952
    21  C   -0.162440
    22  C   -0.191251
    23  C    0.141422
    24  C   -0.253930
    25  C    0.066449
    26  C    0.018237
    27  C   -0.181589
    28  C   -0.136953
    29  C   -0.186054
    30  C    0.128615
    31  C   -0.194818
    32  C   -0.131707
    33  C   -0.136453
    34  C   -0.199659
    35  C    0.094248
    36  C   -0.169795
    37  C   -0.195618
    38  C    0.142589
    39  C   -0.208307
    40  C    0.070221
    41  C    0.060503
    42  C   -0.002887
    43  N   -0.496074
    44  C    0.219959
    45  C   -0.152064
    46  C   -0.132544
    47  C   -0.139011
    48  C   -0.198040
    49  C    0.080522
    50  C   -0.158102
    51  C   -0.194086
    52  C    0.144126
    53  C   -0.253715
    54  C   -0.181503
    55  C   -0.137027
    56  C   -0.186004
    57  C    0.128667
    58  C   -0.194893
    59  H    0.130469
    60  H    0.131174
    61  H    0.146317
    62  H    0.137633
    63  H    0.136132
    64  H    0.140091
    65  H    0.151434
    66  H    0.133334
    67  H    0.133246
    68  H    0.153086
    69  H    0.140272
    70  H    0.136199
    71  H    0.142444
    72  H    0.134710
    73  H    0.131793
    74  H    0.129991
    75  H    0.129956
    76  H    0.130524
    77  H    0.130068
    78  H    0.144537
    79  H    0.137527
    80  H    0.136650
    81  H    0.140242
    82  H    0.155028
    83  H    0.141497
    84  H    0.130402
    85  H    0.129243
    86  H    0.155897
    87  H    0.140866
    88  H    0.136181
    89  H    0.142778
    90  H    0.134350
    91  H    0.131490
    92  H    0.129779
    93  H    0.129674
 Sum of Mulliken charges =  -0.00000

 Dipole moment (field-independent basis, Debye):
    X=             -0.8144    Y=             -2.4671    Z=             -0.4387  Tot=              2.6348
 Quadrupole moment (field-independent basis, Debye-Ang):
   XX=           -278.8064   YY=           -324.7739   ZZ=           -312.7234
   XY=             -5.3513   XZ=              2.1329   YZ=             -2.9090

 1\1\GINC-NODE89\FOpt\RB3LYP\6-31G(d)\C57H35N1\WYKGROUP\05-Nov-2022\0\\
 #p b3lyp/6-31g(d) opt SCF=XQC\\Gaussian input prepared by ASE\\0,1\C,-
 11.972506226,1.4999843983,2.3862724953\C,-10.5799598334,1.3223268816,2
 .560416679\C,-9.8105976017,0.7859942912,1.5515941151\C,-10.3871464784,
 0.398755511,0.3092878884\C,-9.6248585737,-0.1675059666,-0.7706390558\C
 ,-8.1426836725,-0.3115619336,-0.7122372126\C,-7.5468366438,-1.58124109
 61,-0.9692056432\C,-6.1814707874,-1.7425916309,-0.9709446433\C,-5.3162
 038881,-0.6445827349,-0.7201354931\C,-3.9027742166,-0.7754229012,-0.71

 Normal termination of Gaussian 16 at Sat Nov  5 00:19:52 2022.
