 Gaussian 16, Revision B.01,
 Gaussian 16:  ES64L-G16RevB.01 20-Dec-2017

 -------------------------------------------------------------------
 #p b3lyp/6-31g(d) 6D 10F nosymm GFInput td=(50-50,nstate=2) SCF=XQC
 -------------------------------------------------------------------

 ------------------------------
 Gaussian input prepared by ASE
 ------------------------------
 Symbolic Z-matrix:
 Charge =  0 Multiplicity = 1

                          Input orientation:
 ---------------------------------------------------------------------
 Center     Atomic      Atomic             Coordinates (Angstroms)
 Number     Number       Type             X           Y           Z
 ---------------------------------------------------------------------
      1          6           0      -11.972506    1.499984    2.386272
      2          6           0      -10.579960    1.322327    2.560417
      3          6           0       -9.810598    0.785994    1.551594
      4          6           0      -10.387146    0.398756    0.309288
      5          6           0       -9.624859   -0.167506   -0.770639
      6          6           0       -8.142684   -0.311562   -0.712237
      7          6           0       -7.546837   -1.581241   -0.969206
      8          6           0       -6.181471   -1.742592   -0.970945
      9          6           0       -5.316204   -0.644583   -0.720135
     10          6           0       -3.902774   -0.775423   -0.713486
     11          6           0       -3.076772    0.307689   -0.475727
     12          6           0       -1.587240    0.158790   -0.486652
     13          6           0       -0.840177    0.682631   -1.571309
     14          6           0       -1.471430    1.308878   -2.689109
     15          6           0       -0.734479    1.868179   -3.702074
     16          6           0        0.680989    1.835071   -3.646926
     17          6           0        1.322554    1.221994   -2.599118
     18          6           0        0.595257    0.599686   -1.536564
     19          6           0        1.260141   -0.082815   -0.471973
     20          6           0        2.758374   -0.063469   -0.498597
     21          6           0        3.480569   -0.903626   -1.396307
     22          6           0        4.854783   -0.870778   -1.447565
     23          6           0        5.597298    0.009543   -0.613584
     24          6           0        7.014219    0.068482   -0.644614
     25          6           0        7.724196    0.938875    0.165984
     26          6           0        9.209016    1.045980    0.096676
     27          6           0        9.772067    2.289745   -0.140862
     28          6           0       11.168525    2.464426   -0.260005
     29          6           0       12.011119    1.385004   -0.139935
     30          6           0       11.491881    0.091136    0.128189
     31          6           0       12.354209   -1.028179    0.281873
     32          6           0       11.854604   -2.275306    0.576456
     33          6           0       10.461149   -2.453076    0.742991
     34          6           0        9.596484   -1.391580    0.591728
     35          6           0       10.073077   -0.091581    0.262278
     36          6           0        6.995824    1.793603    1.044716
     37          6           0        5.622447    1.759446    1.099756
     38          6           0        4.880205    0.870429    0.277487
     39          6           0        3.462344    0.809711    0.308117
     40          6           0        0.511246   -0.680044    0.560543
     41          6           0       -0.919748   -0.479878    0.568297
     42          6           0       -1.661580   -0.886869    1.743872
     43          7           0       -1.165506   -1.479399    2.781407
     44          6           0        0.175833   -1.830800    2.742377
     45          6           0        0.641151   -2.582023    3.840243
     46          6           0        1.940306   -3.052695    3.881636
     47          6           0        2.794367   -2.783891    2.802702
     48          6           0        2.359185   -2.026517    1.724990
     49          6           0        1.049055   -1.496865    1.664955
     50          6           0       -3.667678    1.582100   -0.233160
     51          6           0       -5.033722    1.739623   -0.226257
     52          6           0       -5.899189    0.637861   -0.466636
     53          6           0       -7.311524    0.769527   -0.469369
     54          6           0      -10.286711   -0.592531   -1.911487
     55          6           0      -11.684561   -0.452032   -2.056993
     56          6           0      -12.428512    0.118319   -1.051599
     57          6           0      -11.807112    0.549251    0.149976
     58          6           0      -12.568847    1.114956    1.208197
     59          1           0      -12.568272    1.928503    3.187675
     60          1           0      -10.114697    1.604480    3.501112
     61          1           0       -8.747568    0.640211    1.707211
     62          1           0       -8.195251   -2.433895   -1.149790
     63          1           0       -5.746732   -2.721361   -1.159432
     64          1           0       -3.467280   -1.753461   -0.904000
     65          1           0       -2.554468    1.337595   -2.726331
     66          1           0       -1.234047    2.339627   -4.543923
     67          1           0        1.263285    2.294287   -4.441275
     68          1           0        2.405108    1.203447   -2.576167
     69          1           0        2.926739   -1.582730   -2.038786
     70          1           0        5.392019   -1.522153   -2.133051
     71          1           0        7.545534   -0.575415   -1.340903
     72          1           0        9.117688    3.147693   -0.269626
     73          1           0       11.568181    3.454762   -0.460519
     74          1           0       13.086933    1.506525   -0.241535
     75          1           0       13.425123   -0.875796    0.168772
     76          1           0       12.526465   -3.121288    0.693582
     77          1           0       10.070629   -3.434210    0.999759
     78          1           0        8.532781   -1.540462    0.739649
     79          1           0        7.548897    2.469985    1.690267
     80          1           0        5.086165    2.412924    1.783709
     81          1           0        2.925327    1.463281    0.991176
     82          1           0       -2.722208   -0.650229    1.782040
     83          1           0       -0.070485   -2.787554    4.633636
     84          1           0        2.288900   -3.637451    4.728534
     85          1           0        3.808929   -3.173298    2.800121
     86          1           0        3.047119   -1.867361    0.909737
     87          1           0       -3.019453    2.433418   -0.045329
     88          1           0       -5.469859    2.716684   -0.031957
     89          1           0       -7.741651    1.752399   -0.294421
     90          1           0       -9.708691   -1.016865   -2.728031
     91          1           0      -12.162790   -0.785604   -2.973910
     92          1           0      -13.503649    0.241652   -1.158185
     93          1           0      -13.641367    1.230523    1.069506
 ---------------------------------------------------------------------

 SCF Done:  E(RB3LYP) =  -2247.99140661     A.U. after   15 cycles

 Excitation energies and oscillator strengths:

 Excited state symmetry could not be determined.
 Excited State   1:      Triplet-?Sym    2.0031 eV  618.95 nm  f=0.0000  <S**2>=2.000
     190 ->193        -0.23343
     192 ->193         0.62099
 This state for optimization and/or second-order correction.
 Total Energy, E(TD-HF/TD-DFT) =  -2247.91779225
 Copying the excited state density for this state as the 1-particle RhoCI density.

 Excited state symmetry could not be determined.
 Excited State   2:      Triplet-?Sym    2.5326 eV  489.56 nm  f=0.0000  <S**2>=2.000
     187 ->197        -0.19758
     189 ->197         0.21692
     190 ->193         0.10308
     190 ->194        -0.26475
     190 ->195        -0.24257
     191 ->193         0.11715
     191 ->194        -0.23643
     191 ->195        -0.29211
     192 ->194        -0.13238
     192 ->195        -0.11957

 Excited state symmetry could not be determined.
 Excited State   3:      Singlet-?Sym    3.1717 eV  390.90 nm  f=0.3895  <S**2>=0.000
     192 ->193         0.69242

 Excited state symmetry could not be determined.
 Excited State   4:      Singlet-?Sym    3.3436 eV  370.81 nm  f=0.0053  <S**2>=0.000
     188 ->193        -0.12655
     189 ->193         0.16224
     191 ->193         0.66370

 Alpha  occ. eigenvalues --  -14.31976 -10.21766 -10.21356 -10.21270 -10.21000
 Alpha  occ. eigenvalues --  -10.20831 -10.20696 -10.20553 -10.20462 -10.20453
 Alpha  occ. eigenvalues --  -10.20432 -10.20398 -10.20373 -10.20319 -10.20264
 Alpha  occ. eigenvalues --  -10.20257 -10.20239 -10.20212 -10.20174 -10.20144
 Alpha  occ. eigenvalues --  -10.20048 -10.20042 -10.19876 -10.19784 -10.19784
 Alpha  occ. eigenvalues --  -10.19674 -10.19619 -10.19616 -10.19610 -10.19533
 Alpha  occ. eigenvalues --  -10.19505 -10.19471 -10.19452 -10.19451 -10.19439
 Alpha  occ. eigenvalues --  -10.19403 -10.19387 -10.19375 -10.19221 -10.19207
 Alpha  occ. eigenvalues --  -10.19136 -10.19135 -10.19128 -10.19111 -10.19090
 Alpha  occ. eigenvalues --  -10.19067 -10.19058 -10.19043 -10.19033 -10.19032
 Alpha  occ. eigenvalues --  -10.18963 -10.18928 -10.18846 -10.18726 -10.18586
 Alpha  occ. eigenvalues --  -10.18492 -10.18301 -10.17986  -0.93488  -0.88824
 Alpha  occ. eigenvalues --   -0.88306  -0.87853  -0.87204  -0.86873  -0.84481
 Alpha  occ. eigenvalues --   -0.83771  -0.83573  -0.82634  -0.81943  -0.81508
 Alpha  occ. eigenvalues --   -0.79708  -0.78443  -0.78327  -0.77444  -0.76588
 Alpha  occ. eigenvalues --   -0.76355  -0.74732  -0.74601  -0.74202  -0.73984
 Alpha  occ. eigenvalues --   -0.73881  -0.73094  -0.72659  -0.72544  -0.71838
 Alpha  occ. eigenvalues --   -0.71247  -0.69698  -0.65755  -0.64410  -0.63654
 Alpha  occ. eigenvalues --   -0.63012  -0.62655  -0.62533  -0.62024  -0.61272
 Alpha  occ. eigenvalues --   -0.61146  -0.61039  -0.61029  -0.59942  -0.59898
 Alpha  occ. eigenvalues --   -0.59432  -0.58850  -0.57851  -0.56512  -0.55413
 Alpha  occ. eigenvalues --   -0.53067  -0.52140  -0.52033  -0.51648  -0.51490
 Alpha  occ. eigenvalues --   -0.51401  -0.51071  -0.50439  -0.50365  -0.50108
 Alpha  occ. eigenvalues --   -0.49831  -0.49113  -0.49031  -0.48418  -0.47974
 Alpha  occ. eigenvalues --   -0.46265  -0.45858  -0.45203  -0.45071  -0.44869
 Alpha  occ. eigenvalues --   -0.44399  -0.44289  -0.44144  -0.44087  -0.43563
 Alpha  occ. eigenvalues --   -0.43373  -0.42960  -0.42541  -0.42485  -0.42301
 Alpha  occ. eigenvalues --   -0.42149  -0.41993  -0.41689  -0.41514  -0.41397
 Alpha  occ. eigenvalues --   -0.41209  -0.41140  -0.40741  -0.40508  -0.40146
 Alpha  occ. eigenvalues --   -0.39875  -0.39152  -0.39059  -0.38897  -0.38591
 Alpha  occ. eigenvalues --   -0.38475  -0.38297  -0.37975  -0.37670  -0.37052
 Alpha  occ. eigenvalues --   -0.36974  -0.35975  -0.35788  -0.35179  -0.35108
 Alpha  occ. eigenvalues --   -0.34433  -0.34115  -0.34029  -0.33863  -0.33619
 Alpha  occ. eigenvalues --   -0.33599  -0.32833  -0.32744  -0.32644  -0.32514
 Alpha  occ. eigenvalues --   -0.32160  -0.32062  -0.31742  -0.31673  -0.29176
 Alpha  occ. eigenvalues --   -0.29014  -0.28710  -0.28187  -0.28015  -0.26682
 Alpha  occ. eigenvalues --   -0.25180  -0.24806  -0.24389  -0.24366  -0.24278
 Alpha  occ. eigenvalues --   -0.24093  -0.22644  -0.22364  -0.22197  -0.20731
 Alpha  occ. eigenvalues --   -0.20608  -0.20032
 Alpha virt. eigenvalues --   -0.06823  -0.04946  -0.04910  -0.04005  -0.03769
 Alpha virt. eigenvalues --   -0.03391  -0.01604  -0.01367  -0.00902  -0.00785
 Alpha virt. eigenvalues --   -0.00170   0.01314   0.02332   0.02440   0.03451

 Mulliken charges:
               1
     1  C   -0.131650
     2  C   -0.136534
     3  C   -0.200108
     4  C    0.094308
     5  C    0.017995
     6  C    0.066553
     7  C   -0.169557
     8  C   -0.195783
     9  C    0.145266
    10  C   -0.229791
    11  C    0.004278
    12  C   -0.071417
    13  C    0.104353
    14  C   -0.196317
    15  C   -0.134680
    16  C   -0.129780
    17  C   -0.203737
    18  C    0.104437
    19  C   -0.048939
    20  C   -0.024987
    21  C   -0.162421
    22  C   -0.191245
    23  C    0.141423
    24  C   -0.253918
    25  C    0.066418
    26  C    0.018239
    27  C   -0.181588
    28  C   -0.136954
    29  C   -0.186050
    30  C    0.128602
    31  C   -0.194812
    32  C   -0.131704
    33  C   -0.136456
    34  C   -0.199660
    35  C    0.094248
    36  C   -0.169775
    37  C   -0.195605
    38  C    0.142565
    39  C   -0.208275
    40  C    0.070238
    41  C    0.060493
    42  C   -0.002881
    43  N   -0.496074
    44  C    0.219949
    45  C   -0.152057
    46  C   -0.132547
    47  C   -0.139012
    48  C   -0.198032
    49  C    0.080514
    50  C   -0.158096
    51  C   -0.194086
    52  C    0.144123
    53  C   -0.253714
    54  C   -0.181512
    55  C   -0.137025
    56  C   -0.186005
    57  C    0.128669
    58  C   -0.194891
    59  H    0.130469
    60  H    0.131173
    61  H    0.146317
    62  H    0.137633
    63  H    0.136132
    64  H    0.140092
    65  H    0.151435
    66  H    0.133333
    67  H    0.133246
    68  H    0.153086
    69  H    0.140273
    70  H    0.136199
    71  H    0.142443
    72  H    0.134709
    73  H    0.131793
    74  H    0.129991
    75  H    0.129957
    76  H    0.130523
    77  H    0.130068
    78  H    0.144538
    79  H    0.137526
    80  H    0.136650
    81  H    0.140241
    82  H    0.155028
    83  H    0.141497
    84  H    0.130401
    85  H    0.129244
    86  H    0.155893
    87  H    0.140864
    88  H    0.136182
    89  H    0.142779
    90  H    0.134351
    91  H    0.131489
    92  H    0.129779
    93  H    0.129674
 Sum of Mulliken charges =  -0.00000

 Dipole moment (field-independent basis, Debye):
    X=              0.8648    Y=              1.0290    Z=             -2.2661  Tot=              2.6348
 Quadrupole moment (field-independent basis, Debye-Ang):
   XX=           -279.1140   YY=           -313.7743   ZZ=           -323.6997
   XY=             -5.4138   XZ=              4.0553   YZ=              4.5512

 Normal termination of Gaussian 16 at Sat Nov  5 10:55:48 2022.
