 Gaussian 16, Revision B.01,
 Gaussian 16:  ES64L-G16RevB.01 20-Dec-2017

 -------------------------------------------------------------------
 #p b3lyp/6-31g(d) 6D 10F nosymm GFInput td=(50-50,nstate=2) SCF=XQC
 -------------------------------------------------------------------

 ------------------------------
 Gaussian input prepared by ASE
 ------------------------------
 Symbolic Z-matrix:
 Charge =  0 Multiplicity = 1

                          Input orientation:
 ---------------------------------------------------------------------
 Center     Atomic      Atomic             Coordinates (Angstroms)
 Number     Number       Type             X           Y           Z
 ---------------------------------------------------------------------
      1          6           0       -5.576643    5.798867    0.051267
      2          6           0       -5.074119    5.853110   -1.394185
      3          6           0       -5.489687    4.634705   -2.248478
      4          6           0       -4.883690    3.320846   -1.796394
      5          6           0       -3.526929    3.039132   -2.068379
      6          6           0       -2.911206    1.859786   -1.660019
      7          6           0       -3.680820    0.933673   -0.950552
      8          6           0       -5.048851    1.176881   -0.677252
      9          6           0       -5.638147    2.373534   -1.102453
     10          6           0       -5.550716    0.012076    0.022356
     11          6           0       -6.796043   -0.324997    0.561302
     12          6           0       -6.971681   -1.545155    1.219855
     13          6           0       -8.327685   -1.926009    1.781421
     14          6           0       -9.333604   -2.433244    0.723970
     15          6           0       -8.927830   -3.751168    0.058127
     16          6           0       -5.867619   -2.414399    1.338894
     17          6           0       -4.613369   -2.108418    0.814233
     18          6           0       -4.465712   -0.892579    0.144137
     19          7           0       -3.330011   -0.326709   -0.449431
     20          6           0       -2.046429   -0.925417   -0.528363
     21          6           0       -0.914393   -0.241755   -0.065784
     22          6           0        0.344683   -0.828504   -0.150940
     23          6           0        0.516026   -2.117185   -0.683300
     24          6           0        1.859205   -2.750587   -0.830249
     25          6           0        2.180444   -3.321591   -2.075150
     26          6           0        3.412008   -3.925490   -2.310551
     27          6           0        4.361477   -3.970277   -1.289977
     28          6           0        4.062978   -3.410072   -0.051353
     29          6           0        2.826188   -2.795830    0.205084
     30          6           0        2.556503   -2.302145    1.592302
     31          6           0        1.486625   -2.870561    2.302754
     32          6           0        1.220520   -2.530410    3.625887
     33          6           0        2.034355   -1.601154    4.273614
     34          6           0        3.100824   -1.028458    3.587323
     35          6           0        3.385536   -1.358504    2.249407
     36          6           0        4.542136   -0.677169    1.599704
     37          6           0        5.769092   -0.581040    2.279518
     38          6           0        6.854388    0.090224    1.725758
     39          6           0        6.740224    0.695104    0.465403
     40          6           0        7.856280    1.408503   -0.142182
     41          7           0        7.883282    2.009755   -1.295465
     42          6           0        9.171989    2.525322   -1.393575
     43          6           0        9.797441    3.267399   -2.399897
     44          6           0       11.124947    3.639286   -2.190947
     45          6           0       11.815059    3.285673   -1.016405
     46          6           0       11.202806    2.544230   -0.002115
     47          6           0        9.883640    2.186607   -0.232918
     48          8           0        9.037518    1.467728    0.573169
     49          6           0        5.519113    0.608201   -0.224018
     50          6           0        4.443756   -0.068637    0.334773
     51          6           0       -0.630785   -2.792221   -1.134710
     52          6           0       -1.893361   -2.207892   -1.068127
     53          1           0       -5.257784    6.684179    0.613249
     54          1           0       -6.672882    5.759463    0.086855
     55          1           0       -5.195758    4.914076    0.572688
     56          1           0       -5.454416    6.762112   -1.879845
     57          1           0       -3.978788    5.936530   -1.399209
     58          1           0       -6.584785    4.552677   -2.241386
     59          1           0       -5.201647    4.827704   -3.290870
     60          1           0       -2.941762    3.767218   -2.626110
     61          1           0       -1.870600    1.665407   -1.898033
     62          1           0       -6.689753    2.564003   -0.899517
     63          1           0       -7.630136    0.368891    0.476652
     64          1           0       -8.767202   -1.056208    2.287674
     65          1           0       -8.201438   -2.699231    2.551194
     66          1           0       -9.462975   -1.658764   -0.044176
     67          1           0      -10.312327   -2.554895    1.207933
     68          1           0       -8.831471   -4.555048    0.799175
     69          1           0       -9.675128   -4.066896   -0.678850
     70          1           0       -7.965965   -3.657571   -0.457582
     71          1           0       -5.997631   -3.356426    1.866447
     72          1           0       -3.779804   -2.792469    0.934664
     73          1           0       -1.027361    0.746995    0.367538
     74          1           0        1.205003   -0.276570    0.212648
     75          1           0        1.450793   -3.262409   -2.877897
     76          1           0        3.629956   -4.350362   -3.286599
     77          1           0        5.327184   -4.440335   -1.454061
     78          1           0        4.794965   -3.457336    0.749311
     79          1           0        0.864011   -3.605707    1.801856
     80          1           0        0.385892   -2.991272    4.146979
     81          1           0        1.837329   -1.317697    5.303888
     82          1           0        3.719151   -0.284984    4.082367
     83          1           0        5.876490   -1.055995    3.250574
     84          1           0        7.793910    0.144030    2.265506
     85          1           0        9.262296    3.538388   -3.304269
     86          1           0       11.642479    4.216584   -2.951832
     87          1           0       12.848735    3.595912   -0.893761
     88          1           0       11.724643    2.266054    0.907326
     89          1           0        5.430832    1.081490   -1.196285
     90          1           0        3.511012   -0.121426   -0.216429
     91          1           0       -0.531483   -3.793664   -1.544154
     92          1           0       -2.763303   -2.739520   -1.440749
 ---------------------------------------------------------------------

 SCF Done:  E(RB3LYP) =  -2076.11159996     A.U. after   16 cycles

 Excitation energies and oscillator strengths:

 Excited state symmetry could not be determined.
 Excited State   1:      Triplet-?Sym    2.7168 eV  456.37 nm  f=0.0000  <S**2>=2.000
     175 ->179        -0.10941
     176 ->179         0.63996
 This state for optimization and/or second-order correction.
 Total Energy, E(TD-HF/TD-DFT) =  -2076.01176060
 Copying the excited state density for this state as the 1-particle RhoCI density.

 Excited state symmetry could not be determined.
 Excited State   2:      Triplet-?Sym    3.0791 eV  402.66 nm  f=0.0000  <S**2>=2.000
     173 ->180         0.10700
     173 ->182         0.10973
     175 ->179        -0.13958
     175 ->180         0.26471
     176 ->180         0.10211
     178 ->179        -0.35240
     178 ->180         0.40229
     178 ->182         0.10596

 Excited state symmetry could not be determined.
 Excited State   3:      Singlet-?Sym    3.2418 eV  382.46 nm  f=0.0367  <S**2>=0.000
     178 ->179         0.70099

 Excited state symmetry could not be determined.
 Excited State   4:      Singlet-?Sym    3.7006 eV  335.04 nm  f=0.4607  <S**2>=0.000
     176 ->179        -0.17757
     178 ->180         0.66464

 Alpha  occ. eigenvalues --  -19.22184 -14.37896 -14.33070 -10.28589 -10.24780
 Alpha  occ. eigenvalues --  -10.23734 -10.21940 -10.21925 -10.21842 -10.21134
 Alpha  occ. eigenvalues --  -10.20956 -10.20684 -10.20617 -10.20603 -10.20584
 Alpha  occ. eigenvalues --  -10.20502 -10.20119 -10.20080 -10.19876 -10.19823
 Alpha  occ. eigenvalues --  -10.19820 -10.19761 -10.19756 -10.19738 -10.19711
 Alpha  occ. eigenvalues --  -10.19623 -10.19516 -10.19457 -10.19409 -10.19365
 Alpha  occ. eigenvalues --  -10.19344 -10.19321 -10.19289 -10.19277 -10.19252
 Alpha  occ. eigenvalues --  -10.19190 -10.18492 -10.18473 -10.18393 -10.18325
 Alpha  occ. eigenvalues --  -10.18311 -10.18293 -10.18182 -10.18169 -10.18164
 Alpha  occ. eigenvalues --  -10.18157 -10.17969 -10.17935 -10.17802 -10.17763
 Alpha  occ. eigenvalues --  -10.16706 -10.16614  -1.12607  -0.98566  -0.92602
 Alpha  occ. eigenvalues --   -0.88272  -0.87318  -0.86389  -0.85434  -0.84745
 Alpha  occ. eigenvalues --   -0.84405  -0.83937  -0.79954  -0.79460  -0.78645
 Alpha  occ. eigenvalues --   -0.77975  -0.77283  -0.76330  -0.75725  -0.75510
 Alpha  occ. eigenvalues --   -0.75127  -0.75004  -0.74002  -0.73715  -0.72824
 Alpha  occ. eigenvalues --   -0.71929  -0.71266  -0.71132  -0.67410  -0.67172
 Alpha  occ. eigenvalues --   -0.65733  -0.63925  -0.63342  -0.62558  -0.62413
 Alpha  occ. eigenvalues --   -0.61512  -0.61303  -0.60419  -0.59971  -0.59696
 Alpha  occ. eigenvalues --   -0.59285  -0.58430  -0.57876  -0.57457  -0.57143
 Alpha  occ. eigenvalues --   -0.56560  -0.55233  -0.53816  -0.53196  -0.52411
 Alpha  occ. eigenvalues --   -0.51382  -0.51120  -0.50802  -0.49792  -0.48620
 Alpha  occ. eigenvalues --   -0.47786  -0.47644  -0.47582  -0.47075  -0.46832
 Alpha  occ. eigenvalues --   -0.46618  -0.45434  -0.45298  -0.45133  -0.44942
 Alpha  occ. eigenvalues --   -0.44645  -0.44521  -0.44268  -0.43802  -0.43738
 Alpha  occ. eigenvalues --   -0.43574  -0.43095  -0.43017  -0.42812  -0.42519
 Alpha  occ. eigenvalues --   -0.42245  -0.42146  -0.41994  -0.41634  -0.41538
 Alpha  occ. eigenvalues --   -0.40802  -0.40764  -0.40713  -0.39109  -0.38455
 Alpha  occ. eigenvalues --   -0.38309  -0.38079  -0.37970  -0.37683  -0.37364
 Alpha  occ. eigenvalues --   -0.37059  -0.36656  -0.36300  -0.36114  -0.35953
 Alpha  occ. eigenvalues --   -0.35788  -0.35443  -0.35402  -0.35245  -0.34919
 Alpha  occ. eigenvalues --   -0.34492  -0.34286  -0.34114  -0.33982  -0.33523
 Alpha  occ. eigenvalues --   -0.33362  -0.32884  -0.32741  -0.32578  -0.32185
 Alpha  occ. eigenvalues --   -0.31804  -0.31661  -0.31015  -0.28828  -0.28296
 Alpha  occ. eigenvalues --   -0.27294  -0.27097  -0.26998  -0.26030  -0.25730
 Alpha  occ. eigenvalues --   -0.24942  -0.24450  -0.24071  -0.24032  -0.22833
 Alpha  occ. eigenvalues --   -0.21413  -0.20674  -0.18919
 Alpha virt. eigenvalues --   -0.05916  -0.03463  -0.02355  -0.02012  -0.01310
 Alpha virt. eigenvalues --   -0.00802  -0.00632   0.00427   0.00834   0.01030
 Alpha virt. eigenvalues --    0.01578   0.02023   0.03741   0.04493   0.06693

 Mulliken charges:
               1
     1  C   -0.443156
     2  C   -0.242673
     3  C   -0.345886
     4  C    0.173877
     5  C   -0.198778
     6  C   -0.173036
     7  C    0.308881
     8  C    0.068140
     9  C   -0.268088
    10  C    0.067593
    11  C   -0.263447
    12  C    0.170807
    13  C   -0.344557
    14  C   -0.241270
    15  C   -0.443488
    16  C   -0.202019
    17  C   -0.174217
    18  C    0.310991
    19  N   -0.741143
    20  C    0.278074
    21  C   -0.159647
    22  C   -0.175125
    23  C    0.070713
    24  C    0.050474
    25  C   -0.183469
    26  C   -0.127415
    27  C   -0.129012
    28  C   -0.157425
    29  C    0.013620
    30  C    0.014999
    31  C   -0.156921
    32  C   -0.128803
    33  C   -0.128076
    34  C   -0.183126
    35  C    0.050923
    36  C    0.070576
    37  C   -0.180733
    38  C   -0.174430
    39  C    0.076467
    40  C    0.486453
    41  N   -0.542437
    42  C    0.251247
    43  C   -0.173776
    44  C   -0.143451
    45  C   -0.145152
    46  C   -0.186529
    47  C    0.336750
    48  O   -0.530458
    49  C   -0.167507
    50  C   -0.167859
    51  C   -0.187361
    52  C   -0.158736
    53  H    0.140468
    54  H    0.136243
    55  H    0.156783
    56  H    0.130167
    57  H    0.135031
    58  H    0.135653
    59  H    0.139256
    60  H    0.121077
    61  H    0.139236
    62  H    0.123213
    63  H    0.122876
    64  H    0.139564
    65  H    0.134417
    66  H    0.135770
    67  H    0.129772
    68  H    0.135865
    69  H    0.140795
    70  H    0.155720
    71  H    0.119780
    72  H    0.136686
    73  H    0.153892
    74  H    0.150155
    75  H    0.137178
    76  H    0.133421
    77  H    0.134546
    78  H    0.140868
    79  H    0.140753
    80  H    0.134705
    81  H    0.133815
    82  H    0.137944
    83  H    0.138966
    84  H    0.154091
    85  H    0.145915
    86  H    0.132988
    87  H    0.134711
    88  H    0.146872
    89  H    0.168241
    90  H    0.149591
    91  H    0.139720
    92  H    0.151874
 Sum of Mulliken charges =  -0.00000

 Dipole moment (field-independent basis, Debye):
    X=              1.3848    Y=             -1.1581    Z=              0.9534  Tot=              2.0415
 Quadrupole moment (field-independent basis, Debye-Ang):
   XX=           -275.6724   YY=           -289.3269   ZZ=           -288.6446
   XY=              1.6848   XZ=              3.2163   YZ=             -2.5863

 Normal termination of Gaussian 16 at Fri Nov  4 21:45:40 2022.
