 Gaussian 16, Revision B.01,
 Gaussian 16:  ES64L-G16RevB.01 20-Dec-2017

 -----------------------------
 #p b3lyp/6-31g(d) opt SCF=XQC
 -----------------------------

 ------------------------------
 Gaussian input prepared by ASE
 ------------------------------
 Symbolic Z-matrix:
 Charge =  0 Multiplicity = 1

 SCF Done:  E(RB3LYP) =  -2076.09662016     A.U. after   16 cycles
 SCF Done:  E(RB3LYP) =  -2076.11009753     A.U. after   14 cycles
 SCF Done:  E(RB3LYP) =  -2076.11119655     A.U. after   13 cycles
 SCF Done:  E(RB3LYP) =  -2076.11147266     A.U. after   12 cycles
 SCF Done:  E(RB3LYP) =  -2076.11157840     A.U. after   11 cycles
 SCF Done:  E(RB3LYP) =  -2076.11159207     A.U. after   10 cycles
 SCF Done:  E(RB3LYP) =  -2076.11159456     A.U. after    9 cycles
 SCF Done:  E(RB3LYP) =  -2076.11159528     A.U. after    9 cycles
 SCF Done:  E(RB3LYP) =  -2076.11159551     A.U. after    7 cycles
 SCF Done:  E(RB3LYP) =  -2076.11159560     A.U. after    7 cycles
 SCF Done:  E(RB3LYP) =  -2076.11159562     A.U. after    6 cycles
 Optimization completed.
    -- Stationary point found.

                         Standard orientation:
 ---------------------------------------------------------------------
 Center     Atomic      Atomic             Coordinates (Angstroms)
 Number     Number       Type             X           Y           Z
 ---------------------------------------------------------------------
      1          6           0       -5.767205    6.017886    1.986262
      2          6           0       -5.242337    6.488050    0.626754
      3          6           0       -5.741462    5.640911   -0.564990
      4          6           0       -5.247670    4.207735   -0.560905
      5          6           0       -3.913916    3.920084   -0.924907
      6          6           0       -3.399178    2.627123   -0.919694
      7          6           0       -4.249330    1.587928   -0.531557
      8          6           0       -5.597385    1.839672   -0.178395
      9          6           0       -6.084181    3.152232   -0.194406
     10          6           0       -6.199429    0.556784    0.121323
     11          6           0       -7.474766    0.166120    0.540630
     12          6           0       -7.755466   -1.181957    0.779838
     13          6           0       -9.144898   -1.612380    1.208053
     14          6           0      -10.173355   -1.676114    0.056716
     15          6           0       -9.864246   -2.742361   -0.998030
     16          6           0       -6.725464   -2.128843    0.603173
     17          6           0       -5.443890   -1.772804    0.187430
     18          6           0       -5.191265   -0.422921   -0.063751
     19          7           0       -4.006330    0.209992   -0.460863
     20          6           0       -2.773260   -0.432670   -0.741557
     21          6           0       -1.597020   -0.023411   -0.099805
     22          6           0       -0.387346   -0.650851   -0.382302
     23          6           0       -0.311407   -1.713213   -1.298318
     24          6           0        0.979244   -2.371803   -1.655251
     25          6           0        1.271148   -2.541724   -3.020878
     26          6           0        2.454086   -3.135492   -3.450942
     27          6           0        3.383044   -3.577200   -2.509135
     28          6           0        3.113035   -3.417297   -1.153168
     29          6           0        1.925421   -2.820019   -0.699810
     30          6           0        1.676841   -2.772430    0.775579
     31          6           0        0.555722   -3.450080    1.281902
     32          6           0        0.299419   -3.527517    2.647738
     33          6           0        1.175426   -2.919676    3.546926
     34          6           0        2.293155   -2.245381    3.064913
     35          6           0        2.569007   -2.155183    1.688039
     36          6           0        3.784687   -1.397003    1.274102
     37          6           0        5.006035   -1.619430    1.934134
     38          6           0        6.148537   -0.895557    1.608848
     39          6           0        6.099818    0.085166    0.607241
     40          6           0        7.277051    0.863496    0.243916
     41          7           0        7.367296    1.795589   -0.659053
     42          6           0        8.694014    2.211540   -0.604230
     43          6           0        9.389930    3.182513   -1.330497
     44          6           0       10.739759    3.362141   -1.030618
     45          6           0       11.383636    2.600338   -0.037682
     46          6           0       10.700819    1.626386    0.696180
     47          6           0        9.360730    1.466511    0.380006
     48          8           0        8.449422    0.598548    0.926490
     49          6           0        4.885157    0.318896   -0.059044
     50          6           0        3.752052   -0.412630    0.269121
     51          6           0       -1.501843   -2.116693   -1.926559
     52          6           0       -2.714946   -1.485367   -1.662397
     53          1           0       -5.386888    6.650740    2.796279
     54          1           0       -6.863503    6.056441    2.020967
     55          1           0       -5.464748    4.986031    2.195079
     56          1           0       -5.542778    7.531384    0.459525
     57          1           0       -4.143874    6.481458    0.635016
     58          1           0       -6.839611    5.648143   -0.570852
     59          1           0       -5.424876    6.131288   -1.495635
     60          1           0       -3.265369    4.738641   -1.229774
     61          1           0       -2.374100    2.436330   -1.219874
     62          1           0       -7.120056    3.351339    0.071407
     63          1           0       -8.250035    0.914939    0.690912
     64          1           0       -9.520974   -0.916247    1.969621
     65          1           0       -9.090796   -2.597413    1.690904
     66          1           0      -10.230495   -0.690161   -0.424154
     67          1           0      -11.165137   -1.866941    0.489006
     68          1           0       -9.841971   -3.744872   -0.551783
     69          1           0      -10.624109   -2.747405   -1.787876
     70          1           0       -8.891059   -2.566628   -1.469120
     71          1           0       -6.936867   -3.176143    0.805910
     72          1           0       -4.668856   -2.523644    0.074203
     73          1           0       -1.637187    0.782332    0.626363
     74          1           0        0.508969   -0.313060    0.127105
     75          1           0        0.559473   -2.173021   -3.754275
     76          1           0        2.650953   -3.244462   -4.513982
     77          1           0        4.310619   -4.046012   -2.825818
     78          1           0        3.828012   -3.774264   -0.417990
     79          1           0       -0.116301   -3.936294    0.581212
     80          1           0       -0.576112   -4.062113    3.005769
     81          1           0        0.987471   -2.963211    4.616229
     82          1           0        2.961646   -1.749098    3.762748
     83          1           0        5.062241   -2.385011    2.702764
     84          1           0        7.081935   -1.090681    2.126166
     85          1           0        8.890295    3.768171   -2.095399
     86          1           0       11.311708    4.108072   -1.575154
     87          1           0       12.436877    2.772451    0.164403
     88          1           0       11.186551    1.033385    1.463770
     89          1           0        4.847891    1.081769   -0.829586
     90          1           0        2.825646   -0.213447   -0.258818
     91          1           0       -1.476630   -2.940924   -2.633948
     92          1           0       -3.619119   -1.800337   -2.173805
 ---------------------------------------------------------------------

 The electronic state is 1-A.
 Alpha  occ. eigenvalues --  -19.22184 -14.37896 -14.33070 -10.28589 -10.24780
 Alpha  occ. eigenvalues --  -10.23734 -10.21940 -10.21925 -10.21842 -10.21134
 Alpha  occ. eigenvalues --  -10.20956 -10.20684 -10.20617 -10.20603 -10.20584
 Alpha  occ. eigenvalues --  -10.20502 -10.20119 -10.20080 -10.19876 -10.19823
 Alpha  occ. eigenvalues --  -10.19820 -10.19761 -10.19756 -10.19738 -10.19711
 Alpha  occ. eigenvalues --  -10.19623 -10.19516 -10.19457 -10.19409 -10.19365
 Alpha  occ. eigenvalues --  -10.19344 -10.19321 -10.19289 -10.19277 -10.19252
 Alpha  occ. eigenvalues --  -10.19190 -10.18492 -10.18473 -10.18393 -10.18325
 Alpha  occ. eigenvalues --  -10.18311 -10.18293 -10.18182 -10.18169 -10.18164
 Alpha  occ. eigenvalues --  -10.18157 -10.17968 -10.17935 -10.17802 -10.17763
 Alpha  occ. eigenvalues --  -10.16706 -10.16614  -1.12607  -0.98566  -0.92602
 Alpha  occ. eigenvalues --   -0.88272  -0.87318  -0.86389  -0.85434  -0.84745
 Alpha  occ. eigenvalues --   -0.84405  -0.83937  -0.79954  -0.79460  -0.78645
 Alpha  occ. eigenvalues --   -0.77975  -0.77283  -0.76330  -0.75725  -0.75510
 Alpha  occ. eigenvalues --   -0.75127  -0.75004  -0.74002  -0.73715  -0.72824
 Alpha  occ. eigenvalues --   -0.71929  -0.71266  -0.71132  -0.67410  -0.67172
 Alpha  occ. eigenvalues --   -0.65733  -0.63925  -0.63342  -0.62558  -0.62413
 Alpha  occ. eigenvalues --   -0.61512  -0.61303  -0.60419  -0.59971  -0.59696
 Alpha  occ. eigenvalues --   -0.59285  -0.58430  -0.57876  -0.57457  -0.57143
 Alpha  occ. eigenvalues --   -0.56560  -0.55233  -0.53816  -0.53196  -0.52411
 Alpha  occ. eigenvalues --   -0.51382  -0.51120  -0.50802  -0.49792  -0.48620
 Alpha  occ. eigenvalues --   -0.47786  -0.47644  -0.47582  -0.47075  -0.46832
 Alpha  occ. eigenvalues --   -0.46618  -0.45434  -0.45298  -0.45133  -0.44942
 Alpha  occ. eigenvalues --   -0.44645  -0.44521  -0.44268  -0.43802  -0.43738
 Alpha  occ. eigenvalues --   -0.43574  -0.43095  -0.43017  -0.42812  -0.42519
 Alpha  occ. eigenvalues --   -0.42245  -0.42146  -0.41994  -0.41634  -0.41538
 Alpha  occ. eigenvalues --   -0.40802  -0.40764  -0.40713  -0.39109  -0.38455
 Alpha  occ. eigenvalues --   -0.38309  -0.38079  -0.37970  -0.37683  -0.37364
 Alpha  occ. eigenvalues --   -0.37059  -0.36656  -0.36300  -0.36114  -0.35953
 Alpha  occ. eigenvalues --   -0.35788  -0.35443  -0.35402  -0.35245  -0.34919
 Alpha  occ. eigenvalues --   -0.34492  -0.34286  -0.34114  -0.33982  -0.33523
 Alpha  occ. eigenvalues --   -0.33362  -0.32884  -0.32741  -0.32578  -0.32185
 Alpha  occ. eigenvalues --   -0.31804  -0.31661  -0.31015  -0.28828  -0.28296
 Alpha  occ. eigenvalues --   -0.27294  -0.27097  -0.26998  -0.26030  -0.25730
 Alpha  occ. eigenvalues --   -0.24942  -0.24450  -0.24071  -0.24032  -0.22833
 Alpha  occ. eigenvalues --   -0.21413  -0.20674  -0.18919
 Alpha virt. eigenvalues --   -0.05916  -0.03463  -0.02355  -0.02012  -0.01310
 Alpha virt. eigenvalues --   -0.00802  -0.00632   0.00427   0.00834   0.01030
 Alpha virt. eigenvalues --    0.01578   0.02023   0.03741   0.04493   0.06693

 Mulliken charges:
               1
     1  C   -0.443163
     2  C   -0.242670
     3  C   -0.345894
     4  C    0.173898
     5  C   -0.198788
     6  C   -0.173046
     7  C    0.308918
     8  C    0.068119
     9  C   -0.268092
    10  C    0.067597
    11  C   -0.263444
    12  C    0.170794
    13  C   -0.344522
    14  C   -0.241274
    15  C   -0.443509
    16  C   -0.202021
    17  C   -0.174209
    18  C    0.310982
    19  N   -0.741144
    20  C    0.278053
    21  C   -0.159643
    22  C   -0.175119
    23  C    0.070699
    24  C    0.050486
    25  C   -0.183471
    26  C   -0.127417
    27  C   -0.129008
    28  C   -0.157430
    29  C    0.013611
    30  C    0.014991
    31  C   -0.156912
    32  C   -0.128809
    33  C   -0.128078
    34  C   -0.183134
    35  C    0.050943
    36  C    0.070601
    37  C   -0.180741
    38  C   -0.174447
    39  C    0.076493
    40  C    0.486461
    41  N   -0.542446
    42  C    0.251248
    43  C   -0.173771
    44  C   -0.143450
    45  C   -0.145155
    46  C   -0.186529
    47  C    0.336753
    48  O   -0.530457
    49  C   -0.167531
    50  C   -0.167870
    51  C   -0.187349
    52  C   -0.158731
    53  H    0.140469
    54  H    0.136244
    55  H    0.156785
    56  H    0.130168
    57  H    0.135031
    58  H    0.135654
    59  H    0.139256
    60  H    0.121077
    61  H    0.139239
    62  H    0.123214
    63  H    0.122875
    64  H    0.139559
    65  H    0.134410
    66  H    0.135770
    67  H    0.129772
    68  H    0.135870
    69  H    0.140800
    70  H    0.155725
    71  H    0.119780
    72  H    0.136684
    73  H    0.153892
    74  H    0.150153
    75  H    0.137178
    76  H    0.133421
    77  H    0.134546
    78  H    0.140865
    79  H    0.140754
    80  H    0.134705
    81  H    0.133816
    82  H    0.137944
    83  H    0.138967
    84  H    0.154091
    85  H    0.145916
    86  H    0.132988
    87  H    0.134711
    88  H    0.146872
    89  H    0.168241
    90  H    0.149593
    91  H    0.139719
    92  H    0.151874
 Sum of Mulliken charges =  -0.00000

 Dipole moment (field-independent basis, Debye):
    X=              1.2755    Y=             -1.5070    Z=              0.5193  Tot=              2.0415
 Quadrupole moment (field-independent basis, Debye-Ang):
   XX=           -277.2781   YY=           -288.0471   ZZ=           -290.3275
   XY=              0.7301   XZ=              2.9022   YZ=             -2.5246

 Normal termination of Gaussian 16 at Sat Nov  5 00:16:00 2022.
