 Gaussian 16, Revision B.01,
 Gaussian 16:  ES64L-G16RevB.01 20-Dec-2017

 -----------------------------
 #p b3lyp/6-31g(d) opt SCF=XQC
 -----------------------------

 ------------------------------
 Gaussian input prepared by ASE
 ------------------------------
 Symbolic Z-matrix:
 Charge =  0 Multiplicity = 1

 SCF Done:  E(RB3LYP) =  -1288.22612637     A.U. after   16 cycles
 SCF Done:  E(RB3LYP) =  -1288.23620654     A.U. after   15 cycles
 SCF Done:  E(RB3LYP) =  -1288.23904417     A.U. after   13 cycles
 SCF Done:  E(RB3LYP) =  -1288.24027048     A.U. after   12 cycles
 SCF Done:  E(RB3LYP) =  -1288.24076764     A.U. after   11 cycles
 SCF Done:  E(RB3LYP) =  -1288.24098300     A.U. after   11 cycles
 SCF Done:  E(RB3LYP) =  -1288.24105415     A.U. after   10 cycles
 SCF Done:  E(RB3LYP) =  -1288.24111137     A.U. after   11 cycles
 SCF Done:  E(RB3LYP) =  -1288.24114046     A.U. after   11 cycles
 SCF Done:  E(RB3LYP) =  -1288.24115676     A.U. after   11 cycles
 SCF Done:  E(RB3LYP) =  -1288.24116035     A.U. after    9 cycles
 SCF Done:  E(RB3LYP) =  -1288.24116110     A.U. after    9 cycles
 SCF Done:  E(RB3LYP) =  -1288.24116208     A.U. after    9 cycles
 SCF Done:  E(RB3LYP) =  -1288.24116402     A.U. after   10 cycles
 SCF Done:  E(RB3LYP) =  -1288.24116541     A.U. after    9 cycles
 SCF Done:  E(RB3LYP) =  -1288.24116694     A.U. after    9 cycles
 SCF Done:  E(RB3LYP) =  -1288.24116775     A.U. after    9 cycles
 SCF Done:  E(RB3LYP) =  -1288.24116793     A.U. after    9 cycles
 SCF Done:  E(RB3LYP) =  -1288.24116795     A.U. after    6 cycles
 SCF Done:  E(RB3LYP) =  -1288.24116795     A.U. after    6 cycles
 Optimization completed on the basis of negligible forces.
    -- Stationary point found.

                         Standard orientation:
 ---------------------------------------------------------------------
 Center     Atomic      Atomic             Coordinates (Angstroms)
 Number     Number       Type             X           Y           Z
 ---------------------------------------------------------------------
      1          6           0        4.038343   -4.289162   -1.333657
      2          6           0        3.075954   -3.142117   -1.133792
      3          6           0        3.132696   -1.996676   -1.935797
      4          6           0        2.226997   -0.957350   -1.763184
      5          6           0        1.234709   -1.012617   -0.769802
      6          6           0        1.177062   -2.140077    0.075127
      7          6           0        2.090696   -3.180124   -0.146065
      8          6           0        0.187541   -2.268842    1.209227
      9          6           0       -1.273645   -2.394062    0.736620
     10          6           0       -1.768045   -1.123205    0.117710
     11          6           0       -1.028116   -0.092910   -0.405017
     12          8           0       -1.813488    0.984363   -0.755586
     13          6           0       -3.110154    0.629774   -0.457960
     14          6           0       -4.235895    1.416042   -0.633894
     15          6           0       -5.456308    0.851397   -0.255878
     16          6           0       -5.541048   -0.449251    0.283655
     17          6           0       -6.890239   -1.013904    0.671911
     18          6           0       -4.377976   -1.208022    0.449174
     19          6           0       -3.139320   -0.666675    0.074224
     20          7           0        0.327013    0.088729   -0.647456
     21          6           0        0.795732    1.396332   -1.041309
     22          6           0        0.468689    1.893305   -2.308059
     23          6           0        0.973729    3.115297   -2.745753
     24          6           0        1.827907    3.843992   -1.917026
     25          6           0        2.150554    3.354215   -0.653724
     26          6           0        1.634465    2.135161   -0.182535
     27          6           0        1.980907    1.688791    1.195858
     28          6           0        0.980119    1.434150    2.147286
     29          6           0        1.315835    1.080518    3.454075
     30          6           0        2.656203    0.970346    3.831576
     31          6           0        3.658984    1.221759    2.894513
     32          6           0        3.323458    1.581587    1.588831
     33          1           0        3.971347   -5.014019   -0.515928
     34          1           0        5.076325   -3.939274   -1.386961
     35          1           0        3.833248   -4.827468   -2.268526
     36          1           0        3.886084   -1.917167   -2.716601
     37          1           0        2.285037   -0.090454   -2.410836
     38          1           0        2.036052   -4.049627    0.506609
     39          1           0        0.451485   -3.150899    1.802895
     40          1           0        0.268564   -1.401163    1.875676
     41          1           0       -1.358075   -3.246381    0.047114
     42          1           0       -1.912386   -2.635461    1.598210
     43          1           0       -4.169203    2.418485   -1.044603
     44          1           0       -6.367376    1.431492   -0.381421
     45          1           0       -6.792364   -2.007149    1.121695
     46          1           0       -7.552983   -1.108228   -0.197967
     47          1           0       -7.403375   -0.369416    1.396678
     48          1           0       -4.440097   -2.211549    0.863376
     49          1           0       -0.180692    1.304418   -2.947523
     50          1           0        0.709062    3.489104   -3.730886
     51          1           0        2.233715    4.796024   -2.248169
     52          1           0        2.793008    3.933336    0.003676
     53          1           0       -0.063433    1.537321    1.865141
     54          1           0        0.528033    0.898768    4.180563
     55          1           0        2.916048    0.693456    4.849819
     56          1           0        4.704802    1.136102    3.177705
     57          1           0        4.106991    1.767706    0.859122
 ---------------------------------------------------------------------

 The electronic state is 1-A.
 Alpha  occ. eigenvalues --  -19.20097 -14.37313 -10.27309 -10.23142 -10.22647
 Alpha  occ. eigenvalues --  -10.22615 -10.20458 -10.19886 -10.19535 -10.19481
 Alpha  occ. eigenvalues --  -10.19394 -10.19378 -10.19015 -10.18964 -10.18932
 Alpha  occ. eigenvalues --  -10.18897 -10.18873 -10.18833 -10.18824 -10.18638
 Alpha  occ. eigenvalues --  -10.18355 -10.18276 -10.18246 -10.18232 -10.18091
 Alpha  occ. eigenvalues --  -10.18062 -10.18028 -10.18004 -10.17509 -10.17491
 Alpha  occ. eigenvalues --  -10.17432 -10.17411  -1.10133  -0.96168  -0.86645
 Alpha  occ. eigenvalues --   -0.85163  -0.84458  -0.84157  -0.81019  -0.77722
 Alpha  occ. eigenvalues --   -0.77682  -0.76417  -0.75459  -0.74473  -0.74188
 Alpha  occ. eigenvalues --   -0.72620  -0.72235  -0.70118  -0.68534  -0.66671
 Alpha  occ. eigenvalues --   -0.64301  -0.62819  -0.62296  -0.60581  -0.60315
 Alpha  occ. eigenvalues --   -0.59017  -0.58042  -0.57048  -0.56164  -0.55163
 Alpha  occ. eigenvalues --   -0.53245  -0.51487  -0.50842  -0.48871  -0.48360
 Alpha  occ. eigenvalues --   -0.47871  -0.46483  -0.46069  -0.45431  -0.45234
 Alpha  occ. eigenvalues --   -0.44937  -0.44283  -0.43614  -0.43298  -0.42824
 Alpha  occ. eigenvalues --   -0.42325  -0.42136  -0.41964  -0.41743  -0.41477
 Alpha  occ. eigenvalues --   -0.41093  -0.40711  -0.39345  -0.38459  -0.38200
 Alpha  occ. eigenvalues --   -0.37842  -0.37349  -0.36902  -0.36712  -0.36015
 Alpha  occ. eigenvalues --   -0.35604  -0.35436  -0.34793  -0.34421  -0.34049
 Alpha  occ. eigenvalues --   -0.33783  -0.33579  -0.33126  -0.32569  -0.31745
 Alpha  occ. eigenvalues --   -0.30387  -0.26833  -0.26351  -0.25425  -0.24856
 Alpha  occ. eigenvalues --   -0.23926  -0.23216  -0.22393  -0.21593  -0.17354
 Alpha virt. eigenvalues --   -0.02408  -0.01360  -0.00166   0.00176   0.00595
 Alpha virt. eigenvalues --    0.01558   0.01890   0.02697   0.07556   0.09182
 Alpha virt. eigenvalues --    0.09898   0.10181   0.10880   0.11216   0.12897

 Mulliken charges:
               1
     1  C   -0.533444
     2  C    0.205379
     3  C   -0.199906
     4  C   -0.158446
     5  C    0.247594
     6  C    0.175344
     7  C   -0.280668
     8  C   -0.369631
     9  C   -0.327082
    10  C    0.093598
    11  C    0.471550
    12  O   -0.546766
    13  C    0.325378
    14  C   -0.193661
    15  C   -0.202061
    16  C    0.179537
    17  C   -0.530761
    18  C   -0.283127
    19  C    0.075506
    20  N   -0.713118
    21  C    0.185046
    22  C   -0.125535
    23  C   -0.142945
    24  C   -0.121159
    25  C   -0.188682
    26  C    0.075721
    27  C    0.071886
    28  C   -0.158106
    29  C   -0.139172
    30  C   -0.124532
    31  C   -0.133479
    32  C   -0.159183
    33  H    0.154197
    34  H    0.158188
    35  H    0.162160
    36  H    0.120650
    37  H    0.144152
    38  H    0.115697
    39  H    0.139186
    40  H    0.169844
    41  H    0.151062
    42  H    0.142246
    43  H    0.136885
    44  H    0.116380
    45  H    0.151173
    46  H    0.158228
    47  H    0.156641
    48  H    0.116742
    49  H    0.146685
    50  H    0.135651
    51  H    0.133800
    52  H    0.139837
    53  H    0.148778
    54  H    0.133085
    55  H    0.129626
    56  H    0.130455
    57  H    0.133578
 Sum of Mulliken charges =  -0.00000

 Dipole moment (field-independent basis, Debye):
    X=              1.7000    Y=             -0.0743    Z=              0.0697  Tot=              1.7030
 Quadrupole moment (field-independent basis, Debye-Ang):
   XX=           -174.1152   YY=           -174.1494   ZZ=           -175.1919
   XY=              0.8205   XZ=             -2.1819   YZ=             -7.1927

 Normal termination of Gaussian 16 at Sat Nov  5 00:28:39 2022.
