 Gaussian 16, Revision B.01,
 Gaussian 16:  ES64L-G16RevB.01 20-Dec-2017

 -------------------------------------------------------------------
 #p b3lyp/6-31g(d) 6D 10F nosymm GFInput td=(50-50,nstate=2) SCF=XQC
 -------------------------------------------------------------------

 ------------------------------
 Gaussian input prepared by ASE
 ------------------------------
 Symbolic Z-matrix:
 Charge =  0 Multiplicity = 1

                          Input orientation:
 ---------------------------------------------------------------------
 Center     Atomic      Atomic             Coordinates (Angstroms)
 Number     Number       Type             X           Y           Z
 ---------------------------------------------------------------------
      1          6           0       -0.442920    5.476330    2.206720
      2          6           0       -0.391047    4.157935    1.471199
      3          6           0       -0.831470    4.045448    0.147627
      4          6           0       -0.755770    2.835339   -0.530748
      5          6           0       -0.250253    1.681277    0.091420
      6          6           0        0.168108    1.758465    1.435820
      7          6           0        0.101119    3.002174    2.079288
      8          6           0        0.670309    0.563355    2.211333
      9          6           0        2.015765    0.018563    1.694566
     10          6           0        1.879387   -0.603388    0.339156
     11          6           0        0.888853   -0.401869   -0.588464
     12          8           0        1.005933   -1.253477   -1.666092
     13          6           0        2.121273   -2.025093   -1.428849
     14          6           0        2.612150   -3.029259   -2.245641
     15          6           0        3.760805   -3.688594   -1.801798
     16          6           0        4.387284   -3.356315   -0.582341
     17          6           0        5.632937   -4.099916   -0.151879
     18          6           0        3.855258   -2.338146    0.215248
     19          6           0        2.704439   -1.656991   -0.208492
     20          7           0       -0.192422    0.465996   -0.664616
     21          6           0       -1.164477    0.278273   -1.715574
     22          6           0       -0.808568    0.552621   -3.040963
     23          6           0       -1.748289    0.458615   -4.064678
     24          6           0       -3.063025    0.101910   -3.761964
     25          6           0       -3.418482   -0.176964   -2.444469
     26          6           0       -2.481788   -0.110829   -1.399151
     27          6           0       -2.914104   -0.465828   -0.018457
     28          6           0       -2.278896   -1.493375    0.697287
     29          6           0       -2.732980   -1.862896    1.963273
     30          6           0       -3.825670   -1.209449    2.537961
     31          6           0       -4.464917   -0.187350    1.835435
     32          6           0       -4.014747    0.178309    0.566381
     33          1           0       -0.232500    5.347331    3.273336
     34          1           0       -1.427494    5.950430    2.114451
     35          1           0        0.293584    6.187325    1.809397
     36          1           0       -1.228185    4.917016   -0.368664
     37          1           0       -1.088699    2.783155   -1.560682
     38          1           0        0.431360    3.054889    3.115225
     39          1           0        0.777592    0.850979    3.262949
     40          1           0       -0.072510   -0.243239    2.176511
     41          1           0        2.759582    0.828304    1.701671
     42          1           0        2.389134   -0.743504    2.393459
     43          1           0        2.126706   -3.287510   -3.181416
     44          1           0        4.184247   -4.480887   -2.414402
     45          1           0        5.973786   -3.769400    0.834530
     46          1           0        6.459350   -3.943758   -0.857195
     47          1           0        5.458126   -5.181829   -0.098348
     48          1           0        4.336710   -2.078575    1.155097
     49          1           0        0.213117    0.848077   -3.256049
     50          1           0       -1.456445    0.672510   -5.089053
     51          1           0       -3.807669    0.030414   -4.550059
     52          1           0       -4.434715   -0.481863   -2.210779
     53          1           0       -1.441329   -2.018345    0.247688
     54          1           0       -2.236635   -2.668688    2.497865
     55          1           0       -4.177392   -1.497716    3.524976
     56          1           0       -5.314271    0.328971    2.275073
     57          1           0       -4.509240    0.981041    0.025882
 ---------------------------------------------------------------------

 SCF Done:  E(RB3LYP) =  -1288.24116814     A.U. after   15 cycles

 Excitation energies and oscillator strengths:

 Excited state symmetry could not be determined.
 Excited State   1:      Triplet-?Sym    3.0966 eV  400.38 nm  f=0.0000  <S**2>=2.000
     109 ->113        -0.10242
     109 ->116         0.10066
     110 ->111        -0.21291
     110 ->112         0.17141
     110 ->113         0.54468
     110 ->114        -0.12829
     110 ->116        -0.12240
     110 ->118        -0.10765
 This state for optimization and/or second-order correction.
 Total Energy, E(TD-HF/TD-DFT) =  -1288.12736924
 Copying the excited state density for this state as the 1-particle RhoCI density.

 Excited state symmetry could not be determined.
 Excited State   2:      Triplet-?Sym    3.2626 eV  380.01 nm  f=0.0000  <S**2>=2.000
     104 ->112         0.11305
     106 ->115         0.10156
     107 ->111        -0.18851
     108 ->111         0.11964
     110 ->111         0.50585
     110 ->112         0.28844
     110 ->113         0.12450

 Excited state symmetry could not be determined.
 Excited State   3:      Singlet-?Sym    3.4176 eV  362.78 nm  f=0.0232  <S**2>=0.000
     110 ->111         0.69709

 Excited state symmetry could not be determined.
 Excited State   4:      Singlet-?Sym    3.6995 eV  335.14 nm  f=0.0360  <S**2>=0.000
     110 ->112         0.69482

 Alpha  occ. eigenvalues --  -19.20097 -14.37313 -10.27309 -10.23142 -10.22647
 Alpha  occ. eigenvalues --  -10.22615 -10.20458 -10.19886 -10.19535 -10.19481
 Alpha  occ. eigenvalues --  -10.19394 -10.19378 -10.19015 -10.18963 -10.18932
 Alpha  occ. eigenvalues --  -10.18897 -10.18873 -10.18833 -10.18824 -10.18638
 Alpha  occ. eigenvalues --  -10.18355 -10.18276 -10.18246 -10.18232 -10.18091
 Alpha  occ. eigenvalues --  -10.18062 -10.18028 -10.18004 -10.17509 -10.17491
 Alpha  occ. eigenvalues --  -10.17432 -10.17411  -1.10133  -0.96168  -0.86645
 Alpha  occ. eigenvalues --   -0.85163  -0.84458  -0.84157  -0.81019  -0.77722
 Alpha  occ. eigenvalues --   -0.77683  -0.76417  -0.75459  -0.74473  -0.74188
 Alpha  occ. eigenvalues --   -0.72621  -0.72235  -0.70118  -0.68534  -0.66671
 Alpha  occ. eigenvalues --   -0.64301  -0.62819  -0.62296  -0.60581  -0.60315
 Alpha  occ. eigenvalues --   -0.59017  -0.58042  -0.57048  -0.56164  -0.55163
 Alpha  occ. eigenvalues --   -0.53245  -0.51487  -0.50842  -0.48871  -0.48360
 Alpha  occ. eigenvalues --   -0.47871  -0.46483  -0.46069  -0.45431  -0.45234
 Alpha  occ. eigenvalues --   -0.44937  -0.44283  -0.43614  -0.43298  -0.42824
 Alpha  occ. eigenvalues --   -0.42325  -0.42136  -0.41964  -0.41743  -0.41477
 Alpha  occ. eigenvalues --   -0.41093  -0.40711  -0.39345  -0.38459  -0.38200
 Alpha  occ. eigenvalues --   -0.37842  -0.37349  -0.36902  -0.36712  -0.36015
 Alpha  occ. eigenvalues --   -0.35604  -0.35435  -0.34794  -0.34421  -0.34049
 Alpha  occ. eigenvalues --   -0.33783  -0.33579  -0.33126  -0.32569  -0.31745
 Alpha  occ. eigenvalues --   -0.30387  -0.26832  -0.26351  -0.25425  -0.24856
 Alpha  occ. eigenvalues --   -0.23926  -0.23216  -0.22393  -0.21593  -0.17354
 Alpha virt. eigenvalues --   -0.02408  -0.01360  -0.00166   0.00176   0.00595
 Alpha virt. eigenvalues --    0.01558   0.01890   0.02697   0.07556   0.09182
 Alpha virt. eigenvalues --    0.09898   0.10181   0.10880   0.11216   0.12897

 Mulliken charges:
               1
     1  C   -0.533442
     2  C    0.205380
     3  C   -0.199910
     4  C   -0.158423
     5  C    0.247538
     6  C    0.175364
     7  C   -0.280668
     8  C   -0.369669
     9  C   -0.327046
    10  C    0.093546
    11  C    0.471581
    12  O   -0.546776
    13  C    0.325369
    14  C   -0.193645
    15  C   -0.202078
    16  C    0.179537
    17  C   -0.530760
    18  C   -0.283109
    19  C    0.075505
    20  N   -0.713082
    21  C    0.185040
    22  C   -0.125544
    23  C   -0.142943
    24  C   -0.121155
    25  C   -0.188685
    26  C    0.075712
    27  C    0.071912
    28  C   -0.158120
    29  C   -0.139167
    30  C   -0.124531
    31  C   -0.133489
    32  C   -0.159170
    33  H    0.154197
    34  H    0.158188
    35  H    0.162160
    36  H    0.120650
    37  H    0.144151
    38  H    0.115698
    39  H    0.139188
    40  H    0.169850
    41  H    0.151060
    42  H    0.142245
    43  H    0.136885
    44  H    0.116382
    45  H    0.151173
    46  H    0.158229
    47  H    0.156641
    48  H    0.116741
    49  H    0.146687
    50  H    0.135651
    51  H    0.133800
    52  H    0.139836
    53  H    0.148776
    54  H    0.133084
    55  H    0.129625
    56  H    0.130454
    57  H    0.133577
 Sum of Mulliken charges =  -0.00000

 Dipole moment (field-independent basis, Debye):
    X=             -1.3002    Y=              1.0327    Z=              0.3785  Tot=              1.7030
 Quadrupole moment (field-independent basis, Debye-Ang):
   XX=           -176.6890   YY=           -178.1284   ZZ=           -168.6880
   XY=             -4.2129   XZ=              3.7903   YZ=             -0.6726

 Normal termination of Gaussian 16 at Fri Nov  4 21:25:41 2022.
