 Gaussian 16, Revision B.01,
 Gaussian 16:  ES64L-G16RevB.01 20-Dec-2017

 -------------------------------------------------------------------
 #p b3lyp/6-31g(d) 6D 10F nosymm GFInput td=(50-50,nstate=2) SCF=XQC
 -------------------------------------------------------------------

 ------------------------------
 Gaussian input prepared by ASE
 ------------------------------
 Symbolic Z-matrix:
 Charge =  0 Multiplicity = 1

                          Input orientation:
 ---------------------------------------------------------------------
 Center     Atomic      Atomic             Coordinates (Angstroms)
 Number     Number       Type             X           Y           Z
 ---------------------------------------------------------------------
      1          6           0       -4.272335    4.117222    1.790962
      2          8           0       -3.885697    2.747575    1.805523
      3          6           0       -2.645608    2.416176    1.361567
      4          6           0       -1.727286    3.340237    0.875540
      5          6           0       -0.481225    2.886588    0.447101
      6          8           0        0.340575    3.872358   -0.005492
      7          6           0        1.604839    3.591616   -0.473766
      8          6           0        2.386310    4.614254   -0.907354
      9          6           0        3.740844    4.373940   -1.414953
     10          8           0        4.465793    5.296238   -1.812726
     11          6           0        4.177543    2.976698   -1.421967
     12          6           0        3.360919    1.986832   -0.977905
     13          8           0        3.818322    0.682589   -1.016707
     14          6           0        3.047670   -0.339892   -0.570596
     15          6           0        3.721243   -1.644368   -0.674968
     16          6           0        5.118778   -1.710634   -0.814536
     17          6           0        5.762349   -2.943245   -0.896668
     18          6           0        5.025734   -4.127933   -0.847517
     19          6           0        3.635261   -4.072161   -0.721300
     20          6           0        2.986977   -2.843575   -0.638992
     21          6           0        1.795768   -0.133861   -0.070494
     22          6           0        1.229644    1.186102   -0.019909
     23          6           0       -0.102909    1.525125    0.471509
     24          6           0       -1.086484    0.617847    0.977151
     25          6           0       -2.336326    1.040457    1.428704
     26          6           0       -3.334521    0.059915    1.998092
     27          6           0       -2.621495   -1.212558    2.452815
     28          6           0       -1.690949   -1.718556    1.346468
     29          6           0       -2.420327   -2.242545    0.113919
     30          6           0       -3.238338   -3.374703    0.244804
     31          6           0       -3.916919   -3.895985   -0.855242
     32          6           0       -3.785905   -3.293415   -2.108646
     33          6           0       -2.966983   -2.174027   -2.249603
     34          6           0       -2.284704   -1.653283   -1.146930
     35          8           0       -0.728454   -0.701891    1.000597
     36          6           0        2.032526    2.224337   -0.477230
     37          1           0       -4.272823    4.519798    0.770822
     38          1           0       -5.286447    4.142320    2.192501
     39          1           0       -3.612751    4.724393    2.422784
     40          1           0       -1.932817    4.400193    0.813000
     41          1           0        2.024565    5.636264   -0.887218
     42          1           0        5.170814    2.753643   -1.795009
     43          1           0        5.693301   -0.792217   -0.851632
     44          1           0        6.843473   -2.977129   -0.998575
     45          1           0        5.529534   -5.088235   -0.914326
     46          1           0        3.052349   -4.988758   -0.698685
     47          1           0        1.903924   -2.814976   -0.574253
     48          1           0        1.239536   -0.971755    0.309098
     49          1           0       -3.865040    0.521559    2.836411
     50          1           0       -4.100334   -0.185238    1.249476
     51          1           0       -3.340942   -1.994149    2.716190
     52          1           0       -2.016092   -1.008443    3.344436
     53          1           0       -1.064755   -2.524715    1.745453
     54          1           0       -3.340408   -3.860139    1.213245
     55          1           0       -4.544612   -4.774863   -0.734320
     56          1           0       -4.313680   -3.698164   -2.967790
     57          1           0       -2.851681   -1.701726   -3.221489
     58          1           0       -1.639745   -0.791135   -1.274016
 ---------------------------------------------------------------------

 SCF Done:  E(RB3LYP) =  -1570.65221392     A.U. after   22 cycles

 Excitation energies and oscillator strengths:

 Excited state symmetry could not be determined.
 Excited State   1:      Triplet-?Sym    1.3877 eV  893.44 nm  f=0.0000  <S**2>=2.000
     124 ->125         0.70106
     124 <-125         0.11458
 This state for optimization and/or second-order correction.
 Total Energy, E(TD-HF/TD-DFT) =  -1570.60121629
 Copying the excited state density for this state as the 1-particle RhoCI density.

 Excited state symmetry could not be determined.
 Excited State   2:      Triplet-?Sym    2.2996 eV  539.16 nm  f=0.0000  <S**2>=2.000
     123 ->125         0.68094

 Excited state symmetry could not be determined.
 Excited State   3:      Singlet-?Sym    2.4468 eV  506.72 nm  f=0.1764  <S**2>=0.000
     124 ->125         0.69318

 Excited state symmetry could not be determined.
 Excited State   4:      Singlet-?Sym    2.4918 eV  497.56 nm  f=0.0015  <S**2>=0.000
     123 ->125         0.69563

 Alpha  occ. eigenvalues --  -19.22019 -19.21301 -19.20077 -19.19740 -19.07113
 Alpha  occ. eigenvalues --  -10.27929 -10.27597 -10.27479 -10.27141 -10.26962
 Alpha  occ. eigenvalues --  -10.25916 -10.25718 -10.25667 -10.23986 -10.22878
 Alpha  occ. eigenvalues --  -10.21727 -10.21626 -10.21253 -10.21134 -10.20656
 Alpha  occ. eigenvalues --  -10.20630 -10.20390 -10.20387 -10.20370 -10.20293
 Alpha  occ. eigenvalues --  -10.20258 -10.20245 -10.20216 -10.20128 -10.20084
 Alpha  occ. eigenvalues --  -10.20005 -10.19975 -10.19801 -10.19679 -10.16661
 Alpha  occ. eigenvalues --  -10.16396  -1.11141  -1.10564  -1.08734  -1.08495
 Alpha  occ. eigenvalues --   -0.97047  -0.87909  -0.87258  -0.86756  -0.86346
 Alpha  occ. eigenvalues --   -0.83450  -0.82173  -0.80114  -0.78202  -0.76313
 Alpha  occ. eigenvalues --   -0.76017  -0.75588  -0.75529  -0.74139  -0.73233
 Alpha  occ. eigenvalues --   -0.71443  -0.68633  -0.67618  -0.66060  -0.64769
 Alpha  occ. eigenvalues --   -0.63365  -0.61554  -0.61447  -0.60809  -0.60623
 Alpha  occ. eigenvalues --   -0.58512  -0.56644  -0.55774  -0.54909  -0.54155
 Alpha  occ. eigenvalues --   -0.53247  -0.52514  -0.51306  -0.50508  -0.49829
 Alpha  occ. eigenvalues --   -0.48941  -0.48554  -0.48385  -0.47634  -0.47237
 Alpha  occ. eigenvalues --   -0.46762  -0.46451  -0.45813  -0.45681  -0.45151
 Alpha  occ. eigenvalues --   -0.44937  -0.44736  -0.44073  -0.43931  -0.43561
 Alpha  occ. eigenvalues --   -0.43167  -0.42978  -0.41603  -0.41228  -0.40791
 Alpha  occ. eigenvalues --   -0.40507  -0.38202  -0.38083  -0.37932  -0.37695
 Alpha  occ. eigenvalues --   -0.37365  -0.36924  -0.36497  -0.36272  -0.36064
 Alpha  occ. eigenvalues --   -0.35881  -0.35504  -0.35205  -0.35084  -0.34807
 Alpha  occ. eigenvalues --   -0.33750  -0.33536  -0.32368  -0.31403  -0.30631
 Alpha  occ. eigenvalues --   -0.26334  -0.26283  -0.26092  -0.25619  -0.24607
 Alpha  occ. eigenvalues --   -0.23451  -0.21288  -0.20214  -0.18286
 Alpha virt. eigenvalues --   -0.08309  -0.03237  -0.01655  -0.01245  -0.01128
 Alpha virt. eigenvalues --   -0.00789   0.01241   0.02180   0.04688   0.06725
 Alpha virt. eigenvalues --    0.08100   0.08458   0.08946   0.09441   0.09743

 Mulliken charges:
               1
     1  C   -0.220559
     2  O   -0.509270
     3  C    0.337219
     4  C   -0.281840
     5  C    0.300002
     6  O   -0.565902
     7  C    0.345705
     8  C   -0.298899
     9  C    0.457749
    10  O   -0.564841
    11  C   -0.304325
    12  C    0.345895
    13  O   -0.542349
    14  C    0.335042
    15  C    0.073097
    16  C   -0.159553
    17  C   -0.134397
    18  C   -0.119123
    19  C   -0.139495
    20  C   -0.167308
    21  C   -0.272632
    22  C    0.180050
    23  C    0.018050
    24  C    0.264531
    25  C    0.069346
    26  C   -0.337703
    27  C   -0.295625
    28  C    0.054879
    29  C    0.135241
    30  C   -0.179455
    31  C   -0.132250
    32  C   -0.126376
    33  C   -0.131079
    34  C   -0.180372
    35  O   -0.569671
    36  C   -0.024576
    37  H    0.163929
    38  H    0.176876
    39  H    0.163641
    40  H    0.153787
    41  H    0.141188
    42  H    0.139300
    43  H    0.161854
    44  H    0.140973
    45  H    0.137968
    46  H    0.137270
    47  H    0.145280
    48  H    0.187613
    49  H    0.168606
    50  H    0.170929
    51  H    0.152340
    52  H    0.157763
    53  H    0.158377
    54  H    0.127276
    55  H    0.134623
    56  H    0.134916
    57  H    0.138045
    58  H    0.148239
 Sum of Mulliken charges =  -0.00000

 Dipole moment (field-independent basis, Debye):
    X=             -7.7078    Y=             -7.5081    Z=              3.6210  Tot=             11.3532
 Quadrupole moment (field-independent basis, Debye-Ang):
   XX=           -204.0236   YY=           -215.0262   ZZ=           -203.4673
   XY=            -45.5035   XZ=              4.9092   YZ=             17.3799

 Normal termination of Gaussian 16 at Sat Nov  5 10:09:07 2022.
