 Gaussian 16, Revision B.01,
 Gaussian 16:  ES64L-G16RevB.01 20-Dec-2017

 -----------------------------
 #p b3lyp/6-31g(d) opt SCF=XQC
 -----------------------------

 ------------------------------
 Gaussian input prepared by ASE
 ------------------------------
 Symbolic Z-matrix:
 Charge =  0 Multiplicity = 1

 SCF Done:  E(RB3LYP) =  -1570.64549165     A.U. after   21 cycles
 SCF Done:  E(RB3LYP) =  -1570.65150763     A.U. after   12 cycles
 SCF Done:  E(RB3LYP) =  -1570.65204630     A.U. after   12 cycles
 SCF Done:  E(RB3LYP) =  -1570.65217981     A.U. after   12 cycles
 SCF Done:  E(RB3LYP) =  -1570.65220170     A.U. after   10 cycles
 SCF Done:  E(RB3LYP) =  -1570.65220996     A.U. after   10 cycles
 SCF Done:  E(RB3LYP) =  -1570.65221192     A.U. after    9 cycles
 SCF Done:  E(RB3LYP) =  -1570.65221275     A.U. after    8 cycles
 SCF Done:  E(RB3LYP) =  -1570.65221353     A.U. after    8 cycles
 SCF Done:  E(RB3LYP) =  -1570.65221427     A.U. after    9 cycles
 SCF Done:  E(RB3LYP) =  -1570.65221463     A.U. after    8 cycles
 SCF Done:  E(RB3LYP) =  -1570.65221475     A.U. after    7 cycles
 Optimization completed.
    -- Stationary point found.

                         Standard orientation:
 ---------------------------------------------------------------------
 Center     Atomic      Atomic             Coordinates (Angstroms)
 Number     Number       Type             X           Y           Z
 ---------------------------------------------------------------------
      1          6           0       -4.459817   -4.354322   -0.404877
      2          8           0       -4.238565   -2.965886   -0.626068
      3          6           0       -2.974327   -2.482055   -0.514920
      4          6           0       -1.874842   -3.264969   -0.180851
      5          6           0       -0.621684   -2.661224   -0.096526
      6          8           0        0.383582   -3.517244    0.233032
      7          6           0        1.682233   -3.078855    0.366374
      8          6           0        2.648212   -3.976944    0.690113
      9          6           0        4.047528   -3.566507    0.843823
     10          8           0        4.939754   -4.373998    1.137589
     11          6           0        4.319082   -2.144064    0.629446
     12          6           0        3.320298   -1.282616    0.306589
     13          8           0        3.629216    0.052955    0.126054
     14          6           0        2.670916    0.950474   -0.212335
     15          6           0        3.203852    2.312128   -0.380046
     16          6           0        4.581151    2.514188   -0.578023
     17          6           0        5.087902    3.799664   -0.754130
     18          6           0        4.234009    4.903647   -0.729864
     19          6           0        2.865400    4.714036   -0.521506
     20          6           0        2.353605    3.432118   -0.344807
     21          6           0        1.368909    0.583711   -0.385751
     22          6           0        0.953792   -0.778141   -0.189812
     23          6           0       -0.409805   -1.282679   -0.324608
     24          6           0       -1.575045   -0.524169   -0.660953
     25          6           0       -2.840454   -1.100000   -0.769416
     26          6           0       -4.042188   -0.277088   -1.170300
     27          6           0       -3.593176    0.995925   -1.885979
     28          6           0       -2.498924    1.697319   -1.075663
     29          6           0       -2.985535    2.286013    0.244331
     30          6           0       -3.930860    3.322079    0.212986
     31          6           0       -4.397763    3.898194    1.392987
     32          6           0       -3.923347    3.448166    2.627362
     33          6           0       -2.976274    2.425914    2.667161
     34          6           0       -2.506440    1.850369    1.483704
     35          8           0       -1.378028    0.811395   -0.879801
     36          6           0        1.947542   -1.687254    0.153220
     37          1           0       -4.187025   -4.642895    0.617407
     38          1           0       -5.529228   -4.510605   -0.553954
     39          1           0       -3.896705   -4.966586   -1.119681
     40          1           0       -1.943835   -4.325794    0.018026
     41          1           0        2.405233   -5.022681    0.842305
     42          1           0        5.340253   -1.796623    0.738975
     43          1           0        5.246256    1.658528   -0.598625
     44          1           0        6.153912    3.938110   -0.911676
     45          1           0        4.631774    5.905649   -0.864897
     46          1           0        2.195624    5.568727   -0.484760
     47          1           0        1.293501    3.302751   -0.151264
     48          1           0        0.653366    1.324228   -0.694270
     49          1           0       -4.693734   -0.870875   -1.818566
     50          1           0       -4.642310   -0.019961   -0.286707
     51          1           0       -4.434481    1.679058   -2.038913
     52          1           0       -3.184997    0.750069   -2.873960
     53          1           0       -2.070447    2.506994   -1.677356
     54          1           0       -4.300405    3.689390   -0.742244
     55          1           0       -5.128861    4.701026    1.348231
     56          1           0       -4.285610    3.895954    3.548637
     57          1           0       -2.594580    2.073133    3.621510
     58          1           0       -1.759069    1.066270    1.528959
 ---------------------------------------------------------------------

 The electronic state is 1-A.
 Alpha  occ. eigenvalues --  -19.22019 -19.21301 -19.20077 -19.19740 -19.07113
 Alpha  occ. eigenvalues --  -10.27929 -10.27597 -10.27479 -10.27141 -10.26961
 Alpha  occ. eigenvalues --  -10.25916 -10.25718 -10.25667 -10.23986 -10.22878
 Alpha  occ. eigenvalues --  -10.21727 -10.21626 -10.21253 -10.21133 -10.20656
 Alpha  occ. eigenvalues --  -10.20630 -10.20390 -10.20387 -10.20370 -10.20293
 Alpha  occ. eigenvalues --  -10.20258 -10.20245 -10.20216 -10.20128 -10.20084
 Alpha  occ. eigenvalues --  -10.20005 -10.19975 -10.19801 -10.19679 -10.16661
 Alpha  occ. eigenvalues --  -10.16396  -1.11141  -1.10564  -1.08734  -1.08495
 Alpha  occ. eigenvalues --   -0.97047  -0.87909  -0.87258  -0.86756  -0.86346
 Alpha  occ. eigenvalues --   -0.83450  -0.82173  -0.80114  -0.78202  -0.76313
 Alpha  occ. eigenvalues --   -0.76017  -0.75588  -0.75529  -0.74139  -0.73233
 Alpha  occ. eigenvalues --   -0.71443  -0.68633  -0.67618  -0.66060  -0.64769
 Alpha  occ. eigenvalues --   -0.63365  -0.61554  -0.61447  -0.60809  -0.60623
 Alpha  occ. eigenvalues --   -0.58512  -0.56643  -0.55774  -0.54909  -0.54155
 Alpha  occ. eigenvalues --   -0.53247  -0.52514  -0.51306  -0.50508  -0.49829
 Alpha  occ. eigenvalues --   -0.48941  -0.48554  -0.48385  -0.47634  -0.47237
 Alpha  occ. eigenvalues --   -0.46762  -0.46451  -0.45813  -0.45681  -0.45151
 Alpha  occ. eigenvalues --   -0.44937  -0.44736  -0.44073  -0.43931  -0.43561
 Alpha  occ. eigenvalues --   -0.43167  -0.42978  -0.41603  -0.41228  -0.40791
 Alpha  occ. eigenvalues --   -0.40507  -0.38202  -0.38083  -0.37932  -0.37695
 Alpha  occ. eigenvalues --   -0.37365  -0.36924  -0.36497  -0.36272  -0.36064
 Alpha  occ. eigenvalues --   -0.35881  -0.35504  -0.35205  -0.35084  -0.34807
 Alpha  occ. eigenvalues --   -0.33750  -0.33536  -0.32368  -0.31403  -0.30631
 Alpha  occ. eigenvalues --   -0.26334  -0.26284  -0.26092  -0.25619  -0.24607
 Alpha  occ. eigenvalues --   -0.23451  -0.21288  -0.20214  -0.18286
 Alpha virt. eigenvalues --   -0.08309  -0.03237  -0.01654  -0.01245  -0.01129
 Alpha virt. eigenvalues --   -0.00789   0.01241   0.02180   0.04688   0.06725
 Alpha virt. eigenvalues --    0.08100   0.08458   0.08946   0.09441   0.09743

 Mulliken charges:
               1
     1  C   -0.220551
     2  O   -0.509260
     3  C    0.337195
     4  C   -0.281822
     5  C    0.300006
     6  O   -0.565909
     7  C    0.345707
     8  C   -0.298891
     9  C    0.457755
    10  O   -0.564841
    11  C   -0.304333
    12  C    0.345873
    13  O   -0.542345
    14  C    0.335045
    15  C    0.073076
    16  C   -0.159553
    17  C   -0.134398
    18  C   -0.119122
    19  C   -0.139499
    20  C   -0.167278
    21  C   -0.272650
    22  C    0.180077
    23  C    0.018032
    24  C    0.264537
    25  C    0.069353
    26  C   -0.337722
    27  C   -0.295629
    28  C    0.054928
    29  C    0.135220
    30  C   -0.179448
    31  C   -0.132249
    32  C   -0.126378
    33  C   -0.131079
    34  C   -0.180367
    35  O   -0.569685
    36  C   -0.024557
    37  H    0.163927
    38  H    0.176875
    39  H    0.163640
    40  H    0.153788
    41  H    0.141188
    42  H    0.139301
    43  H    0.161854
    44  H    0.140974
    45  H    0.137969
    46  H    0.137271
    47  H    0.145263
    48  H    0.187611
    49  H    0.168608
    50  H    0.170929
    51  H    0.152341
    52  H    0.157763
    53  H    0.158373
    54  H    0.127275
    55  H    0.134622
    56  H    0.134916
    57  H    0.138044
    58  H    0.148232
 Sum of Mulliken charges =  -0.00000

 Dipole moment (field-independent basis, Debye):
    X=             -9.0981    Y=              6.3753    Z=             -2.3390  Tot=             11.3530
 Quadrupole moment (field-independent basis, Debye-Ang):
   XX=           -210.0061   YY=           -199.6895   ZZ=           -202.3005
   XY=             42.4790   XZ=             -8.0138   YZ=              5.4969

 1\1\GINC-NODE60\FOpt\RB3LYP\6-31G(d)\C31H22O5\WYKGROUP\05-Nov-2022\0\\
 #p b3lyp/6-31g(d) opt SCF=XQC\\Gaussian input prepared by ASE\\0,1\C,-
 4.2723346856,4.1172216549,1.7909620801\O,-3.8856972785,2.7475746137,1.
 8055226526\C,-2.6456079944,2.4161761676,1.3615673185\C,-1.7272863223,3
 .340236693,0.8755400283\C,-0.4812253419,2.8865879853,0.4471010877\O,0.
 3405746335,3.8723577199,-0.0054921316\C,1.604838563,3.5916156801,-0.47
 37661692\C,2.3863102123,4.6142543865,-0.9073535217\C,3.7408438071,4.37
 39403409,-1.4149532419\O,4.465793478,5.2962376279,-1.8127258089\C,4.17

 Normal termination of Gaussian 16 at Sat Nov  5 00:04:17 2022.
