 Gaussian 16, Revision B.01,
 Gaussian 16:  ES64L-G16RevB.01 20-Dec-2017

 -----------------------------
 #p b3lyp/6-31g(d) opt SCF=XQC
 -----------------------------

 ------------------------------
 Gaussian input prepared by ASE
 ------------------------------
 Symbolic Z-matrix:
 Charge =  0 Multiplicity = 1

 SCF Done:  E(RB3LYP) =  -2614.17975531     A.U. after   15 cycles
 SCF Done:  E(RB3LYP) =  -2614.19433736     A.U. after   12 cycles
 SCF Done:  E(RB3LYP) =  -2614.19509176     A.U. after   12 cycles
 SCF Done:  E(RB3LYP) =  -2614.19530121     A.U. after   12 cycles
 SCF Done:  E(RB3LYP) =  -2614.19538966     A.U. after   11 cycles
 SCF Done:  E(RB3LYP) =  -2614.19546823     A.U. after   11 cycles
 SCF Done:  E(RB3LYP) =  -2614.19549150     A.U. after   10 cycles
 SCF Done:  E(RB3LYP) =  -2614.19549962     A.U. after    9 cycles
 SCF Done:  E(RB3LYP) =  -2614.19550775     A.U. after    9 cycles
 SCF Done:  E(RB3LYP) =  -2614.19551167     A.U. after    9 cycles
 SCF Done:  E(RB3LYP) =  -2614.19551241     A.U. after    9 cycles
 SCF Done:  E(RB3LYP) =  -2614.19551249     A.U. after    7 cycles
 Optimization completed.
    -- Stationary point found.

                         Standard orientation:
 ---------------------------------------------------------------------
 Center     Atomic      Atomic             Coordinates (Angstroms)
 Number     Number       Type             X           Y           Z
 ---------------------------------------------------------------------
      1          6           0      -10.214035    6.765040    1.951410
      2          6           0      -10.145040    6.320546    0.629751
      3          6           0       -9.365458    5.212928    0.300294
      4          6           0       -8.637976    4.520225    1.283876
      5          6           0       -7.809456    3.340319    0.932989
      6          6           0       -8.223071    2.421180   -0.046521
      7          6           0       -7.446458    1.318511   -0.385672
      8          6           0       -6.222662    1.080872    0.260867
      9          7           0       -5.427796   -0.046370   -0.076259
     10          6           0       -6.039264   -1.303768   -0.318903
     11          6           0       -5.588457   -2.133768   -1.358354
     12          6           0       -6.184481   -3.369232   -1.585804
     13          6           0       -7.260144   -3.823899   -0.803400
     14          6           0       -7.897522   -5.138844   -1.056381
     15          6           0       -9.283026   -5.315516   -0.894833
     16          6           0       -9.882250   -6.551767   -1.130676
     17          6           0       -9.111011   -7.641884   -1.538094
     18          6           0       -7.734083   -7.482665   -1.705067
     19          6           0       -7.134969   -6.247132   -1.465202
     20          6           0       -7.706766   -2.980675    0.228818
     21          6           0       -7.107930   -1.750322    0.475636
     22          6           0       -4.015362    0.085514   -0.170455
     23          6           0       -3.438145    1.200527   -0.798237
     24          6           0       -2.055929    1.328049   -0.881824
     25          6           0       -1.191538    0.349858   -0.358483
     26          6           0        0.279385    0.488257   -0.455533
     27          6           0        0.907916    1.741048   -0.378376
     28          6           0        2.290246    1.868498   -0.454668
     29          6           0        3.106484    0.737345   -0.622972
     30          6           0        2.494968   -0.527153   -0.739782
     31          6           0        1.110186   -0.629182   -0.637854
     32          6           0        3.344753   -1.734346   -1.060853
     33          6           0        4.759825   -1.583466   -0.553084
     34          6           0        5.544252   -2.699091   -0.269323
     35          6           0        6.898118   -2.598048    0.088231
     36          6           0        7.743614   -3.800057    0.324598
     37          6           0        8.916605   -3.944862   -0.399569
     38          6           0        9.752206   -5.073768   -0.248724
     39          6           0        9.410050   -6.074070    0.629875
     40          6           0        8.230383   -5.971244    1.413349
     41          6           0        7.876935   -6.984394    2.345412
     42          6           0        6.754329   -6.867294    3.131685
     43          6           0        5.938923   -5.716253    3.026090
     44          6           0        6.247740   -4.719889    2.126290
     45          6           0        7.385807   -4.817016    1.277256
     46          6           0        7.449371   -1.309993    0.145391
     47          6           0        6.680989   -0.177679   -0.106407
     48          6           0        5.322451   -0.295367   -0.443460
     49          7           0        4.514916    0.841486   -0.672120
     50          6           0        5.119543    2.144094   -0.660361
     51          6           0        5.355849    2.818105    0.543085
     52          6           0        5.941321    4.081858    0.535668
     53          6           0        6.307672    4.706072   -0.669649
     54          6           0        6.932597    6.053482   -0.674478
     55          6           0        7.860154    6.422336    0.314462
     56          6           0        8.446707    7.686928    0.310088
     57          6           0        8.118549    8.610756   -0.683788
     58          6           0        7.198604    8.258516   -1.673011
     59          6           0        6.612157    6.993882   -1.668155
     60          6           0        6.064073    4.015821   -1.868971
     61          6           0        5.477029    2.752086   -1.866275
     62          6           0       -1.783942   -0.764683    0.261851
     63          6           0       -3.164702   -0.895796    0.362397
     64          6           0       -5.802057    1.987552    1.247251
     65          6           0       -6.578724    3.096197    1.566225
     66          6           0       -8.719422    4.979644    2.610070
     67          6           0       -9.496354    6.089021    2.939872
     68          1           0      -10.820746    7.629139    2.208380
     69          1           0      -10.692316    6.843468   -0.150399
     70          1           0       -9.297673    4.894577   -0.736353
     71          1           0       -9.177155    2.564999   -0.545911
     72          1           0       -7.790010    0.628622   -1.149799
     73          1           0       -4.774904   -1.799232   -1.994015
     74          1           0       -5.833388   -3.976302   -2.415677
     75          1           0       -9.898700   -4.467710   -0.607284
     76          1           0      -10.956531   -6.660593   -1.005514
     77          1           0       -9.578096   -8.605340   -1.723514
     78          1           0       -7.121376   -8.325931   -2.013428
     79          1           0       -6.058395   -6.144295   -1.569735
     80          1           0       -8.512174   -3.311841    0.878529
     81          1           0       -7.459058   -1.131720    1.295354
     82          1           0       -4.080171    1.961469   -1.230764
     83          1           0       -1.638878    2.186656   -1.400744
     84          1           0        0.310564    2.633783   -0.215928
     85          1           0        2.737415    2.851190   -0.364346
     86          1           0        0.660104   -1.613113   -0.749003
     87          1           0        2.887117   -2.644339   -0.654491
     88          1           0        3.369181   -1.876279   -2.155127
     89          1           0        5.094131   -3.684310   -0.367018
     90          1           0        9.182032   -3.180989   -1.125298
     91          1           0       10.657431   -5.151947   -0.845014
     92          1           0       10.038764   -6.954223    0.742434
     93          1           0        8.521059   -7.856707    2.430701
     94          1           0        6.498550   -7.649272    3.841699
     95          1           0        5.066269   -5.614086    3.665839
     96          1           0        5.623522   -3.835134    2.069192
     97          1           0        8.494096   -1.189159    0.418569
     98          1           0        7.137888    0.801503   -0.028014
     99          1           0        5.069130    2.350024    1.480377
    100          1           0        6.093339    4.603782    1.475985
    101          1           0        8.143076    5.702109    1.077181
    102          1           0        9.168003    7.947574    1.080109
    103          1           0        8.575651    9.596481   -0.687348
    104          1           0        6.929416    8.972897   -2.446535
    105          1           0        5.877382    6.740015   -2.427204
    106          1           0        6.361260    4.462802   -2.813171
    107          1           0        5.300308    2.222876   -2.797918
    108          1           0       -1.150746   -1.524708    0.711187
    109          1           0       -3.592588   -1.756562    0.866655
    110          1           0       -4.857558    1.823217    1.755901
    111          1           0       -6.215197    3.793907    2.315489
    112          1           0       -8.188556    4.445266    3.393138
    113          1           0       -9.548656    6.419963    3.973956
 ---------------------------------------------------------------------

 The electronic state is 1-A.
 Alpha  occ. eigenvalues --  -14.37158 -14.36538 -10.23383 -10.23005 -10.22949
 Alpha  occ. eigenvalues --  -10.22886 -10.22866 -10.22676 -10.21127 -10.20614
 Alpha  occ. eigenvalues --  -10.20238 -10.20194 -10.20174 -10.20125 -10.19647
 Alpha  occ. eigenvalues --  -10.19643 -10.19634 -10.19588 -10.19586 -10.19576
 Alpha  occ. eigenvalues --  -10.19542 -10.19495 -10.19425 -10.19419 -10.19408
 Alpha  occ. eigenvalues --  -10.19359 -10.19294 -10.19254 -10.19240 -10.19210
 Alpha  occ. eigenvalues --  -10.18925 -10.18918 -10.18883 -10.18879 -10.18872
 Alpha  occ. eigenvalues --  -10.18849 -10.18788 -10.18775 -10.18738 -10.18730
 Alpha  occ. eigenvalues --  -10.18725 -10.18718 -10.18717 -10.18713 -10.18691
 Alpha  occ. eigenvalues --  -10.18684 -10.18669 -10.18628 -10.18626 -10.18623
 Alpha  occ. eigenvalues --  -10.18621 -10.18620 -10.18597 -10.18572 -10.18570
 Alpha  occ. eigenvalues --  -10.18570 -10.18513 -10.18484 -10.18483 -10.18478
 Alpha  occ. eigenvalues --  -10.18464 -10.18454 -10.18415 -10.18351 -10.18339
 Alpha  occ. eigenvalues --  -10.18337 -10.18248  -0.97146  -0.96386  -0.87595
 Alpha  occ. eigenvalues --   -0.86999  -0.86419  -0.86342  -0.85905  -0.85508
 Alpha  occ. eigenvalues --   -0.84747  -0.84322  -0.84056  -0.83063  -0.81518
 Alpha  occ. eigenvalues --   -0.79664  -0.78095  -0.77823  -0.77733  -0.76858
 Alpha  occ. eigenvalues --   -0.75962  -0.75579  -0.74869  -0.74806  -0.74707
 Alpha  occ. eigenvalues --   -0.74505  -0.74112  -0.73909  -0.73841  -0.73638
 Alpha  occ. eigenvalues --   -0.73319  -0.72807  -0.72123  -0.71574  -0.70347
 Alpha  occ. eigenvalues --   -0.69208  -0.66831  -0.64499  -0.63755  -0.63395
 Alpha  occ. eigenvalues --   -0.62945  -0.62193  -0.61557  -0.61470  -0.61140
 Alpha  occ. eigenvalues --   -0.60865  -0.60755  -0.60161  -0.60063  -0.59394
 Alpha  occ. eigenvalues --   -0.58977  -0.58853  -0.58648  -0.57982  -0.57650
 Alpha  occ. eigenvalues --   -0.57613  -0.56371  -0.54478  -0.53864  -0.53467
 Alpha  occ. eigenvalues --   -0.53339  -0.52952  -0.52216  -0.51847  -0.51213
 Alpha  occ. eigenvalues --   -0.50633  -0.50412  -0.49126  -0.48701  -0.48419
 Alpha  occ. eigenvalues --   -0.48105  -0.47676  -0.47450  -0.47154  -0.46657
 Alpha  occ. eigenvalues --   -0.45858  -0.45830  -0.45496  -0.44961  -0.44785
 Alpha  occ. eigenvalues --   -0.44412  -0.44175  -0.44021  -0.43933  -0.43822
 Alpha  occ. eigenvalues --   -0.43752  -0.43736  -0.43548  -0.43491  -0.43306
 Alpha  occ. eigenvalues --   -0.43143  -0.42796  -0.42474  -0.42369  -0.42246
 Alpha  occ. eigenvalues --   -0.42200  -0.42141  -0.41836  -0.41707  -0.41380
 Alpha  occ. eigenvalues --   -0.41330  -0.40858  -0.40575  -0.40202  -0.39548
 Alpha  occ. eigenvalues --   -0.39268  -0.38678  -0.38524  -0.38169  -0.38047
 Alpha  occ. eigenvalues --   -0.37858  -0.37796  -0.37634  -0.37528  -0.37135
 Alpha  occ. eigenvalues --   -0.36893  -0.36359  -0.36236  -0.36058  -0.35848
 Alpha  occ. eigenvalues --   -0.35623  -0.35474  -0.35139  -0.34944  -0.34845
 Alpha  occ. eigenvalues --   -0.34638  -0.34418  -0.34276  -0.33836  -0.33664
 Alpha  occ. eigenvalues --   -0.33445  -0.33313  -0.33148  -0.33069  -0.32750
 Alpha  occ. eigenvalues --   -0.31997  -0.31797  -0.31390  -0.30360  -0.28176
 Alpha  occ. eigenvalues --   -0.27955  -0.27588  -0.26878  -0.26392  -0.25609
 Alpha  occ. eigenvalues --   -0.25592  -0.24804  -0.24765  -0.24728  -0.24697
 Alpha  occ. eigenvalues --   -0.24660  -0.24382  -0.23914  -0.23718  -0.23288
 Alpha  occ. eigenvalues --   -0.22941  -0.22402  -0.20730  -0.18592  -0.17194
 Alpha virt. eigenvalues --   -0.03853  -0.03647  -0.03151  -0.02886  -0.01734
 Alpha virt. eigenvalues --   -0.01363  -0.00982  -0.00690  -0.00665  -0.00290
 Alpha virt. eigenvalues --    0.00084   0.00203   0.00704   0.00765   0.00984

 Mulliken charges:
               1
     1  C   -0.127704
     2  C   -0.133725
     3  C   -0.175003
     4  C    0.089908
     5  C    0.094653
     6  C   -0.188481
     7  C   -0.170507
     8  C    0.286480
     9  N   -0.658116
    10  C    0.287508
    11  C   -0.170903
    12  C   -0.189079
    13  C    0.095124
    14  C    0.090914
    15  C   -0.175435
    16  C   -0.133716
    17  C   -0.127710
    18  C   -0.133714
    19  C   -0.175385
    20  C   -0.189037
    21  C   -0.171163
    22  C    0.279911
    23  C   -0.169023
    24  C   -0.191291
    25  C    0.096943
    26  C    0.107793
    27  C   -0.194379
    28  C   -0.187685
    29  C    0.304987
    30  C    0.126685
    31  C   -0.269836
    32  C   -0.402451
    33  C    0.124733
    34  C   -0.261076
    35  C    0.078452
    36  C    0.020420
    37  C   -0.183112
    38  C   -0.136870
    39  C   -0.188256
    40  C    0.129616
    41  C   -0.195685
    42  C   -0.132166
    43  C   -0.137412
    44  C   -0.199990
    45  C    0.090558
    46  C   -0.183942
    47  C   -0.188192
    48  C    0.306060
    49  N   -0.719480
    50  C    0.203027
    51  C   -0.134563
    52  C   -0.189729
    53  C    0.101875
    54  C    0.085750
    55  C   -0.172702
    56  C   -0.133425
    57  C   -0.125473
    58  C   -0.133412
    59  C   -0.172700
    60  C   -0.191255
    61  C   -0.127799
    62  C   -0.189615
    63  C   -0.169266
    64  C   -0.170569
    65  C   -0.188390
    66  C   -0.174993
    67  C   -0.133726
    68  H    0.128313
    69  H    0.129219
    70  H    0.130657
    71  H    0.134263
    72  H    0.145668
    73  H    0.145687
    74  H    0.134332
    75  H    0.130498
    76  H    0.129177
    77  H    0.128254
    78  H    0.129148
    79  H    0.130310
    80  H    0.134577
    81  H    0.145526
    82  H    0.144070
    83  H    0.132911
    84  H    0.129510
    85  H    0.144608
    86  H    0.123776
    87  H    0.155342
    88  H    0.171423
    89  H    0.133054
    90  H    0.131260
    91  H    0.128429
    92  H    0.126757
    93  H    0.127488
    94  H    0.127852
    95  H    0.127625
    96  H    0.145329
    97  H    0.131808
    98  H    0.144677
    99  H    0.150309
   100  H    0.141848
   101  H    0.133955
   102  H    0.133719
   103  H    0.132953
   104  H    0.133660
   105  H    0.134123
   106  H    0.141239
   107  H    0.146388
   108  H    0.132473
   109  H    0.144160
   110  H    0.146084
   111  H    0.134288
   112  H    0.130741
   113  H    0.129254
 Sum of Mulliken charges =  -0.00000

 Dipole moment (field-independent basis, Debye):
    X=              1.1978    Y=              2.1663    Z=             -0.3199  Tot=              2.4960
 Quadrupole moment (field-independent basis, Debye-Ang):
   XX=           -359.8852   YY=           -345.8701   ZZ=           -372.5240
   XY=             14.5020   XZ=             -3.2780   YZ=             -1.1010

 1\1\GINC-NODE75\FOpt\RB3LYP\6-31G(d)\C65H46N2\WYKGROUP\05-Nov-2022\0\\
 #p b3lyp/6-31g(d) opt SCF=XQC\\Gaussian input prepared by ASE\\0,1\C,-
 10.0839844756,-6.5062930983,-2.8921561151\C,-10.0257738878,-6.23455155
 43,-1.5239868938\C,-9.2563536103,-5.1731617319,-1.0501165384\C,-8.5285
 195688,-4.3551730931,-1.9319621745\C,-7.7108235891,-3.2245173868,-1.42
 72488309\C,-8.1368130908,-2.441397118,-0.3406991197\C,-7.3703795218,-1
 .3861796917,0.1421316621\C,-6.1447589754,-1.0594040806,-0.4605581946\N
 ,-5.3602447765,0.0205648714,0.02353527\C,-5.982442069,1.2323398597,0.4

 Normal termination of Gaussian 16 at Sat Nov  5 00:36:07 2022.
