 Gaussian 16, Revision B.01,
 Gaussian 16:  ES64L-G16RevB.01 20-Dec-2017

 -------------------------------------------------------------------
 #p b3lyp/6-31g(d) 6D 10F nosymm GFInput td=(50-50,nstate=2) SCF=XQC
 -------------------------------------------------------------------

 ------------------------------
 Gaussian input prepared by ASE
 ------------------------------
 Symbolic Z-matrix:
 Charge =  0 Multiplicity = 1

                          Input orientation:
 ---------------------------------------------------------------------
 Center     Atomic      Atomic             Coordinates (Angstroms)
 Number     Number       Type             X           Y           Z
 ---------------------------------------------------------------------
      1          6           0      -10.083984   -6.506293   -2.892156
      2          6           0      -10.025774   -6.234552   -1.523987
      3          6           0       -9.256354   -5.173162   -1.050117
      4          6           0       -8.528520   -4.355173   -1.931962
      5          6           0       -7.710824   -3.224517   -1.427249
      6          6           0       -8.136813   -2.441397   -0.340699
      7          6           0       -7.370380   -1.386180    0.142132
      8          6           0       -6.144759   -1.059404   -0.460558
      9          7           0       -5.360245    0.020565    0.023535
     10          6           0       -5.982442    1.232340    0.421394
     11          6           0       -5.543720    1.925142    1.561628
     12          6           0       -6.150224    3.117217    1.941707
     13          6           0       -7.224814    3.661296    1.217026
     14          6           0       -7.873407    4.928642    1.632346
     15          6           0       -9.259257    5.115320    1.485704
     16          6           0       -9.869013    6.307077    1.874186
     17          6           0       -9.108246    7.341055    2.423074
     18          6           0       -7.731132    7.170931    2.577279
     19          6           0       -7.121469    5.980402    2.184898
     20          6           0       -7.659294    2.954478    0.082298
     21          6           0       -7.049907    1.769975   -0.316316
     22          6           0       -3.947420   -0.112878    0.109303
     23          6           0       -3.365452   -1.295327    0.592698
     24          6           0       -1.982817   -1.423284    0.668306
     25          6           0       -1.122810   -0.380293    0.280398
     26          6           0        0.348535   -0.520172    0.368545
     27          6           0        0.986824   -1.748492    0.135505
     28          6           0        2.369614   -1.875442    0.203888
     29          6           0        3.176423   -0.769796    0.521198
     30          6           0        2.554836    0.465160    0.795175
     31          6           0        1.169929    0.570172    0.698092
     32          6           0        3.393761    1.626845    1.273958
     33          6           0        4.812764    1.551796    0.760325
     34          6           0        5.590432    2.699816    0.627112
     35          6           0        6.947013    2.654516    0.268439
     36          6           0        7.784835    3.882533    0.193705
     37          6           0        8.952605    3.941081    0.938140
     38          6           0        9.780595    5.085565    0.938781
     39          6           0        9.435950    6.187995    0.193477
     40          6           0        8.261526    6.178641   -0.604434
     41          6           0        7.905796    7.300596   -1.401186
     42          6           0        6.788554    7.277826   -2.203328
     43          6           0        5.981178    6.117329   -2.251551
     44          6           0        6.292337    5.015862   -1.484936
     45          6           0        7.424834    5.010878   -0.623011
     46          6           0        7.508178    1.388143    0.050202
     47          6           0        6.746859    0.227779    0.149683
     48          6           0        5.385599    0.292185    0.490128
     49          7           0        4.585293   -0.869973    0.565822
     50          6           0        5.199682   -2.156246    0.391094
     51          6           0        5.447805   -2.668728   -0.887268
     52          6           0        6.042642   -3.919055   -1.038122
     53          6           0        6.406828   -4.690260    0.079580
     54          6           0        7.041756   -6.022955   -0.084308
     55          6           0        7.977610   -6.255706   -1.106277
     56          6           0        8.573551   -7.506468   -1.260250
     57          6           0        8.246690   -8.552320   -0.395213
     58          6           0        7.318569   -8.336030    0.624957
     59          6           0        6.722736   -7.085165    0.778456
     60          6           0        6.151315   -4.161192    1.355888
     61          6           0        5.554880   -2.911499    1.511410
     62          6           0       -1.720002    0.800630   -0.195772
     63          6           0       -3.101113    0.934334   -0.287728
     64          6           0       -5.711834   -1.829240   -1.552281
     65          6           0       -6.478392   -2.892973   -2.015868
     66          6           0       -8.599043   -4.641218   -3.306624
     67          6           0       -9.365798   -5.704289   -3.781045
     68          1           0      -10.682768   -7.334324   -3.261780
     69          1           0      -10.573529   -6.856868   -0.820937
     70          1           0       -9.196803   -4.989968    0.019217
     71          1           0       -9.092602   -2.654454    0.129859
     72          1           0       -7.723381   -0.802315    0.986144
     73          1           0       -4.731295    1.517273    2.154466
     74          1           0       -5.808363    3.615154    2.844858
     75          1           0       -9.866952    4.307309    1.087784
     76          1           0      -10.943353    6.423883    1.756969
     77          1           0       -9.583548    8.269627    2.727438
     78          1           0       -7.126488    7.971750    2.995236
     79          1           0       -6.044764    5.872197    2.282440
     80          1           0       -8.463468    3.360862   -0.524853
     81          1           0       -7.391772    1.259299   -1.210875
     82          1           0       -4.004213   -2.109734    0.919860
     83          1           0       -1.562307   -2.338557    1.075568
     84          1           0        0.397078   -2.616983   -0.143990
     85          1           0        2.824608   -2.835422   -0.008762
     86          1           0        0.711895    1.528690    0.931537
     87          1           0        2.931647    2.578368    0.984645
     88          1           0        3.410948    1.627401    2.377535
     89          1           0        5.132427    3.661337    0.847379
     90          1           0        9.219622    3.092217    1.561652
     91          1           0       10.681829    5.092654    1.546097
     92          1           0       10.058703    7.079494    0.198833
     93          1           0        8.543863    8.180925   -1.369689
     94          1           0        6.530960    8.142693   -2.808872
     95          1           0        5.112938    6.092243   -2.904829
     96          1           0        5.674427    4.126943   -1.545854
     97          1           0        8.555302    1.310327   -0.229357
     98          1           0        7.211489   -0.730186   -0.050623
     99          1           0        5.162898   -2.086210   -1.758661
    100          1           0        6.203860   -4.315024   -2.036584
    101          1           0        8.259451   -5.441721   -1.768474
    102          1           0        9.301110   -7.661366   -2.052589
    103          1           0        8.711109   -9.527285   -0.515082
    104          1           0        7.050357   -9.145512    1.298709
    105          1           0        5.981812   -6.935672    1.558957
    106          1           0        6.446492   -4.723600    2.236905
    107          1           0        5.368955   -2.507356    2.502043
    108          1           0       -1.089969    1.616225   -0.539779
    109          1           0       -3.532556    1.849794   -0.680244
    110          1           0       -4.765731   -1.594714   -2.029455
    111          1           0       -6.105441   -3.486367   -2.846013
    112          1           0       -8.067766   -4.007276   -4.011206
    113          1           0       -9.409788   -5.900196   -4.849349
 ---------------------------------------------------------------------

 SCF Done:  E(RB3LYP) =  -2614.19550495     A.U. after   16 cycles

 Excitation energies and oscillator strengths:

 Excited state symmetry could not be determined.
 Excited State   1:      Triplet-?Sym    2.5872 eV  479.23 nm  f=0.0000  <S**2>=2.000
     219 -> 235        0.11914
     223 -> 226       -0.12202
     223 -> 227       -0.42374
     223 -> 229       -0.20766
     224 -> 227        0.31176
     225 -> 227       -0.26881
 This state for optimization and/or second-order correction.
 Total Energy, E(TD-HF/TD-DFT) =  -2614.10042825
 Copying the excited state density for this state as the 1-particle RhoCI density.

 Excited state symmetry could not be determined.
 Excited State   2:      Triplet-?Sym    2.7024 eV  458.78 nm  f=0.0000  <S**2>=2.000
     223 -> 227        0.19657
     225 -> 226       -0.11410
     225 -> 227       -0.23426
     225 -> 229        0.52184
     225 -> 232        0.12200

 Excited state symmetry could not be determined.
 Excited State   3:      Singlet-?Sym    3.1708 eV  391.02 nm  f=0.0432  <S**2>=0.000
     224 -> 226       -0.27413
     225 -> 226        0.63552

 Excited state symmetry could not be determined.
 Excited State   4:      Singlet-?Sym    3.2686 eV  379.32 nm  f=0.8968  <S**2>=0.000
     224 -> 227       -0.15594
     225 -> 227        0.60973
     225 -> 229       -0.29117

 Alpha  occ. eigenvalues --  -14.37158 -14.36538 -10.23383 -10.23005 -10.22949
 Alpha  occ. eigenvalues --  -10.22887 -10.22866 -10.22676 -10.21127 -10.20614
 Alpha  occ. eigenvalues --  -10.20238 -10.20194 -10.20174 -10.20125 -10.19647
 Alpha  occ. eigenvalues --  -10.19643 -10.19634 -10.19588 -10.19586 -10.19576
 Alpha  occ. eigenvalues --  -10.19542 -10.19495 -10.19425 -10.19419 -10.19408
 Alpha  occ. eigenvalues --  -10.19359 -10.19294 -10.19254 -10.19240 -10.19210
 Alpha  occ. eigenvalues --  -10.18925 -10.18918 -10.18883 -10.18879 -10.18872
 Alpha  occ. eigenvalues --  -10.18849 -10.18788 -10.18775 -10.18738 -10.18730
 Alpha  occ. eigenvalues --  -10.18725 -10.18718 -10.18717 -10.18713 -10.18691
 Alpha  occ. eigenvalues --  -10.18684 -10.18669 -10.18628 -10.18626 -10.18623
 Alpha  occ. eigenvalues --  -10.18621 -10.18620 -10.18597 -10.18572 -10.18570
 Alpha  occ. eigenvalues --  -10.18570 -10.18514 -10.18484 -10.18483 -10.18478
 Alpha  occ. eigenvalues --  -10.18464 -10.18454 -10.18415 -10.18351 -10.18339
 Alpha  occ. eigenvalues --  -10.18337 -10.18248  -0.97146  -0.96386  -0.87595
 Alpha  occ. eigenvalues --   -0.86999  -0.86419  -0.86342  -0.85905  -0.85508
 Alpha  occ. eigenvalues --   -0.84747  -0.84322  -0.84056  -0.83063  -0.81518
 Alpha  occ. eigenvalues --   -0.79664  -0.78095  -0.77823  -0.77733  -0.76858
 Alpha  occ. eigenvalues --   -0.75962  -0.75579  -0.74869  -0.74806  -0.74707
 Alpha  occ. eigenvalues --   -0.74505  -0.74112  -0.73909  -0.73841  -0.73638
 Alpha  occ. eigenvalues --   -0.73319  -0.72807  -0.72123  -0.71574  -0.70347
 Alpha  occ. eigenvalues --   -0.69208  -0.66831  -0.64499  -0.63755  -0.63395
 Alpha  occ. eigenvalues --   -0.62945  -0.62193  -0.61557  -0.61470  -0.61140
 Alpha  occ. eigenvalues --   -0.60865  -0.60755  -0.60161  -0.60063  -0.59394
 Alpha  occ. eigenvalues --   -0.58977  -0.58853  -0.58648  -0.57982  -0.57650
 Alpha  occ. eigenvalues --   -0.57613  -0.56371  -0.54478  -0.53864  -0.53467
 Alpha  occ. eigenvalues --   -0.53339  -0.52952  -0.52216  -0.51847  -0.51213
 Alpha  occ. eigenvalues --   -0.50633  -0.50412  -0.49126  -0.48701  -0.48419
 Alpha  occ. eigenvalues --   -0.48105  -0.47676  -0.47450  -0.47154  -0.46657
 Alpha  occ. eigenvalues --   -0.45858  -0.45830  -0.45496  -0.44961  -0.44785
 Alpha  occ. eigenvalues --   -0.44412  -0.44175  -0.44021  -0.43933  -0.43822
 Alpha  occ. eigenvalues --   -0.43752  -0.43736  -0.43548  -0.43491  -0.43306
 Alpha  occ. eigenvalues --   -0.43143  -0.42796  -0.42474  -0.42369  -0.42246
 Alpha  occ. eigenvalues --   -0.42200  -0.42141  -0.41836  -0.41707  -0.41380
 Alpha  occ. eigenvalues --   -0.41330  -0.40858  -0.40575  -0.40202  -0.39548
 Alpha  occ. eigenvalues --   -0.39268  -0.38678  -0.38524  -0.38169  -0.38047
 Alpha  occ. eigenvalues --   -0.37858  -0.37795  -0.37634  -0.37528  -0.37135
 Alpha  occ. eigenvalues --   -0.36893  -0.36359  -0.36236  -0.36058  -0.35848
 Alpha  occ. eigenvalues --   -0.35623  -0.35474  -0.35139  -0.34944  -0.34845
 Alpha  occ. eigenvalues --   -0.34638  -0.34418  -0.34276  -0.33836  -0.33664
 Alpha  occ. eigenvalues --   -0.33445  -0.33313  -0.33148  -0.33069  -0.32750
 Alpha  occ. eigenvalues --   -0.31997  -0.31797  -0.31390  -0.30360  -0.28176
 Alpha  occ. eigenvalues --   -0.27955  -0.27588  -0.26878  -0.26392  -0.25609
 Alpha  occ. eigenvalues --   -0.25592  -0.24804  -0.24765  -0.24728  -0.24697
 Alpha  occ. eigenvalues --   -0.24660  -0.24382  -0.23914  -0.23718  -0.23288
 Alpha  occ. eigenvalues --   -0.22941  -0.22402  -0.20730  -0.18592  -0.17194
 Alpha virt. eigenvalues --   -0.03853  -0.03647  -0.03151  -0.02886  -0.01734
 Alpha virt. eigenvalues --   -0.01363  -0.00982  -0.00690  -0.00665  -0.00290
 Alpha virt. eigenvalues --    0.00085   0.00203   0.00704   0.00765   0.00984

 Mulliken charges:
               1
     1  C   -0.127712
     2  C   -0.133723
     3  C   -0.174997
     4  C    0.089917
     5  C    0.094636
     6  C   -0.188489
     7  C   -0.170493
     8  C    0.286451
     9  N   -0.658109
    10  C    0.287525
    11  C   -0.170906
    12  C   -0.189071
    13  C    0.095110
    14  C    0.090938
    15  C   -0.175447
    16  C   -0.133717
    17  C   -0.127705
    18  C   -0.133716
    19  C   -0.175394
    20  C   -0.189039
    21  C   -0.171167
    22  C    0.279913
    23  C   -0.169023
    24  C   -0.191287
    25  C    0.096941
    26  C    0.107789
    27  C   -0.194373
    28  C   -0.187693
    29  C    0.304957
    30  C    0.126716
    31  C   -0.269842
    32  C   -0.402476
    33  C    0.124775
    34  C   -0.261064
    35  C    0.078417
    36  C    0.020407
    37  C   -0.183110
    38  C   -0.136872
    39  C   -0.188241
    40  C    0.129633
    41  C   -0.195680
    42  C   -0.132184
    43  C   -0.137411
    44  C   -0.199971
    45  C    0.090530
    46  C   -0.183918
    47  C   -0.188198
    48  C    0.306064
    49  N   -0.719491
    50  C    0.203037
    51  C   -0.134564
    52  C   -0.189717
    53  C    0.101871
    54  C    0.085771
    55  C   -0.172719
    56  C   -0.133420
    57  C   -0.125463
    58  C   -0.133417
    59  C   -0.172714
    60  C   -0.191262
    61  C   -0.127801
    62  C   -0.189612
    63  C   -0.169272
    64  C   -0.170562
    65  C   -0.188391
    66  C   -0.174997
    67  C   -0.133716
    68  H    0.128313
    69  H    0.129219
    70  H    0.130656
    71  H    0.134265
    72  H    0.145668
    73  H    0.145688
    74  H    0.134332
    75  H    0.130497
    76  H    0.129177
    77  H    0.128254
    78  H    0.129148
    79  H    0.130311
    80  H    0.134579
    81  H    0.145526
    82  H    0.144071
    83  H    0.132912
    84  H    0.129509
    85  H    0.144609
    86  H    0.123775
    87  H    0.155344
    88  H    0.171425
    89  H    0.133052
    90  H    0.131259
    91  H    0.128429
    92  H    0.126756
    93  H    0.127486
    94  H    0.127855
    95  H    0.127625
    96  H    0.145330
    97  H    0.131808
    98  H    0.144678
    99  H    0.150308
   100  H    0.141848
   101  H    0.133955
   102  H    0.133718
   103  H    0.132951
   104  H    0.133661
   105  H    0.134122
   106  H    0.141239
   107  H    0.146386
   108  H    0.132473
   109  H    0.144161
   110  H    0.146085
   111  H    0.134290
   112  H    0.130741
   113  H    0.129254
 Sum of Mulliken charges =  -0.00000

 Dipole moment (field-independent basis, Debye):
    X=              1.2120    Y=             -2.1815    Z=              0.0473  Tot=              2.4960
 Quadrupole moment (field-independent basis, Debye-Ang):
   XX=           -359.5406   YY=           -346.3168   ZZ=           -372.3489
   XY=            -15.0325   XZ=              1.4343   YZ=              2.2871

 Normal termination of Gaussian 16 at Sat Nov  5 12:32:10 2022.
