 Gaussian 16, Revision B.01,
 Gaussian 16:  ES64L-G16RevB.01 20-Dec-2017

 -----------------------------
 #p b3lyp/6-31g(d) opt SCF=XQC
 -----------------------------

 ------------------------------
 Gaussian input prepared by ASE
 ------------------------------
 Symbolic Z-matrix:
 Charge =  0 Multiplicity = 1

 SCF Done:  E(RB3LYP) =  -1230.48903664     A.U. after   15 cycles
 SCF Done:  E(RB3LYP) =  -1230.49511264     A.U. after   12 cycles
 SCF Done:  E(RB3LYP) =  -1230.49558533     A.U. after   11 cycles
 SCF Done:  E(RB3LYP) =  -1230.49563727     A.U. after   11 cycles
 SCF Done:  E(RB3LYP) =  -1230.49572170     A.U. after   10 cycles
 SCF Done:  E(RB3LYP) =  -1230.49573546     A.U. after   10 cycles
 SCF Done:  E(RB3LYP) =  -1230.49574016     A.U. after    9 cycles
 SCF Done:  E(RB3LYP) =  -1230.49574182     A.U. after    9 cycles
 SCF Done:  E(RB3LYP) =  -1230.49574243     A.U. after    8 cycles
 SCF Done:  E(RB3LYP) =  -1230.49574254     A.U. after    8 cycles
 SCF Done:  E(RB3LYP) =  -1230.49574241     A.U. after    8 cycles
 SCF Done:  E(RB3LYP) =  -1230.49574225     A.U. after    7 cycles
 SCF Done:  E(RB3LYP) =  -1230.49574208     A.U. after    7 cycles
 SCF Done:  E(RB3LYP) =  -1230.49574246     A.U. after    9 cycles
 SCF Done:  E(RB3LYP) =  -1230.49574204     A.U. after    9 cycles
 Optimization completed on the basis of negligible forces.
    -- Stationary point found.

                         Standard orientation:
 ---------------------------------------------------------------------
 Center     Atomic      Atomic             Coordinates (Angstroms)
 Number     Number       Type             X           Y           Z
 ---------------------------------------------------------------------
      1          8           0        2.861206   -0.646784    2.408730
      2          6           0        2.349246   -0.352181    1.331571
      3          7           0        3.039134    0.298765    0.341415
      4          6           0        4.423091    0.721459    0.483840
      5          6           0        4.530132    2.261153    0.319192
      6          6           0        5.991084    2.785752    0.260900
      7          6           0        7.038244    1.659593    0.405105
      8          6           0        6.703045    0.494915   -0.493492
      9          6           0        7.633651   -0.106571   -1.343053
     10          6           0        7.269041   -1.187885   -2.148304
     11          6           0        5.962810   -1.673884   -2.104539
     12          6           0        5.022874   -1.075009   -1.261943
     13          6           0        5.380626    0.010303   -0.460022
     14          6           0        0.919140   -0.699397    1.020316
     15          6           0        0.332423   -1.732032    1.761313
     16          6           0       -0.988800   -2.106174    1.529509
     17          6           0       -1.761383   -1.455808    0.559905
     18          6           0       -3.182999   -1.900652    0.270206
     19          7           0       -4.105437   -0.787364    0.061808
     20          6           0       -4.383341   -0.043211    1.292134
     21          6           0       -5.081806    1.272292    0.947831
     22          6           0       -6.260366    1.061165    0.020458
     23          6           0       -7.244478    2.047435   -0.129678
     24          6           0       -8.321088    1.865627   -0.994115
     25          6           0       -8.426852    0.680225   -1.726219
     26          6           0       -7.453921   -0.305763   -1.583291
     27          6           0       -6.368424   -0.127720   -0.716192
     28          6           0       -5.349220   -1.239734   -0.558176
     29          6           0       -1.180724   -0.407004   -0.165384
     30          6           0        0.141445   -0.032679    0.061545
     31          1           0        2.600921    0.421643   -0.560418
     32          1           0        4.686397    0.457839    1.514583
     33          1           0        3.976721    2.725422    1.142335
     34          1           0        4.003395    2.536642   -0.603417
     35          1           0        6.157336    3.536169    1.041740
     36          1           0        6.158768    3.290843   -0.696886
     37          1           0        8.041303    2.043777    0.188176
     38          1           0        7.056029    1.320905    1.452160
     39          1           0        8.652693    0.273498   -1.372130
     40          1           0        8.003075   -1.648426   -2.804281
     41          1           0        5.672721   -2.519513   -2.722613
     42          1           0        4.009805   -1.464597   -1.219066
     43          1           0        0.929697   -2.222949    2.522539
     44          1           0       -1.428961   -2.912121    2.112673
     45          1           0       -3.527616   -2.581040    1.074242
     46          1           0       -3.183538   -2.497511   -0.652824
     47          1           0       -5.008827   -0.639137    1.987398
     48          1           0       -3.436076    0.158194    1.800725
     49          1           0       -4.352822    1.939657    0.467614
     50          1           0       -5.407717    1.772944    1.868506
     51          1           0       -7.160787    2.968648    0.443710
     52          1           0       -9.074940    2.641873   -1.095676
     53          1           0       -9.261240    0.527022   -2.405449
     54          1           0       -7.533759   -1.229863   -2.153071
     55          1           0       -5.810944   -2.063264    0.028729
     56          1           0       -5.110220   -1.662126   -1.542760
     57          1           0       -1.786053    0.124501   -0.893499
     58          1           0        0.548422    0.810137   -0.491936
 ---------------------------------------------------------------------

 The electronic state is 1-A.
 Alpha  occ. eigenvalues --  -19.10611 -14.35734 -14.33141 -10.28436 -10.22596
 Alpha  occ. eigenvalues --  -10.21926 -10.21617 -10.20879 -10.20237 -10.20076
 Alpha  occ. eigenvalues --  -10.19995 -10.19317 -10.19306 -10.19212 -10.19177
 Alpha  occ. eigenvalues --  -10.19170 -10.18991 -10.18941 -10.18797 -10.18788
 Alpha  occ. eigenvalues --  -10.18744 -10.18723 -10.18624 -10.18579 -10.18538
 Alpha  occ. eigenvalues --  -10.18499 -10.18459 -10.18433 -10.18420 -10.18403
 Alpha  occ. eigenvalues --   -1.02576  -0.93555  -0.92337  -0.86257  -0.85636
 Alpha  occ. eigenvalues --   -0.85058  -0.80599  -0.78821  -0.77507  -0.76183
 Alpha  occ. eigenvalues --   -0.75152  -0.74848  -0.73596  -0.72634  -0.71505
 Alpha  occ. eigenvalues --   -0.69138  -0.65032  -0.64351  -0.62509  -0.61312
 Alpha  occ. eigenvalues --   -0.60616  -0.60463  -0.59760  -0.58540  -0.57644
 Alpha  occ. eigenvalues --   -0.55416  -0.54712  -0.52905  -0.50984  -0.50328
 Alpha  occ. eigenvalues --   -0.49122  -0.48521  -0.47884  -0.47019  -0.46184
 Alpha  occ. eigenvalues --   -0.45982  -0.45144  -0.44945  -0.44235  -0.43568
 Alpha  occ. eigenvalues --   -0.43492  -0.42942  -0.42611  -0.42268  -0.41402
 Alpha  occ. eigenvalues --   -0.41000  -0.40725  -0.40567  -0.40457  -0.39558
 Alpha  occ. eigenvalues --   -0.39084  -0.38061  -0.37846  -0.37619  -0.37365
 Alpha  occ. eigenvalues --   -0.36675  -0.35609  -0.35055  -0.34730  -0.34422
 Alpha  occ. eigenvalues --   -0.34223  -0.34043  -0.33339  -0.32725  -0.32555
 Alpha  occ. eigenvalues --   -0.31883  -0.31073  -0.25780  -0.25576  -0.24784
 Alpha  occ. eigenvalues --   -0.24431  -0.24271  -0.24024  -0.23537  -0.23303
 Alpha  occ. eigenvalues --   -0.22008
 Alpha virt. eigenvalues --   -0.03225  -0.00713  -0.00061   0.00337   0.00436
 Alpha virt. eigenvalues --    0.00522   0.06102   0.07802   0.09113   0.09268
 Alpha virt. eigenvalues --    0.10065   0.10486   0.11250   0.11374   0.11858

 Mulliken charges:
               1
     1  O   -0.523137
     2  C    0.561018
     3  N   -0.633094
     4  C   -0.040623
     5  C   -0.262932
     6  C   -0.268942
     7  C   -0.353928
     8  C    0.131513
     9  C   -0.199074
    10  C   -0.125415
    11  C   -0.131952
    12  C   -0.192470
    13  C    0.118112
    14  C    0.072171
    15  C   -0.157086
    16  C   -0.193425
    17  C    0.148818
    18  C   -0.184667
    19  N   -0.408087
    20  C   -0.144487
    21  C   -0.335048
    22  C    0.128082
    23  C   -0.191716
    24  C   -0.127633
    25  C   -0.132844
    26  C   -0.181663
    27  C    0.099851
    28  C   -0.181165
    29  C   -0.171742
    30  C   -0.190129
    31  H    0.323235
    32  H    0.195783
    33  H    0.150392
    34  H    0.128981
    35  H    0.141046
    36  H    0.144015
    37  H    0.141598
    38  H    0.156458
    39  H    0.122147
    40  H    0.126228
    41  H    0.126551
    42  H    0.121705
    43  H    0.163402
    44  H    0.130712
    45  H    0.121700
    46  H    0.155241
    47  H    0.117512
    48  H    0.154413
    49  H    0.160632
    50  H    0.144023
    51  H    0.121448
    52  H    0.126566
    53  H    0.126749
    54  H    0.119934
    55  H    0.127269
    56  H    0.150577
    57  H    0.146769
    58  H    0.126612
 Sum of Mulliken charges =  -0.00000

 Dipole moment (field-independent basis, Debye):
    X=             -1.2746    Y=              0.8851    Z=             -2.3716  Tot=              2.8342
 Quadrupole moment (field-independent basis, Debye-Ang):
   XX=           -164.3021   YY=           -166.8958   ZZ=           -180.4904
   XY=             10.1521   XZ=             -7.7945   YZ=              4.9331

 Normal termination of Gaussian 16 at Fri Nov  4 23:58:18 2022.
