 Gaussian 16, Revision B.01,
 Gaussian 16:  ES64L-G16RevB.01 20-Dec-2017

 -------------------------------------------------------------------
 #p b3lyp/6-31g(d) 6D 10F nosymm GFInput td=(50-50,nstate=2) SCF=XQC
 -------------------------------------------------------------------

 ------------------------------
 Gaussian input prepared by ASE
 ------------------------------
 Symbolic Z-matrix:
 Charge =  0 Multiplicity = 1

                          Input orientation:
 ---------------------------------------------------------------------
 Center     Atomic      Atomic             Coordinates (Angstroms)
 Number     Number       Type             X           Y           Z
 ---------------------------------------------------------------------
      1          8           0       -2.729526   -0.207845   -2.667852
      2          6           0       -2.289987   -0.124184   -1.523749
      3          7           0       -3.036738    0.361203   -0.481229
      4          6           0       -4.399576    0.843446   -0.637458
      5          6           0       -4.491145    2.332075   -0.207550
      6          6           0       -5.943196    2.881279   -0.153642
      7          6           0       -6.997000    1.830178   -0.566265
      8          6           0       -6.746553    0.515224    0.129782
      9          6           0       -7.745264   -0.199345    0.794261
     10          6           0       -7.457429   -1.416624    1.415545
     11          6           0       -6.160044   -1.925827    1.372515
     12          6           0       -5.152566   -1.215338    0.715025
     13          6           0       -5.433726    0.005079    0.098182
     14          6           0       -0.891750   -0.563474   -1.185223
     15          6           0       -0.272172   -1.465425   -2.058295
     16          6           0        1.022622   -1.913879   -1.809817
     17          6           0        1.735900   -1.468943   -0.690327
     18          6           0        3.125493   -2.000197   -0.390988
     19          7           0        4.050141   -0.969423    0.074053
     20          6           0        4.427305   -0.027598   -0.982078
     21          6           0        5.122486    1.184676   -0.362353
     22          6           0        6.228634    0.777549    0.588583
     23          6           0        7.216700    1.691864    0.977814
     24          6           0        8.226133    1.327767    1.865437
     25          6           0        8.259169    0.028763    2.379087
     26          6           0        7.281751   -0.886885    1.997726
     27          6           0        6.263577   -0.525755    1.106226
     28          6           0        5.238879   -1.561326    0.684435
     29          6           0        1.123757   -0.548481    0.170621
     30          6           0       -0.172322   -0.100683   -0.073102
     31          1           0       -2.661341    0.309203    0.455149
     32          1           0       -4.593865    0.774638   -1.713922
     33          1           0       -3.872887    2.918205   -0.895722
     34          1           0       -4.026270    2.423884    0.782407
     35          1           0       -6.040694    3.762819   -0.796961
     36          1           0       -6.169383    3.213384    0.865738
     37          1           0       -8.006043    2.199511   -0.351303
     38          1           0       -6.946574    1.683109   -1.655843
     39          1           0       -8.757032    0.199709    0.823024
     40          1           0       -8.243941   -1.964084    1.928280
     41          1           0       -5.929184   -2.875866    1.847262
     42          1           0       -4.145945   -1.621133    0.670616
     43          1           0       -0.822568   -1.795658   -2.933059
     44          1           0        1.488819   -2.616446   -2.497155
     45          1           0        3.514212   -2.537260   -1.279033
     46          1           0        3.050336   -2.750948    0.408355
     47          1           0        5.089924   -0.509211   -1.729566
     48          1           0        3.522043    0.288858   -1.508287
     49          1           0        4.373100    1.777759    0.179935
     50          1           0        5.521381    1.830654   -1.154886
     51          1           0        7.189846    2.702193    0.574175
     52          1           0        8.984326    2.050940    2.154107
     53          1           0        9.040624   -0.267161    3.073915
     54          1           0        7.304967   -1.899300    2.397051
     55          1           0        5.726539   -2.281168   -0.008286
     56          1           0        4.923506   -2.144232    1.559480
     57          1           0        1.685236   -0.172692    1.020678
     58          1           0       -0.602681    0.642426    0.593900
 ---------------------------------------------------------------------

 SCF Done:  E(RB3LYP) =  -1230.49574081     A.U. after   15 cycles

 Excitation energies and oscillator strengths:

 Excited state symmetry could not be determined.
 Excited State   1:      Triplet-?Sym    3.5195 eV  352.28 nm  f=0.0000  <S**2>=2.000
      98 ->107         0.17403
      98 ->108         0.21498
      99 ->107        -0.10623
      99 ->108         0.24066
     100 ->107         0.37196
     101 ->107         0.12198
     102 ->107         0.30390
     103 ->107        -0.19600
     105 ->107         0.11378
     106 ->107        -0.15317
 This state for optimization and/or second-order correction.
 Total Energy, E(TD-HF/TD-DFT) =  -1230.36640229
 Copying the excited state density for this state as the 1-particle RhoCI density.

 Excited state symmetry could not be determined.
 Excited State   2:      Triplet-?Sym    3.6958 eV  335.47 nm  f=0.0000  <S**2>=2.000
     101 ->109        -0.37733
     102 ->109         0.27160
     104 ->112         0.47101
     106 ->109         0.17662

 Excited state symmetry could not be determined.
 Excited State   3:      Singlet-?Sym    4.4190 eV  280.57 nm  f=0.0076  <S**2>=0.000
     106 ->107         0.68473

 Excited state symmetry could not be determined.
 Excited State   4:      Singlet-?Sym    4.5890 eV  270.17 nm  f=0.0078  <S**2>=0.000
      98 ->107        -0.16520
      99 ->107         0.27622
     101 ->107         0.28246
     102 ->107         0.29379
     103 ->107        -0.24253
     105 ->107         0.35727
     106 ->107         0.14116

 Alpha  occ. eigenvalues --  -19.10611 -14.35734 -14.33140 -10.28436 -10.22596
 Alpha  occ. eigenvalues --  -10.21926 -10.21617 -10.20879 -10.20237 -10.20076
 Alpha  occ. eigenvalues --  -10.19995 -10.19317 -10.19306 -10.19212 -10.19177
 Alpha  occ. eigenvalues --  -10.19171 -10.18991 -10.18941 -10.18797 -10.18788
 Alpha  occ. eigenvalues --  -10.18744 -10.18723 -10.18623 -10.18579 -10.18538
 Alpha  occ. eigenvalues --  -10.18499 -10.18459 -10.18433 -10.18420 -10.18403
 Alpha  occ. eigenvalues --   -1.02576  -0.93555  -0.92337  -0.86257  -0.85636
 Alpha  occ. eigenvalues --   -0.85058  -0.80599  -0.78821  -0.77507  -0.76183
 Alpha  occ. eigenvalues --   -0.75152  -0.74848  -0.73596  -0.72634  -0.71505
 Alpha  occ. eigenvalues --   -0.69138  -0.65032  -0.64351  -0.62509  -0.61312
 Alpha  occ. eigenvalues --   -0.60616  -0.60463  -0.59760  -0.58540  -0.57644
 Alpha  occ. eigenvalues --   -0.55416  -0.54712  -0.52905  -0.50984  -0.50328
 Alpha  occ. eigenvalues --   -0.49122  -0.48521  -0.47884  -0.47019  -0.46184
 Alpha  occ. eigenvalues --   -0.45982  -0.45144  -0.44945  -0.44235  -0.43568
 Alpha  occ. eigenvalues --   -0.43492  -0.42942  -0.42611  -0.42268  -0.41402
 Alpha  occ. eigenvalues --   -0.41000  -0.40725  -0.40567  -0.40457  -0.39558
 Alpha  occ. eigenvalues --   -0.39084  -0.38061  -0.37846  -0.37619  -0.37365
 Alpha  occ. eigenvalues --   -0.36675  -0.35609  -0.35055  -0.34730  -0.34422
 Alpha  occ. eigenvalues --   -0.34223  -0.34043  -0.33339  -0.32725  -0.32555
 Alpha  occ. eigenvalues --   -0.31883  -0.31073  -0.25780  -0.25576  -0.24784
 Alpha  occ. eigenvalues --   -0.24431  -0.24271  -0.24024  -0.23537  -0.23303
 Alpha  occ. eigenvalues --   -0.22008
 Alpha virt. eigenvalues --   -0.03226  -0.00713  -0.00061   0.00337   0.00436
 Alpha virt. eigenvalues --    0.00522   0.06102   0.07802   0.09113   0.09268
 Alpha virt. eigenvalues --    0.10065   0.10486   0.11250   0.11374   0.11858

 Mulliken charges:
               1
     1  O   -0.523129
     2  C    0.561007
     3  N   -0.633075
     4  C   -0.040647
     5  C   -0.262923
     6  C   -0.268947
     7  C   -0.353919
     8  C    0.131505
     9  C   -0.199078
    10  C   -0.125413
    11  C   -0.131955
    12  C   -0.192474
    13  C    0.118132
    14  C    0.072124
    15  C   -0.157068
    16  C   -0.193410
    17  C    0.148783
    18  C   -0.184660
    19  N   -0.408085
    20  C   -0.144510
    21  C   -0.335041
    22  C    0.128082
    23  C   -0.191710
    24  C   -0.127634
    25  C   -0.132845
    26  C   -0.181661
    27  C    0.099836
    28  C   -0.181153
    29  C   -0.171722
    30  C   -0.190102
    31  H    0.323233
    32  H    0.195783
    33  H    0.150391
    34  H    0.128981
    35  H    0.141046
    36  H    0.144016
    37  H    0.141597
    38  H    0.156458
    39  H    0.122147
    40  H    0.126228
    41  H    0.126550
    42  H    0.121705
    43  H    0.163401
    44  H    0.130711
    45  H    0.121698
    46  H    0.155240
    47  H    0.117514
    48  H    0.154417
    49  H    0.160638
    50  H    0.144024
    51  H    0.121447
    52  H    0.126566
    53  H    0.126749
    54  H    0.119933
    55  H    0.127269
    56  H    0.150577
    57  H    0.146765
    58  H    0.126611
 Sum of Mulliken charges =  -0.00000

 Dipole moment (field-independent basis, Debye):
    X=              1.1189    Y=              0.4124    Z=              2.5711  Tot=              2.8342
 Quadrupole moment (field-independent basis, Debye-Ang):
   XX=           -163.7034   YY=           -165.1573   ZZ=           -182.9621
   XY=             -8.5906   XZ=             -8.4103   YZ=             -2.7517

 Normal termination of Gaussian 16 at Sat Nov  5 10:11:45 2022.
