 Gaussian 16, Revision B.01,
 Gaussian 16:  ES64L-G16RevB.01 20-Dec-2017

 -------------------------------------------------------------------
 #p b3lyp/6-31g(d) 6D 10F nosymm GFInput td=(50-50,nstate=2) SCF=XQC
 -------------------------------------------------------------------

 ------------------------------
 Gaussian input prepared by ASE
 ------------------------------
 Symbolic Z-matrix:
 Charge =  0 Multiplicity = 1

                          Input orientation:
 ---------------------------------------------------------------------
 Center     Atomic      Atomic             Coordinates (Angstroms)
 Number     Number       Type             X           Y           Z
 ---------------------------------------------------------------------
      1          6           0      -10.124144   -4.131939    0.345268
      2          8           0       -9.991820   -2.854005   -0.259754
      3          6           0       -8.769619   -2.252872   -0.244830
      4          6           0       -8.700394   -0.993438   -0.857093
      5          6           0       -7.499306   -0.299600   -0.892657
      6          6           0       -6.328933   -0.836262   -0.321775
      7          6           0       -5.066440   -0.103480   -0.369826
      8          7           0       -3.967312   -0.578770    0.119754
      9          7           0       -2.953246    0.331225   -0.042943
     10          6           0       -1.638045   -0.035367    0.188290
     11          6           0       -0.582884    0.866582   -0.054694
     12          6           0        0.729978    0.480334    0.178954
     13          6           0        1.061155   -0.798705    0.662098
     14          6           0        2.460431   -1.136611    0.882756
     15          6           0        2.961439   -2.289591    1.384621
     16          6           0        4.378652   -2.556238    1.695081
     17          8           0        4.661748   -3.416715    2.529093
     18          6           0        5.485232   -1.789361    1.025260
     19          6           0        5.421432   -1.334624   -0.300033
     20          6           0        6.509152   -0.687894   -0.882878
     21          6           0        7.692594   -0.462937   -0.160736
     22          6           0        8.845671    0.237812   -0.779627
     23          6           0        8.648195    1.314640   -1.660998
     24          6           0        9.730399    1.972918   -2.242873
     25          6           0       11.035760    1.569019   -1.956544
     26          6           0       11.248178    0.500866   -1.083004
     27          6           0       10.165582   -0.156848   -0.501233
     28          6           0        7.753036   -0.931382    1.165046
     29          6           0        6.676517   -1.594138    1.740732
     30          6           0       -0.009546   -1.687716    0.902302
     31          6           0       -1.323954   -1.326158    0.673935
     32          6           0       -3.400158    1.592887   -0.674766
     33          6           0       -3.232961    2.813054    0.219728
     34          6           0       -3.444198    2.731999    1.601543
     35          6           0       -3.344554    3.872398    2.398319
     36          6           0       -3.034711    5.107592    1.824489
     37          6           0       -2.821186    5.195711    0.448316
     38          6           0       -2.918482    4.053161   -0.347839
     39          6           0       -4.886817    1.267967   -0.995437
     40          6           0       -6.416309   -2.099222    0.288963
     41          6           0       -7.614462   -2.804120    0.331027
     42          1           0       -9.887199   -4.097154    1.416596
     43          1           0       -9.482879   -4.877339   -0.142816
     44          1           0      -11.169959   -4.415885    0.216206
     45          1           0       -9.602321   -0.579934   -1.297063
     46          1           0       -7.472492    0.674551   -1.372557
     47          1           0       -0.786936    1.870976   -0.406307
     48          1           0        1.527388    1.194492   -0.014459
     49          1           0        3.162020   -0.344174    0.627737
     50          1           0        2.302009   -3.084952    1.724116
     51          1           0        4.532250   -1.522476   -0.893386
     52          1           0        6.451836   -0.381618   -1.923646
     53          1           0        7.637480    1.653986   -1.870178
     54          1           0        9.553358    2.808658   -2.914905
     55          1           0       11.879678    2.081901   -2.409939
     56          1           0       12.259816    0.172248   -0.859575
     57          1           0       10.342056   -1.003687    0.155959
     58          1           0        8.649197   -0.754657    1.753238
     59          1           0        6.735050   -1.967561    2.758147
     60          1           0        0.194491   -2.688228    1.272306
     61          1           0       -2.129286   -2.025785    0.857833
     62          1           0       -2.831243    1.750132   -1.599216
     63          1           0       -3.673396    1.770463    2.052682
     64          1           0       -3.505056    3.795132    3.470319
     65          1           0       -2.954409    5.994245    2.447382
     66          1           0       -2.572867    6.151101   -0.006219
     67          1           0       -2.746430    4.125858   -1.420103
     68          1           0       -5.079829    1.238813   -2.074529
     69          1           0       -5.561969    2.013370   -0.563387
     70          1           0       -5.525208   -2.527347    0.736197
     71          1           0       -7.640820   -3.775303    0.811859
 ---------------------------------------------------------------------

 SCF Done:  E(RB3LYP) =  -1687.92842418     A.U. after   16 cycles

 Excitation energies and oscillator strengths:

 Excited state symmetry could not be determined.
 Excited State   1:      Triplet-?Sym    2.0506 eV  604.63 nm  f=0.0000  <S**2>=2.000
     139 ->142        -0.11634
     139 ->144        -0.10638
     141 ->142         0.60847
     141 ->143        -0.25184
 This state for optimization and/or second-order correction.
 Total Energy, E(TD-HF/TD-DFT) =  -1687.85306720
 Copying the excited state density for this state as the 1-particle RhoCI density.

 Excited state symmetry could not be determined.
 Excited State   2:      Triplet-?Sym    2.4310 eV  510.01 nm  f=0.0000  <S**2>=2.000
     133 ->142        -0.11148
     139 ->142        -0.25428
     139 ->143         0.13508
     140 ->142        -0.14455
     141 ->142         0.13423
     141 ->143         0.50322
     141 ->144         0.27945

 Excited state symmetry could not be determined.
 Excited State   3:      Singlet-?Sym    2.9572 eV  419.26 nm  f=1.2564  <S**2>=0.000
     141 ->142         0.69807

 Excited state symmetry could not be determined.
 Excited State   4:      Singlet-?Sym    3.3395 eV  371.26 nm  f=0.0097  <S**2>=0.000
     138 ->142         0.51286
     138 ->143         0.13884
     140 ->142         0.41122

 Alpha  occ. eigenvalues --  -19.18733 -19.11094 -14.39754 -14.36844 -10.25688
 Alpha  occ. eigenvalues --  -10.25493 -10.25071 -10.24856 -10.23763 -10.23360
 Alpha  occ. eigenvalues --  -10.21317 -10.20789 -10.20284 -10.20126 -10.20097
 Alpha  occ. eigenvalues --  -10.20012 -10.20006 -10.19972 -10.19892 -10.19812
 Alpha  occ. eigenvalues --  -10.19811 -10.19793 -10.19726 -10.19633 -10.19292
 Alpha  occ. eigenvalues --  -10.19266 -10.19069 -10.19068 -10.19019 -10.18982
 Alpha  occ. eigenvalues --  -10.18947 -10.18934 -10.18894 -10.18870 -10.18826
 Alpha  occ. eigenvalues --  -10.18823 -10.18790 -10.18682 -10.18532 -10.18415
 Alpha  occ. eigenvalues --  -10.17903  -1.07310  -1.03909  -1.00899  -0.88637
 Alpha  occ. eigenvalues --   -0.86702  -0.86474  -0.85947  -0.84330  -0.83722
 Alpha  occ. eigenvalues --   -0.81048  -0.79030  -0.77589  -0.76466  -0.75746
 Alpha  occ. eigenvalues --   -0.75327  -0.74689  -0.74662  -0.74235  -0.73915
 Alpha  occ. eigenvalues --   -0.73040  -0.71773  -0.70260  -0.66483  -0.64294
 Alpha  occ. eigenvalues --   -0.62955  -0.62315  -0.61719  -0.61559  -0.61349
 Alpha  occ. eigenvalues --   -0.60348  -0.59261  -0.58850  -0.58198  -0.57023
 Alpha  occ. eigenvalues --   -0.55836  -0.54409  -0.53985  -0.53768  -0.52577
 Alpha  occ. eigenvalues --   -0.51978  -0.49898  -0.49145  -0.48736  -0.48365
 Alpha  occ. eigenvalues --   -0.47917  -0.47621  -0.47092  -0.46025  -0.45818
 Alpha  occ. eigenvalues --   -0.45598  -0.45229  -0.44548  -0.44228  -0.43870
 Alpha  occ. eigenvalues --   -0.43559  -0.43230  -0.42927  -0.42771  -0.42418
 Alpha  occ. eigenvalues --   -0.42156  -0.42090  -0.41705  -0.41421  -0.41286
 Alpha  occ. eigenvalues --   -0.40468  -0.40193  -0.39829  -0.38898  -0.38481
 Alpha  occ. eigenvalues --   -0.37999  -0.37872  -0.37008  -0.36794  -0.36569
 Alpha  occ. eigenvalues --   -0.36399  -0.36156  -0.35855  -0.35299  -0.35020
 Alpha  occ. eigenvalues --   -0.34685  -0.34474  -0.33980  -0.33455  -0.33246
 Alpha  occ. eigenvalues --   -0.33118  -0.32852  -0.30089  -0.29486  -0.27037
 Alpha  occ. eigenvalues --   -0.26037  -0.25967  -0.25704  -0.25534  -0.24951
 Alpha  occ. eigenvalues --   -0.24930  -0.24880  -0.23275  -0.22473  -0.21969
 Alpha  occ. eigenvalues --   -0.18024
 Alpha virt. eigenvalues --   -0.06116  -0.04012  -0.02439  -0.01333  -0.01226
 Alpha virt. eigenvalues --   -0.00758  -0.00177   0.00250   0.00285   0.01717
 Alpha virt. eigenvalues --    0.04597   0.05056   0.08309   0.08690   0.09276

 Mulliken charges:
               1
     1  C   -0.217906
     2  O   -0.504648
     3  C    0.383135
     4  C   -0.179168
     5  C   -0.200372
     6  C    0.133070
     7  C    0.281238
     8  N   -0.326978
     9  N   -0.400842
    10  C    0.362121
    11  C   -0.183244
    12  C   -0.210450
    13  C    0.176853
    14  C   -0.172772
    15  C   -0.209678
    16  C    0.375126
    17  O   -0.488079
    18  C    0.075679
    19  C   -0.185576
    20  C   -0.185569
    21  C    0.097305
    22  C    0.088455
    23  C   -0.172656
    24  C   -0.133669
    25  C   -0.126146
    26  C   -0.133733
    27  C   -0.172992
    28  C   -0.180179
    29  C   -0.160044
    30  C   -0.187887
    31  C   -0.169707
    32  C   -0.047717
    33  C    0.165406
    34  C   -0.176017
    35  C   -0.127887
    36  C   -0.127243
    37  C   -0.129613
    38  C   -0.186946
    39  C   -0.391292
    40  C   -0.181905
    41  C   -0.196497
    42  H    0.155675
    43  H    0.155843
    44  H    0.173372
    45  H    0.141612
    46  H    0.131322
    47  H    0.138062
    48  H    0.131182
    49  H    0.144806
    50  H    0.141997
    51  H    0.144424
    52  H    0.133534
    53  H    0.131327
    54  H    0.130117
    55  H    0.130015
    56  H    0.131716
    57  H    0.136209
    58  H    0.135271
    59  H    0.156168
    60  H    0.138069
    61  H    0.157665
    62  H    0.155668
    63  H    0.150415
    64  H    0.137785
    65  H    0.134911
    66  H    0.134559
    67  H    0.126446
    68  H    0.174163
    69  H    0.181665
    70  H    0.157726
    71  H    0.137299
 Sum of Mulliken charges =  -0.00000

 Dipole moment (field-independent basis, Debye):
    X=             -5.6682    Y=              3.9027    Z=             -2.8103  Tot=              7.4336
 Quadrupole moment (field-independent basis, Debye-Ang):
   XX=           -202.4439   YY=           -222.7068   ZZ=           -235.7151
   XY=             29.1600   XZ=            -14.7678   YZ=             -0.4744

 Normal termination of Gaussian 16 at Sat Nov  5 10:12:01 2022.
