 Gaussian 16, Revision B.01,
 Gaussian 16:  ES64L-G16RevB.01 20-Dec-2017

 -----------------------------
 #p b3lyp/6-31g(d) opt SCF=XQC
 -----------------------------

 ------------------------------
 Gaussian input prepared by ASE
 ------------------------------
 Symbolic Z-matrix:
 Charge =  0 Multiplicity = 1

 SCF Done:  E(RB3LYP) =  -1687.91864142     A.U. after   16 cycles
 SCF Done:  E(RB3LYP) =  -1687.92722748     A.U. after   12 cycles
 SCF Done:  E(RB3LYP) =  -1687.92756915     A.U. after   13 cycles
 SCF Done:  E(RB3LYP) =  -1687.92824675     A.U. after   12 cycles
 SCF Done:  E(RB3LYP) =  -1687.92830649     A.U. after   11 cycles
 SCF Done:  E(RB3LYP) =  -1687.92836662     A.U. after   11 cycles
 SCF Done:  E(RB3LYP) =  -1687.92840434     A.U. after   10 cycles
 SCF Done:  E(RB3LYP) =  -1687.92842093     A.U. after   10 cycles
 SCF Done:  E(RB3LYP) =  -1687.92842410     A.U. after   10 cycles
 SCF Done:  E(RB3LYP) =  -1687.92842491     A.U. after    8 cycles
 SCF Done:  E(RB3LYP) =  -1687.92842582     A.U. after    9 cycles
 SCF Done:  E(RB3LYP) =  -1687.92842623     A.U. after    8 cycles
 SCF Done:  E(RB3LYP) =  -1687.92842652     A.U. after    8 cycles
 SCF Done:  E(RB3LYP) =  -1687.92842672     A.U. after    7 cycles
 SCF Done:  E(RB3LYP) =  -1687.92842681     A.U. after    7 cycles
 SCF Done:  E(RB3LYP) =  -1687.92842682     A.U. after    7 cycles
 Optimization completed.
    -- Stationary point found.

                         Standard orientation:
 ---------------------------------------------------------------------
 Center     Atomic      Atomic             Coordinates (Angstroms)
 Number     Number       Type             X           Y           Z
 ---------------------------------------------------------------------
      1          6           0      -10.327993   -3.651873   -0.405880
      2          8           0      -10.136933   -2.327126   -0.880452
      3          6           0       -8.895399   -1.775605   -0.781572
      4          6           0       -8.767847   -0.466239   -1.266464
      5          6           0       -7.542977    0.183150   -1.209215
      6          6           0       -6.406043   -0.448903   -0.669239
      7          6           0       -5.118173    0.238170   -0.619340
      8          7           0       -4.048328   -0.322354   -0.155752
      9          7           0       -2.999758    0.561209   -0.207794
     10          6           0       -1.704011    0.125852    0.013826
     11          6           0       -0.612714    1.007669   -0.118034
     12          6           0        0.679958    0.552614    0.104024
     13          6           0        0.954903   -0.778482    0.466842
     14          6           0        2.335897   -1.187374    0.682486
     15          6           0        2.784427   -2.401144    1.079757
     16          6           0        4.183631   -2.748510    1.392079
     17          8           0        4.416505   -3.695475    2.143855
     18          6           0        5.331976   -1.961628    0.823399
     19          6           0        5.316083   -1.378749   -0.452241
     20          6           0        6.439322   -0.719090   -0.946492
     21          6           0        7.611982   -0.608733   -0.181430
     22          6           0        8.803262    0.105739   -0.704922
     23          6           0        8.664561    1.269328   -1.480933
     24          6           0        9.782666    1.940580   -1.973208
     25          6           0       11.065956    1.463148   -1.700609
     26          6           0       11.220077    0.308396   -0.931233
     27          6           0       10.101602   -0.362272   -0.439015
     28          6           0        7.624035   -1.205170    1.093288
     29          6           0        6.511606   -1.880488    1.579086
     30          6           0       -0.151406   -1.646590    0.596877
     31          6           0       -1.446604   -1.216546    0.377632
     32          6           0       -3.387331    1.893663   -0.722648
     33          6           0       -3.199776    3.014573    0.289904
     34          6           0       -3.447123    2.808013    1.652533
     35          6           0       -3.327451    3.861523    2.558670
     36          6           0       -2.961264    5.134215    2.114650
     37          6           0       -2.711524    5.347171    0.758373
     38          6           0       -2.828940    4.291374   -0.147308
     39          6           0       -4.876126    1.656181   -1.104292
     40          6           0       -6.551815   -1.760963   -0.186586
     41          6           0       -7.774291   -2.422089   -0.238385
     42          1           0      -10.116025   -3.729651    0.668418
     43          1           0       -9.701242   -4.369620   -0.950941
     44          1           0      -11.379564   -3.883351   -0.583718
     45          1           0       -9.644007    0.020780   -1.682623
     46          1           0       -7.470871    1.197519   -1.591119
     47          1           0       -0.773331    2.048193   -0.374134
     48          1           0        1.506039    1.252331   -0.002188
     49          1           0        3.070443   -0.400315    0.520622
     50          1           0        2.089855   -3.200836    1.326264
     51          1           0        4.435581   -1.475482   -1.079426
     52          1           0        6.417876   -0.311644   -1.953377
     53          1           0        7.671552    1.664255   -1.676948
     54          1           0        9.650970    2.843369   -2.564023
     55          1           0       11.937845    1.986116   -2.084179
     56          1           0       12.214033   -0.077273   -0.719975
     57          1           0       10.232707   -1.274642    0.135940
     58          1           0        8.511249   -1.119261    1.714398
     59          1           0        6.532512   -2.352505    2.556208
     60          1           0        0.008886   -2.685032    0.871654
     61          1           0       -2.279866   -1.900598    0.475630
     62          1           0       -2.791077    2.118596   -1.615333
     63          1           0       -3.720299    1.816417    2.002847
     64          1           0       -3.516466    3.686845    3.614451
     65          1           0       -2.865475    5.952879    2.822613
     66          1           0       -2.419374    6.332281    0.404476
     67          1           0       -2.628536    4.461111   -1.203558
     68          1           0       -5.043815    1.738697   -2.184853
     69          1           0       -5.535374    2.380599   -0.615689
     70          1           0       -5.687153   -2.262829    0.235150
     71          1           0       -7.845863   -3.433612    0.144744
 ---------------------------------------------------------------------

 The electronic state is 1-A.
 Alpha  occ. eigenvalues --  -19.18733 -19.11094 -14.39754 -14.36844 -10.25688
 Alpha  occ. eigenvalues --  -10.25493 -10.25071 -10.24856 -10.23763 -10.23360
 Alpha  occ. eigenvalues --  -10.21317 -10.20789 -10.20284 -10.20125 -10.20097
 Alpha  occ. eigenvalues --  -10.20012 -10.20006 -10.19972 -10.19892 -10.19812
 Alpha  occ. eigenvalues --  -10.19811 -10.19793 -10.19726 -10.19633 -10.19292
 Alpha  occ. eigenvalues --  -10.19266 -10.19069 -10.19068 -10.19019 -10.18982
 Alpha  occ. eigenvalues --  -10.18947 -10.18934 -10.18894 -10.18870 -10.18826
 Alpha  occ. eigenvalues --  -10.18823 -10.18790 -10.18682 -10.18532 -10.18415
 Alpha  occ. eigenvalues --  -10.17903  -1.07310  -1.03909  -1.00899  -0.88637
 Alpha  occ. eigenvalues --   -0.86702  -0.86474  -0.85947  -0.84330  -0.83722
 Alpha  occ. eigenvalues --   -0.81048  -0.79030  -0.77589  -0.76466  -0.75746
 Alpha  occ. eigenvalues --   -0.75327  -0.74689  -0.74662  -0.74235  -0.73915
 Alpha  occ. eigenvalues --   -0.73040  -0.71773  -0.70260  -0.66483  -0.64294
 Alpha  occ. eigenvalues --   -0.62955  -0.62315  -0.61719  -0.61559  -0.61349
 Alpha  occ. eigenvalues --   -0.60348  -0.59261  -0.58850  -0.58198  -0.57023
 Alpha  occ. eigenvalues --   -0.55836  -0.54409  -0.53985  -0.53768  -0.52577
 Alpha  occ. eigenvalues --   -0.51978  -0.49898  -0.49145  -0.48736  -0.48365
 Alpha  occ. eigenvalues --   -0.47917  -0.47621  -0.47092  -0.46025  -0.45818
 Alpha  occ. eigenvalues --   -0.45598  -0.45229  -0.44548  -0.44228  -0.43871
 Alpha  occ. eigenvalues --   -0.43559  -0.43230  -0.42927  -0.42771  -0.42418
 Alpha  occ. eigenvalues --   -0.42156  -0.42090  -0.41705  -0.41421  -0.41286
 Alpha  occ. eigenvalues --   -0.40468  -0.40193  -0.39829  -0.38898  -0.38481
 Alpha  occ. eigenvalues --   -0.37999  -0.37872  -0.37008  -0.36794  -0.36569
 Alpha  occ. eigenvalues --   -0.36399  -0.36156  -0.35855  -0.35299  -0.35020
 Alpha  occ. eigenvalues --   -0.34685  -0.34474  -0.33980  -0.33455  -0.33246
 Alpha  occ. eigenvalues --   -0.33118  -0.32852  -0.30089  -0.29486  -0.27037
 Alpha  occ. eigenvalues --   -0.26037  -0.25967  -0.25704  -0.25534  -0.24951
 Alpha  occ. eigenvalues --   -0.24930  -0.24880  -0.23275  -0.22473  -0.21969
 Alpha  occ. eigenvalues --   -0.18024
 Alpha virt. eigenvalues --   -0.06116  -0.04012  -0.02439  -0.01333  -0.01227
 Alpha virt. eigenvalues --   -0.00758  -0.00177   0.00250   0.00285   0.01717
 Alpha virt. eigenvalues --    0.04597   0.05056   0.08309   0.08690   0.09276

 Mulliken charges:
               1
     1  C   -0.217913
     2  O   -0.504648
     3  C    0.383138
     4  C   -0.179163
     5  C   -0.200381
     6  C    0.133074
     7  C    0.281222
     8  N   -0.326967
     9  N   -0.400858
    10  C    0.362136
    11  C   -0.183242
    12  C   -0.210449
    13  C    0.176853
    14  C   -0.172777
    15  C   -0.209671
    16  C    0.375123
    17  O   -0.488079
    18  C    0.075669
    19  C   -0.185573
    20  C   -0.185563
    21  C    0.097297
    22  C    0.088453
    23  C   -0.172662
    24  C   -0.133667
    25  C   -0.126140
    26  C   -0.133744
    27  C   -0.172985
    28  C   -0.180174
    29  C   -0.160037
    30  C   -0.187888
    31  C   -0.169715
    32  C   -0.047701
    33  C    0.165417
    34  C   -0.176033
    35  C   -0.127884
    36  C   -0.127237
    37  C   -0.129614
    38  C   -0.186954
    39  C   -0.391293
    40  C   -0.181899
    41  C   -0.196500
    42  H    0.155678
    43  H    0.155844
    44  H    0.173374
    45  H    0.141610
    46  H    0.131323
    47  H    0.138060
    48  H    0.131182
    49  H    0.144806
    50  H    0.141996
    51  H    0.144425
    52  H    0.133535
    53  H    0.131326
    54  H    0.130117
    55  H    0.130015
    56  H    0.131716
    57  H    0.136209
    58  H    0.135272
    59  H    0.156168
    60  H    0.138069
    61  H    0.157667
    62  H    0.155667
    63  H    0.150418
    64  H    0.137785
    65  H    0.134910
    66  H    0.134559
    67  H    0.126446
    68  H    0.174163
    69  H    0.181666
    70  H    0.157724
    71  H    0.137298
 Sum of Mulliken charges =  -0.00000

 Dipole moment (field-independent basis, Debye):
    X=             -5.4601    Y=              4.3621    Z=             -2.5332  Tot=              7.4336
 Quadrupole moment (field-independent basis, Debye-Ang):
   XX=           -199.0834   YY=           -223.9094   ZZ=           -235.4718
   XY=             28.6746   XZ=            -10.1925   YZ=              0.9446

 Normal termination of Gaussian 16 at Sat Nov  5 00:10:04 2022.
