 Gaussian 16, Revision B.01,
 Gaussian 16:  ES64L-G16RevB.01 20-Dec-2017

 -----------------------------
 #p b3lyp/6-31g(d) opt SCF=XQC
 -----------------------------

 ------------------------------
 Gaussian input prepared by ASE
 ------------------------------
 Symbolic Z-matrix:
 Charge =  0 Multiplicity = 1

 SCF Done:  E(RB3LYP) =  -848.152772797     A.U. after   14 cycles
 SCF Done:  E(RB3LYP) =  -848.156536072     A.U. after   12 cycles
 SCF Done:  E(RB3LYP) =  -848.157205258     A.U. after   11 cycles
 SCF Done:  E(RB3LYP) =  -848.157840631     A.U. after   11 cycles
 SCF Done:  E(RB3LYP) =  -848.157861147     A.U. after   10 cycles
 SCF Done:  E(RB3LYP) =  -848.157865279     A.U. after    9 cycles
 SCF Done:  E(RB3LYP) =  -848.157867214     A.U. after    7 cycles
 SCF Done:  E(RB3LYP) =  -848.157867650     A.U. after    8 cycles
 SCF Done:  E(RB3LYP) =  -848.157867739     A.U. after    7 cycles
 SCF Done:  E(RB3LYP) =  -848.157867762     A.U. after    7 cycles
 Optimization completed.
    -- Stationary point found.

                         Standard orientation:
 ---------------------------------------------------------------------
 Center     Atomic      Atomic             Coordinates (Angstroms)
 Number     Number       Type             X           Y           Z
 ---------------------------------------------------------------------
      1          6           0        5.913261    1.022187    0.469054
      2          8           0        5.075027    0.551298   -0.571562
      3          6           0        3.815547    0.129470   -0.243328
      4          6           0        3.285580    0.130074    1.050615
      5          6           0        1.977967   -0.322831    1.257943
      6          6           0        1.180723   -0.776713    0.206986
      7          6           0       -0.213088   -1.350676    0.474230
      8          6           0       -0.068690   -2.876267    0.643016
      9          7           0       -1.163817   -0.963723   -0.591788
     10          6           0       -2.225649   -1.909284   -0.967165
     11          6           0       -3.434272   -1.923148   -0.016517
     12          7           0       -3.964838   -0.563043    0.123743
     13          6           0       -2.925765    0.356147    0.610351
     14          6           0       -3.496212    1.772799    0.867714
     15          6           0       -3.159878    2.749925   -0.265384
     16          6           0       -1.631428    2.890796   -0.449039
     17          6           0       -0.861206    1.560822   -0.211882
     18          6           0       -1.793748    0.368787   -0.448939
     19          6           0        1.730788   -0.769577   -1.083949
     20          6           0        3.026370   -0.323937   -1.311291
     21          1           0        6.103472    0.243768    1.220533
     22          1           0        5.485851    1.903115    0.967189
     23          1           0        6.855877    1.300500   -0.006461
     24          1           0        3.867968    0.481909    1.894831
     25          1           0        1.576374   -0.314368    2.270063
     26          1           0       -0.541365   -0.962674    1.454208
     27          1           0        0.698559   -3.074308    1.397640
     28          1           0       -0.997288   -3.352123    0.974935
     29          1           0        0.257872   -3.349877   -0.289410
     30          1           0       -1.817112   -2.915922   -1.070859
     31          1           0       -2.583567   -1.606529   -1.960411
     32          1           0       -4.218107   -2.569698   -0.431262
     33          1           0       -3.129247   -2.357279    0.956480
     34          1           0       -4.742078   -0.571076    0.783497
     35          1           0       -2.488254   -0.015749    1.558681
     36          1           0       -4.583402    1.710401    1.009546
     37          1           0       -3.083186    2.161369    1.808053
     38          1           0       -3.620145    2.387807   -1.192924
     39          1           0       -3.605343    3.732152   -0.065935
     40          1           0       -1.247030    3.653749    0.239348
     41          1           0       -1.426487    3.262001   -1.460817
     42          1           0       -0.468303    1.532251    0.812016
     43          1           0        0.005984    1.501513   -0.874255
     44          1           0       -2.289498    0.536201   -1.414843
     45          1           0        1.114669   -1.098797   -1.915322
     46          1           0        3.452358   -0.312794   -2.310191
 ---------------------------------------------------------------------

 The electronic state is 1-A.
 Alpha  occ. eigenvalues --  -19.17091 -14.31347 -14.31005 -10.23776 -10.23683
 Alpha  occ. eigenvalues --  -10.21395 -10.19969 -10.19918 -10.19788 -10.19723
 Alpha  occ. eigenvalues --  -10.18140 -10.18031 -10.17620 -10.17569 -10.17554
 Alpha  occ. eigenvalues --  -10.17515 -10.17455 -10.17308 -10.17244 -10.16769
 Alpha  occ. eigenvalues --   -1.05640  -0.92750  -0.87967  -0.84071  -0.80967
 Alpha  occ. eigenvalues --   -0.77181  -0.73994  -0.73527  -0.72897  -0.71995
 Alpha  occ. eigenvalues --   -0.68454  -0.67108  -0.62487  -0.61369  -0.60254
 Alpha  occ. eigenvalues --   -0.59440  -0.57646  -0.54858  -0.52787  -0.51935
 Alpha  occ. eigenvalues --   -0.49570  -0.48013  -0.47281  -0.46755  -0.46278
 Alpha  occ. eigenvalues --   -0.45726  -0.44310  -0.43923  -0.43445  -0.42863
 Alpha  occ. eigenvalues --   -0.41687  -0.41074  -0.40233  -0.39645  -0.39305
 Alpha  occ. eigenvalues --   -0.37758  -0.37176  -0.36899  -0.36524  -0.35747
 Alpha  occ. eigenvalues --   -0.35311  -0.34769  -0.34450  -0.34234  -0.33809
 Alpha  occ. eigenvalues --   -0.32626  -0.31735  -0.31022  -0.29811  -0.29444
 Alpha  occ. eigenvalues --   -0.29242  -0.24127  -0.22247  -0.20769  -0.18881
 Alpha virt. eigenvalues --    0.00654   0.02008   0.08170   0.09325   0.09891
 Alpha virt. eigenvalues --    0.10065   0.10929   0.11609   0.12659   0.13693
 Alpha virt. eigenvalues --    0.13868   0.14338   0.14743   0.15182   0.15843

 Mulliken charges:
               1
     1  C   -0.212151
     2  O   -0.508515
     3  C    0.372722
     4  C   -0.196071
     5  C   -0.199922
     6  C    0.168479
     7  C   -0.017533
     8  C   -0.469066
     9  N   -0.424935
    10  C   -0.139273
    11  C   -0.134564
    12  N   -0.566878
    13  C    0.048872
    14  C   -0.281633
    15  C   -0.265649
    16  C   -0.268342
    17  C   -0.290583
    18  C    0.039293
    19  C   -0.177806
    20  C   -0.174862
    21  H    0.149152
    22  H    0.149264
    23  H    0.167137
    24  H    0.126150
    25  H    0.117207
    26  H    0.114729
    27  H    0.153359
    28  H    0.146265
    29  H    0.156301
    30  H    0.141935
    31  H    0.145425
    32  H    0.132799
    33  H    0.110544
    34  H    0.289363
    35  H    0.100067
    36  H    0.129146
    37  H    0.129979
    38  H    0.147094
    39  H    0.128720
    40  H    0.131060
    41  H    0.135407
    42  H    0.132499
    43  H    0.158701
    44  H    0.135531
    45  H    0.136979
    46  H    0.133604
 Sum of Mulliken charges =  -0.00000

 Dipole moment (field-independent basis, Debye):
    X=              0.0963    Y=              0.0097    Z=              2.2528  Tot=              2.2549
 Quadrupole moment (field-independent basis, Debye-Ang):
   XX=           -112.9446   YY=           -119.5789   ZZ=           -118.9963
   XY=              5.8552   XZ=              2.3616   YZ=              1.3718

 Normal termination of Gaussian 16 at Fri Nov  4 18:39:55 2022.
