 Gaussian 16, Revision B.01,
 Gaussian 16:  ES64L-G16RevB.01 20-Dec-2017

 -------------------------------------------------------------------
 #p b3lyp/6-31g(d) 6D 10F nosymm GFInput td=(50-50,nstate=2) SCF=XQC
 -------------------------------------------------------------------

 ------------------------------
 Gaussian input prepared by ASE
 ------------------------------
 Symbolic Z-matrix:
 Charge =  0 Multiplicity = 1

                          Input orientation:
 ---------------------------------------------------------------------
 Center     Atomic      Atomic             Coordinates (Angstroms)
 Number     Number       Type             X           Y           Z
 ---------------------------------------------------------------------
      1          6           0        5.634578    2.638288   -0.325397
      2          8           0        4.989833    1.648171   -1.107206
      3          6           0        3.877950    1.041652   -0.589693
      4          6           0        3.321696    1.328026    0.660797
      5          6           0        2.176030    0.640884    1.077023
      6          6           0        1.566585   -0.326409    0.277625
      7          6           0        0.368115   -1.126349    0.794665
      8          6           0        0.908598   -2.416320    1.443220
      9          7           0       -0.613142   -1.376508   -0.284486
     10          6           0       -1.369969   -2.637269   -0.271285
     11          6           0       -2.563804   -2.655744    0.697792
     12          7           0       -3.442910   -1.515991    0.416376
     13          6           0       -2.704888   -0.248567    0.518012
     14          6           0       -3.641638    0.970465    0.330899
     15          6           0       -3.538629    1.572636   -1.075723
     16          6           0       -2.097801    2.042782   -1.380206
     17          6           0       -1.009277    1.117615   -0.765797
     18          6           0       -1.580663   -0.287113   -0.548923
     19          6           0        2.140021   -0.599478   -0.973670
     20          6           0        3.276748    0.071324   -1.405745
     21          1           0        5.999073    2.229590    0.626940
     22          1           0        4.970128    3.488349   -0.118625
     23          1           0        6.484834    2.982724   -0.917448
     24          1           0        3.758781    2.078173    1.310336
     25          1           0        1.751262    0.875542    2.051827
     26          1           0       -0.086260   -0.538744    1.611324
     27          1           0        1.673712   -2.145588    2.177149
     28          1           0        0.129665   -2.983427    1.963369
     29          1           0        1.382502   -3.066376    0.699439
     30          1           0       -0.704062   -3.476604   -0.063779
     31          1           0       -1.760414   -2.783635   -1.287373
     32          1           0       -3.131364   -3.585025    0.560864
     33          1           0       -2.188500   -2.649117    1.740546
     34          1           0       -4.212586   -1.511152    1.084969
     35          1           0       -2.217742   -0.158698    1.509811
     36          1           0       -4.676993    0.674015    0.545722
     37          1           0       -3.380861    1.740903    1.068621
     38          1           0       -3.852417    0.817947   -1.807356
     39          1           0       -4.236964    2.411589   -1.182845
     40          1           0       -1.955665    3.062347   -1.000704
     41          1           0       -1.963814    2.100726   -2.467486
     42          1           0       -0.659441    1.531931    0.187886
     43          1           0       -0.134900    1.074548   -1.419926
     44          1           0       -2.068670   -0.583548   -1.487401
     45          1           0        1.663958   -1.333781   -1.616580
     46          1           0        3.719305   -0.134779   -2.375825
 ---------------------------------------------------------------------

 SCF Done:  E(RB3LYP) =  -848.157850763     A.U. after   14 cycles

 Excitation energies and oscillator strengths:

 Excited state symmetry could not be determined.
 Excited State   1:      Triplet-?Sym    3.6717 eV  337.67 nm  f=0.0000  <S**2>=2.000
      72 -> 76         0.39216
      74 -> 76        -0.22912
      74 -> 77         0.47816
      75 -> 77         0.22325
 This state for optimization and/or second-order correction.
 Total Energy, E(TD-HF/TD-DFT) =  -848.022917700
 Copying the excited state density for this state as the 1-particle RhoCI density.

 Excited state symmetry could not be determined.
 Excited State   2:      Triplet-?Sym    4.0986 eV  302.51 nm  f=0.0000  <S**2>=2.000
      72 -> 77         0.10413
      74 -> 76         0.55569
      74 -> 77         0.17185
      75 -> 76         0.36179
      75 -> 77         0.10065

 Excited state symmetry could not be determined.
 Excited State   3:      Singlet-?Sym    4.6059 eV  269.19 nm  f=0.0121  <S**2>=0.000
      75 -> 76         0.69980

 Excited state symmetry could not be determined.
 Excited State   4:      Singlet-?Sym    4.9354 eV  251.21 nm  f=0.0076  <S**2>=0.000
      74 -> 77        -0.10799
      75 -> 77         0.68991

 Alpha  occ. eigenvalues --  -19.17091 -14.31347 -14.31005 -10.23776 -10.23683
 Alpha  occ. eigenvalues --  -10.21395 -10.19969 -10.19918 -10.19788 -10.19723
 Alpha  occ. eigenvalues --  -10.18140 -10.18031 -10.17620 -10.17568 -10.17554
 Alpha  occ. eigenvalues --  -10.17515 -10.17455 -10.17307 -10.17244 -10.16768
 Alpha  occ. eigenvalues --   -1.05640  -0.92750  -0.87967  -0.84071  -0.80967
 Alpha  occ. eigenvalues --   -0.77181  -0.73994  -0.73527  -0.72897  -0.71995
 Alpha  occ. eigenvalues --   -0.68454  -0.67108  -0.62487  -0.61369  -0.60254
 Alpha  occ. eigenvalues --   -0.59440  -0.57646  -0.54858  -0.52787  -0.51935
 Alpha  occ. eigenvalues --   -0.49570  -0.48013  -0.47281  -0.46755  -0.46278
 Alpha  occ. eigenvalues --   -0.45726  -0.44310  -0.43923  -0.43445  -0.42863
 Alpha  occ. eigenvalues --   -0.41687  -0.41074  -0.40233  -0.39645  -0.39305
 Alpha  occ. eigenvalues --   -0.37758  -0.37176  -0.36899  -0.36524  -0.35747
 Alpha  occ. eigenvalues --   -0.35311  -0.34769  -0.34450  -0.34234  -0.33809
 Alpha  occ. eigenvalues --   -0.32626  -0.31735  -0.31022  -0.29811  -0.29444
 Alpha  occ. eigenvalues --   -0.29242  -0.24127  -0.22247  -0.20768  -0.18882
 Alpha virt. eigenvalues --    0.00654   0.02008   0.08170   0.09325   0.09891
 Alpha virt. eigenvalues --    0.10065   0.10929   0.11609   0.12659   0.13693
 Alpha virt. eigenvalues --    0.13868   0.14338   0.14743   0.15182   0.15843

 Mulliken charges:
               1
     1  C   -0.212159
     2  O   -0.508521
     3  C    0.372761
     4  C   -0.196099
     5  C   -0.199912
     6  C    0.168503
     7  C   -0.017509
     8  C   -0.469060
     9  N   -0.425007
    10  C   -0.139253
    11  C   -0.134521
    12  N   -0.566921
    13  C    0.048895
    14  C   -0.281647
    15  C   -0.265636
    16  C   -0.268353
    17  C   -0.290562
    18  C    0.039331
    19  C   -0.177832
    20  C   -0.174859
    21  H    0.149152
    22  H    0.149266
    23  H    0.167139
    24  H    0.126151
    25  H    0.117204
    26  H    0.114728
    27  H    0.153356
    28  H    0.146259
    29  H    0.156299
    30  H    0.141933
    31  H    0.145423
    32  H    0.132793
    33  H    0.110533
    34  H    0.289365
    35  H    0.100062
    36  H    0.129148
    37  H    0.129980
    38  H    0.147093
    39  H    0.128719
    40  H    0.131059
    41  H    0.135406
    42  H    0.132495
    43  H    0.158695
    44  H    0.135522
    45  H    0.136979
    46  H    0.133603
 Sum of Mulliken charges =  -0.00000

 Dipole moment (field-independent basis, Debye):
    X=              0.0105    Y=              0.7750    Z=              2.1175  Tot=              2.2549
 Quadrupole moment (field-independent basis, Debye-Ang):
   XX=           -116.5665   YY=           -115.0313   ZZ=           -120.3643
   XY=              7.1179   XZ=              0.1791   YZ=              0.7712

 Normal termination of Gaussian 16 at Sat Nov  5 11:32:54 2022.
