 Gaussian 16, Revision B.01,
 Gaussian 16:  ES64L-G16RevB.01 20-Dec-2017

 -----------------------------
 #p b3lyp/6-31g(d) opt SCF=XQC
 -----------------------------

 ------------------------------
 Gaussian input prepared by ASE
 ------------------------------
 Symbolic Z-matrix:
 Charge =  0 Multiplicity = 1

 SCF Done:  E(RB3LYP) =  -1322.92481379     A.U. after   17 cycles
 SCF Done:  E(RB3LYP) =  -1322.92835564     A.U. after   12 cycles
 SCF Done:  E(RB3LYP) =  -1322.93153087     A.U. after   12 cycles
 SCF Done:  E(RB3LYP) =  -1322.93300139     A.U. after   12 cycles
 SCF Done:  E(RB3LYP) =  -1322.93205917     A.U. after   12 cycles
 SCF Done:  E(RB3LYP) =  -1322.93333878     A.U. after   11 cycles
 SCF Done:  E(RB3LYP) =  -1322.93340855     A.U. after   11 cycles
 SCF Done:  E(RB3LYP) =  -1322.93341644     A.U. after   11 cycles
 SCF Done:  E(RB3LYP) =  -1322.93345129     A.U. after   10 cycles
 SCF Done:  E(RB3LYP) =  -1322.93345660     A.U. after    9 cycles
 SCF Done:  E(RB3LYP) =  -1322.93346003     A.U. after    8 cycles
 SCF Done:  E(RB3LYP) =  -1322.93346125     A.U. after    8 cycles
 SCF Done:  E(RB3LYP) =  -1322.93346194     A.U. after    7 cycles
 SCF Done:  E(RB3LYP) =  -1322.93346266     A.U. after    8 cycles
 SCF Done:  E(RB3LYP) =  -1322.93346328     A.U. after    8 cycles
 SCF Done:  E(RB3LYP) =  -1322.93346350     A.U. after    7 cycles
 SCF Done:  E(RB3LYP) =  -1322.93346354     A.U. after    6 cycles
 Optimization completed.
    -- Stationary point found.

                         Standard orientation:
 ---------------------------------------------------------------------
 Center     Atomic      Atomic             Coordinates (Angstroms)
 Number     Number       Type             X           Y           Z
 ---------------------------------------------------------------------
      1          6           0       -7.152376   -0.834015    1.311638
      2          6           0       -6.631007   -0.923640   -0.115448
      3          8           0       -5.189958   -1.019238   -0.144645
      4          6           0       -4.509672    0.137383   -0.096606
      5          8           0       -5.049646    1.234383   -0.036201
      6          6           0       -3.034167   -0.044665   -0.129912
      7          6           0       -2.323801    1.129587   -0.089909
      8          7           0       -0.971851    1.272970   -0.106680
      9          6           0       -0.347257    2.661488   -0.063111
     10          6           0        0.467157    2.893181   -1.351027
     11          6           0        0.514939    2.796234    1.207686
     12          6           0       -1.430962    3.754373   -0.001328
     13          6           0       -0.196886    0.091873   -0.166642
     14          7           0        1.139653    0.206504   -0.170774
     15          6           0        1.917871   -0.885369   -0.226438
     16          7           0        3.268574   -0.692293   -0.219411
     17          6           0        3.847549    0.653753   -0.272945
     18          6           0        5.354159    0.397854   -0.437351
     19          6           0        6.239576    1.560119    0.005716
     20          6           0        5.560395   -0.943583    0.322548
     21          7           0        5.654070   -0.869094    1.783546
     22          6           0        4.305368   -1.733749   -0.076119
     23          6           0        1.313753   -2.173778   -0.304050
     24          9           0        2.089667   -3.280882   -0.415928
     25          6           0       -0.044847   -2.296884   -0.288521
     26          6           0       -0.857222   -1.150338   -0.211965
     27          6           0       -2.327385   -1.323262   -0.197539
     28          8           0       -2.834160   -2.444872   -0.239769
     29          1           0       -8.248693   -0.850996    1.310053
     30          1           0       -6.823266    0.096338    1.782845
     31          1           0       -6.794831   -1.680120    1.907359
     32          1           0       -6.966913   -1.841089   -0.604911
     33          1           0       -6.944209   -0.058878   -0.705800
     34          1           0       -2.907588    2.034511   -0.040230
     35          1           0        1.275739    2.170971   -1.449504
     36          1           0       -0.182633    2.818640   -2.230138
     37          1           0        0.895575    3.901464   -1.331467
     38          1           0        1.334029    2.079209    1.214619
     39          1           0        0.931140    3.808727    1.255246
     40          1           0       -0.099541    2.641061    2.101586
     41          1           0       -0.916671    4.719648    0.025197
     42          1           0       -2.082729    3.757213   -0.880651
     43          1           0       -2.048565    3.689963    0.900063
     44          1           0        3.630434    1.212624    0.650287
     45          1           0        3.421407    1.229940   -1.100100
     46          1           0        5.546833    0.194690   -1.500599
     47          1           0        7.300810    1.325770   -0.139723
     48          1           0        6.087396    1.798483    1.064894
     49          1           0        6.020776    2.466162   -0.570561
     50          1           0        6.463071   -1.454794   -0.030028
     51          1           0        6.461762   -0.314631    2.061002
     52          1           0        4.834030   -0.406065    2.174440
     53          1           0        4.041276   -2.460788    0.692618
     54          1           0        4.455608   -2.270322   -1.021080
     55          1           0       -0.525373   -3.267949   -0.345973
 ---------------------------------------------------------------------

 The electronic state is 1-A.
 Alpha  occ. eigenvalues --  -24.71313 -19.16926 -19.11296 -19.09305 -14.40349
 Alpha  occ. eigenvalues --  -14.37191 -14.33517 -14.32836 -10.30015 -10.28094
 Alpha  occ. eigenvalues --  -10.27539 -10.27535 -10.25906 -10.24937 -10.24208
 Alpha  occ. eigenvalues --  -10.23081 -10.23035 -10.22768 -10.22637 -10.20740
 Alpha  occ. eigenvalues --  -10.20460 -10.19632 -10.19537 -10.19458 -10.18791
 Alpha  occ. eigenvalues --  -10.18479 -10.18442 -10.16885  -1.22262  -1.08110
 Alpha  occ. eigenvalues --   -1.00778  -0.99454  -0.99050  -0.98103  -0.93031
 Alpha  occ. eigenvalues --   -0.89235  -0.83445  -0.81079  -0.80738  -0.78358
 Alpha  occ. eigenvalues --   -0.76595  -0.75027  -0.74177  -0.71038  -0.70393
 Alpha  occ. eigenvalues --   -0.70181  -0.66672  -0.65570  -0.64330  -0.61958
 Alpha  occ. eigenvalues --   -0.61034  -0.59460  -0.57737  -0.56550  -0.55074
 Alpha  occ. eigenvalues --   -0.53868  -0.52792  -0.52232  -0.50767  -0.50336
 Alpha  occ. eigenvalues --   -0.48991  -0.48357  -0.47492  -0.46737  -0.46130
 Alpha  occ. eigenvalues --   -0.46009  -0.45387  -0.44725  -0.44320  -0.44306
 Alpha  occ. eigenvalues --   -0.43802  -0.43283  -0.42699  -0.42394  -0.42129
 Alpha  occ. eigenvalues --   -0.40731  -0.40228  -0.39964  -0.39519  -0.39300
 Alpha  occ. eigenvalues --   -0.39089  -0.39005  -0.38330  -0.38186  -0.37559
 Alpha  occ. eigenvalues --   -0.37049  -0.36795  -0.36182  -0.35744  -0.35499
 Alpha  occ. eigenvalues --   -0.35169  -0.34923  -0.34446  -0.33990  -0.32308
 Alpha  occ. eigenvalues --   -0.29790  -0.28076  -0.27834  -0.27544  -0.25871
 Alpha  occ. eigenvalues --   -0.24868  -0.22438  -0.21882  -0.20429
 Alpha virt. eigenvalues --   -0.04206  -0.02800   0.00658   0.04433   0.05198
 Alpha virt. eigenvalues --    0.07543   0.08501   0.08967   0.09931   0.10969
 Alpha virt. eigenvalues --    0.11637   0.12085   0.12263   0.12765   0.13208

 Mulliken charges:
               1
     1  C   -0.462651
     2  C   -0.039100
     3  O   -0.445318
     4  C    0.611973
     5  O   -0.531070
     6  C   -0.060578
     7  C    0.044516
     8  N   -0.544491
     9  C    0.212137
    10  C   -0.458792
    11  C   -0.456555
    12  C   -0.484834
    13  C    0.497344
    14  N   -0.640538
    15  C    0.490586
    16  N   -0.512846
    17  C   -0.111701
    18  C   -0.113195
    19  C   -0.460111
    20  C   -0.020944
    21  N   -0.711278
    22  C   -0.118551
    23  C    0.333295
    24  F   -0.298577
    25  C   -0.225442
    26  C    0.014126
    27  C    0.384559
    28  O   -0.522323
    29  H    0.143437
    30  H    0.171671
    31  H    0.161517
    32  H    0.153785
    33  H    0.163273
    34  H    0.206299
    35  H    0.190724
    36  H    0.151226
    37  H    0.142141
    38  H    0.189197
    39  H    0.141457
    40  H    0.150438
    41  H    0.158944
    42  H    0.169063
    43  H    0.168804
    44  H    0.144082
    45  H    0.166184
    46  H    0.138967
    47  H    0.151086
    48  H    0.137054
    49  H    0.154336
    50  H    0.143217
    51  H    0.304065
    52  H    0.301957
    53  H    0.182406
    54  H    0.157492
    55  H    0.187537
 Sum of Mulliken charges =  -0.00000

 Dipole moment (field-independent basis, Debye):
    X=              6.2396    Y=              4.8035    Z=             -0.0366  Tot=              7.8745
 Quadrupole moment (field-independent basis, Debye-Ang):
   XX=           -150.7902   YY=           -168.1361   ZZ=           -163.0130
   XY=              5.2646   XZ=             -3.4825   YZ=              1.9553

 Normal termination of Gaussian 16 at Fri Nov  4 19:01:44 2022.
