 Gaussian 16, Revision B.01,
 Gaussian 16:  ES64L-G16RevB.01 20-Dec-2017

 -------------------------------------------------------------------
 #p b3lyp/6-31g(d) 6D 10F nosymm GFInput td=(50-50,nstate=2) SCF=XQC
 -------------------------------------------------------------------

 ------------------------------
 Gaussian input prepared by ASE
 ------------------------------
 Symbolic Z-matrix:
 Charge =  0 Multiplicity = 1

                          Input orientation:
 ---------------------------------------------------------------------
 Center     Atomic      Atomic             Coordinates (Angstroms)
 Number     Number       Type             X           Y           Z
 ---------------------------------------------------------------------
      1          6           0       -7.215202    1.838102   -1.822816
      2          6           0       -6.875535    1.616171   -0.355912
      3          8           0       -5.447786    1.634769   -0.137274
      4          6           0       -4.793635    0.479686   -0.339115
      5          8           0       -5.346802   -0.556027   -0.685431
      6          6           0       -3.330242    0.580423   -0.094777
      7          6           0       -2.647673   -0.594961   -0.288838
      8          7           0       -1.312225   -0.803509   -0.141551
      9          6           0       -0.719201   -2.183776   -0.392920
     10          6           0       -0.078779   -2.706494    0.907966
     11          6           0        0.292647   -2.103564   -1.553174
     12          6           0       -1.811371   -3.189097   -0.804173
     13          6           0       -0.524005    0.303325    0.249327
     14          7           0        0.798409    0.126178    0.388366
     15          6           0        1.588344    1.146387    0.757263
     16          7           0        2.924407    0.894010    0.871147
     17          6           0        3.460949   -0.461866    0.717394
     18          6           0        4.940401   -0.316490    1.107875
     19          6           0        5.847553   -1.408150    0.545305
     20          6           0        5.271359    1.138085    0.667295
     21          7           0        5.546300    1.352083   -0.756591
     22          6           0        3.994658    1.892149    1.067063
     23          6           0        1.009046    2.420902    1.023735
     24          9           0        1.789976    3.444916    1.450093
     25          6           0       -0.333620    2.609674    0.872733
     26          6           0       -1.156061    1.541762    0.468339
     27          6           0       -2.608369    1.784426    0.315344
     28          8           0       -3.090508    2.898075    0.524965
     29          1           0       -8.302330    1.907010   -1.947738
     30          1           0       -6.850920    1.005728   -2.431386
     31          1           0       -6.766214    2.767875   -2.186889
     32          1           0       -7.249149    2.432602    0.266963
     33          1           0       -7.280297    0.667082    0.004396
     34          1           0       -3.241227   -1.442720   -0.590768
     35          1           0        0.727386   -2.058083    1.246712
     36          1           0       -0.832087   -2.777701    1.700478
     37          1           0        0.325401   -3.709989    0.734191
     38          1           0        1.122373   -1.439706   -1.316677
     39          1           0        0.688135   -3.105007   -1.756465
     40          1           0       -0.200796   -1.743917   -2.463058
     41          1           0       -1.320158   -4.153228   -0.965773
     42          1           0       -2.568446   -3.335986   -0.027463
     43          1           0       -2.309056   -2.916640   -1.740209
     44          1           0        3.348880   -0.814294   -0.319461
     45          1           0        2.921025   -1.170329    1.353269
     46          1           0        5.002440   -0.338958    2.205391
     47          1           0        6.887173   -1.258713    0.860180
     48          1           0        5.824353   -1.422888   -0.550633
     49          1           0        5.537238   -2.399365    0.894707
     50          1           0        6.134036    1.524790    1.221115
     51          1           0        6.369511    0.825997   -1.043532
     52          1           0        4.771507    1.016213   -1.328033
     53          1           0        3.846133    2.769724    0.436912
     54          1           0        4.037155    2.221628    2.112565
     55          1           0       -0.795101    3.571685    1.069569
 ---------------------------------------------------------------------

 SCF Done:  E(RB3LYP) =  -1322.93345768     A.U. after   17 cycles

 Excitation energies and oscillator strengths:

 Excited state symmetry could not be determined.
 Excited State   1:      Triplet-?Sym    3.0032 eV  412.84 nm  f=0.0000  <S**2>=2.000
     102 ->107         0.10671
     104 ->105         0.65323
     104 ->106        -0.21180
 This state for optimization and/or second-order correction.
 Total Energy, E(TD-HF/TD-DFT) =  -1322.82309330
 Copying the excited state density for this state as the 1-particle RhoCI density.

 Excited state symmetry could not be determined.
 Excited State   2:      Triplet-?Sym    3.2817 eV  377.81 nm  f=0.0000  <S**2>=2.000
     102 ->105         0.40093
     104 ->105         0.10235
     104 ->106         0.52881

 Excited state symmetry could not be determined.
 Excited State   3:      Singlet-?Sym    3.6756 eV  337.31 nm  f=0.0002  <S**2>=0.000
     103 ->105         0.66794
     103 ->106        -0.17190
     103 ->107         0.10666

 Excited state symmetry could not be determined.
 Excited State   4:      Singlet-?Sym    3.8877 eV  318.91 nm  f=0.2028  <S**2>=0.000
     104 ->105         0.66697
     104 ->106         0.17590

 Alpha  occ. eigenvalues --  -24.71313 -19.16926 -19.11296 -19.09305 -14.40349
 Alpha  occ. eigenvalues --  -14.37191 -14.33516 -14.32836 -10.30015 -10.28094
 Alpha  occ. eigenvalues --  -10.27539 -10.27535 -10.25906 -10.24937 -10.24208
 Alpha  occ. eigenvalues --  -10.23081 -10.23035 -10.22768 -10.22637 -10.20740
 Alpha  occ. eigenvalues --  -10.20460 -10.19632 -10.19537 -10.19458 -10.18791
 Alpha  occ. eigenvalues --  -10.18479 -10.18442 -10.16885  -1.22262  -1.08110
 Alpha  occ. eigenvalues --   -1.00778  -0.99454  -0.99050  -0.98103  -0.93031
 Alpha  occ. eigenvalues --   -0.89235  -0.83445  -0.81079  -0.80737  -0.78358
 Alpha  occ. eigenvalues --   -0.76594  -0.75027  -0.74177  -0.71038  -0.70393
 Alpha  occ. eigenvalues --   -0.70181  -0.66672  -0.65570  -0.64330  -0.61958
 Alpha  occ. eigenvalues --   -0.61034  -0.59460  -0.57737  -0.56550  -0.55074
 Alpha  occ. eigenvalues --   -0.53868  -0.52792  -0.52231  -0.50768  -0.50336
 Alpha  occ. eigenvalues --   -0.48991  -0.48357  -0.47492  -0.46737  -0.46130
 Alpha  occ. eigenvalues --   -0.46009  -0.45387  -0.44725  -0.44320  -0.44306
 Alpha  occ. eigenvalues --   -0.43802  -0.43284  -0.42699  -0.42394  -0.42129
 Alpha  occ. eigenvalues --   -0.40731  -0.40228  -0.39964  -0.39519  -0.39300
 Alpha  occ. eigenvalues --   -0.39089  -0.39005  -0.38330  -0.38186  -0.37559
 Alpha  occ. eigenvalues --   -0.37049  -0.36795  -0.36182  -0.35744  -0.35499
 Alpha  occ. eigenvalues --   -0.35169  -0.34923  -0.34446  -0.33990  -0.32308
 Alpha  occ. eigenvalues --   -0.29790  -0.28076  -0.27834  -0.27544  -0.25871
 Alpha  occ. eigenvalues --   -0.24868  -0.22438  -0.21882  -0.20429
 Alpha virt. eigenvalues --   -0.04206  -0.02800   0.00658   0.04433   0.05198
 Alpha virt. eigenvalues --    0.07543   0.08501   0.08967   0.09931   0.10969
 Alpha virt. eigenvalues --    0.11637   0.12085   0.12263   0.12765   0.13208

 Mulliken charges:
               1
     1  C   -0.462647
     2  C   -0.039107
     3  O   -0.445321
     4  C    0.611987
     5  O   -0.531073
     6  C   -0.060583
     7  C    0.044501
     8  N   -0.544467
     9  C    0.212075
    10  C   -0.458769
    11  C   -0.456523
    12  C   -0.484856
    13  C    0.497303
    14  N   -0.640504
    15  C    0.490551
    16  N   -0.512835
    17  C   -0.111710
    18  C   -0.113145
    19  C   -0.460118
    20  C   -0.020948
    21  N   -0.711279
    22  C   -0.118548
    23  C    0.333300
    24  F   -0.298577
    25  C   -0.225448
    26  C    0.014155
    27  C    0.384558
    28  O   -0.522322
    29  H    0.143437
    30  H    0.171669
    31  H    0.161517
    32  H    0.153786
    33  H    0.163275
    34  H    0.206299
    35  H    0.190721
    36  H    0.151228
    37  H    0.142140
    38  H    0.189191
    39  H    0.141454
    40  H    0.150436
    41  H    0.158952
    42  H    0.169069
    43  H    0.168811
    44  H    0.144082
    45  H    0.166180
    46  H    0.138960
    47  H    0.151086
    48  H    0.137054
    49  H    0.154335
    50  H    0.143215
    51  H    0.304064
    52  H    0.301955
    53  H    0.182405
    54  H    0.157492
    55  H    0.187537
 Sum of Mulliken charges =  -0.00000

 Dipole moment (field-independent basis, Debye):
    X=              6.0731    Y=             -5.0082    Z=             -0.2042  Tot=              7.8744
 Quadrupole moment (field-independent basis, Debye-Ang):
   XX=           -155.8260   YY=           -172.2715   ZZ=           -161.7845
   XY=             -2.6554   XZ=              4.4807   YZ=             -0.8485

 Normal termination of Gaussian 16 at Sat Nov  5 11:36:28 2022.
