 Gaussian 16, Revision B.01,
 Gaussian 16:  ES64L-G16RevB.01 20-Dec-2017

 -----------------------------
 #p b3lyp/6-31g(d) opt SCF=XQC
 -----------------------------

 ------------------------------
 Gaussian input prepared by ASE
 ------------------------------
 Symbolic Z-matrix:
 Charge =  0 Multiplicity = 1

 SCF Done:  E(RB3LYP) =  -1020.51326517     A.U. after   15 cycles
 SCF Done:  E(RB3LYP) =  -1020.51831157     A.U. after   13 cycles
 SCF Done:  E(RB3LYP) =  -1020.51884130     A.U. after   12 cycles
 SCF Done:  E(RB3LYP) =  -1020.51899327     A.U. after   11 cycles
 SCF Done:  E(RB3LYP) =  -1020.51905513     A.U. after   11 cycles
 SCF Done:  E(RB3LYP) =  -1020.51907813     A.U. after   10 cycles
 SCF Done:  E(RB3LYP) =  -1020.51910142     A.U. after   11 cycles
 SCF Done:  E(RB3LYP) =  -1020.51911432     A.U. after   10 cycles
 SCF Done:  E(RB3LYP) =  -1020.51911732     A.U. after    9 cycles
 SCF Done:  E(RB3LYP) =  -1020.51911878     A.U. after    8 cycles
 SCF Done:  E(RB3LYP) =  -1020.51924317     A.U. after   11 cycles
 SCF Done:  E(RB3LYP) =  -1020.51925312     A.U. after   11 cycles
 SCF Done:  E(RB3LYP) =  -1020.51925189     A.U. after   11 cycles
 SCF Done:  E(RB3LYP) =  -1020.51925706     A.U. after   10 cycles
 SCF Done:  E(RB3LYP) =  -1020.51925896     A.U. after   10 cycles
 SCF Done:  E(RB3LYP) =  -1020.51926085     A.U. after   10 cycles
 SCF Done:  E(RB3LYP) =  -1020.51926272     A.U. after   10 cycles
 SCF Done:  E(RB3LYP) =  -1020.51926318     A.U. after    9 cycles
 SCF Done:  E(RB3LYP) =  -1020.51926322     A.U. after    7 cycles
 SCF Done:  E(RB3LYP) =  -1020.51926324     A.U. after    7 cycles
 Optimization completed.
    -- Stationary point found.

                         Standard orientation:
 ---------------------------------------------------------------------
 Center     Atomic      Atomic             Coordinates (Angstroms)
 Number     Number       Type             X           Y           Z
 ---------------------------------------------------------------------
      1          6           0        3.653505   -2.353260    1.678557
      2          6           0        3.574266   -1.161062    0.753875
      3          6           0        4.635890   -0.243482    0.678363
      4          6           0        4.570064    0.857105   -0.170518
      5          6           0        3.436577    1.065532   -0.963273
      6          6           0        2.370742    0.163564   -0.906211
      7          6           0        1.140899    0.367844   -1.773276
      8          7           0       -0.100810    0.420374   -1.006573
      9          7           0       -1.031267   -0.570896   -1.132172
     10          6           0       -2.024005   -0.204418   -0.343023
     11          6           0       -3.224905   -1.084781   -0.169353
     12          9           0       -4.336284   -0.339237    0.004634
     13          9           0       -3.414321   -1.884506   -1.230758
     14          9           0       -3.101020   -1.874945    0.921089
     15          6           0       -1.754140    1.021634    0.329049
     16          6           0       -2.516184    1.754959    1.266566
     17          7           0       -3.088772    2.403449    2.047255
     18          6           0       -0.484098    1.387973   -0.135429
     19          7           0        0.268084    2.515015    0.106706
     20          6           0        2.450273   -0.940994   -0.045618
     21          1           0        3.744966   -2.038907    2.725560
     22          1           0        4.528451   -2.974537    1.452076
     23          1           0        2.763631   -2.984120    1.596004
     24          1           0        5.520026   -0.398275    1.292667
     25          1           0        5.399678    1.557250   -0.218208
     26          1           0        3.389319    1.921266   -1.633657
     27          1           0        1.230517    1.294648   -2.351310
     28          1           0        1.002354   -0.457573   -2.475889
     29          1           0       -0.101154    3.091524    0.854683
     30          1           0        1.266519    2.355949    0.200392
     31          1           0        1.616362   -1.638313   -0.001777
 ---------------------------------------------------------------------

 The electronic state is 1-A.
 Alpha  occ. eigenvalues --  -24.72251 -24.72203 -24.71824 -14.43748 -14.38336
 Alpha  occ. eigenvalues --  -14.37689 -14.33244 -10.43630 -10.29777 -10.25955
 Alpha  occ. eigenvalues --  -10.24649 -10.23117 -10.22999 -10.22348 -10.21941
 Alpha  occ. eigenvalues --  -10.21378 -10.21258 -10.20837 -10.20806 -10.19874
 Alpha  occ. eigenvalues --   -1.29991  -1.21407  -1.20961  -1.08086  -0.95559
 Alpha  occ. eigenvalues --   -0.90281  -0.89046  -0.86800  -0.80691  -0.79904
 Alpha  occ. eigenvalues --   -0.77976  -0.74014  -0.70935  -0.70335  -0.65539
 Alpha  occ. eigenvalues --   -0.62845  -0.61374  -0.60002  -0.58714  -0.57830
 Alpha  occ. eigenvalues --   -0.57635  -0.56066  -0.52998  -0.51661  -0.50953
 Alpha  occ. eigenvalues --   -0.49980  -0.48026  -0.47438  -0.46052  -0.45248
 Alpha  occ. eigenvalues --   -0.45123  -0.43645  -0.43311  -0.43126  -0.42630
 Alpha  occ. eigenvalues --   -0.41449  -0.41220  -0.39933  -0.39410  -0.38702
 Alpha  occ. eigenvalues --   -0.37242  -0.36802  -0.35991  -0.35916  -0.35787
 Alpha  occ. eigenvalues --   -0.35268  -0.33979  -0.31355  -0.27799  -0.26573
 Alpha  occ. eigenvalues --   -0.26386  -0.23792
 Alpha virt. eigenvalues --   -0.03169  -0.02315  -0.01356  -0.00338   0.02209
 Alpha virt. eigenvalues --    0.06635   0.07888   0.09554   0.10365   0.11192
 Alpha virt. eigenvalues --    0.11327   0.12504   0.13263   0.13602   0.14035

 Mulliken charges:
               1
     1  C   -0.532463
     2  C    0.177947
     3  C   -0.171793
     4  C   -0.125129
     5  C   -0.210093
     6  C    0.134414
     7  C   -0.238893
     8  N   -0.318461
     9  N   -0.364171
    10  C    0.177713
    11  C    0.836438
    12  F   -0.263440
    13  F   -0.256439
    14  F   -0.258931
    15  C    0.003249
    16  C    0.186964
    17  N   -0.489247
    18  C    0.578785
    19  N   -0.800671
    20  C   -0.226080
    21  H    0.169451
    22  H    0.168877
    23  H    0.166068
    24  H    0.133939
    25  H    0.140332
    26  H    0.136145
    27  H    0.181491
    28  H    0.207376
    29  H    0.356160
    30  H    0.349604
    31  H    0.150861
 Sum of Mulliken charges =  -0.00000

 Dipole moment (field-independent basis, Debye):
    X=              7.9392    Y=              0.5145    Z=             -1.2363  Tot=              8.0514
 Quadrupole moment (field-independent basis, Debye-Ang):
   XX=           -117.8074   YY=           -112.4802   ZZ=           -114.9175
   XY=              7.2883   XZ=              9.4168   YZ=             -7.7005

 Normal termination of Gaussian 16 at Fri Nov  4 18:53:16 2022.
