 Gaussian 16, Revision B.01,
 Gaussian 16:  ES64L-G16RevB.01 20-Dec-2017

 -------------------------------------------------------------------
 #p b3lyp/6-31g(d) 6D 10F nosymm GFInput td=(50-50,nstate=2) SCF=XQC
 -------------------------------------------------------------------

 ------------------------------
 Gaussian input prepared by ASE
 ------------------------------
 Symbolic Z-matrix:
 Charge =  0 Multiplicity = 1

                          Input orientation:
 ---------------------------------------------------------------------
 Center     Atomic      Atomic             Coordinates (Angstroms)
 Number     Number       Type             X           Y           Z
 ---------------------------------------------------------------------
      1          6           0        3.521747   -1.558024    0.801161
      2          6           0        2.876184   -0.226323    0.497068
      3          6           0        3.449214    0.968804    0.963981
      4          6           0        2.860287    2.199016    0.688359
      5          6           0        1.680656    2.260577   -0.060891
      6          6           0        1.095764    1.084455   -0.537803
      7          6           0       -0.175628    1.136996   -1.366565
      8          7           0       -1.257313    0.327827   -0.811911
      9          7           0       -1.697820   -0.781826   -1.474304
     10          6           0       -2.682839   -1.250347   -0.730788
     11          6           0       -3.389211   -2.516827   -1.110825
     12          9           0       -4.691088   -2.455219   -0.760699
     13          9           0       -3.317124   -2.750948   -2.430678
     14          9           0       -2.856591   -3.585644   -0.476225
     15          6           0       -2.892214   -0.469298    0.441320
     16          6           0       -3.808547   -0.619333    1.506796
     17          7           0       -4.531220   -0.688983    2.418258
     18          6           0       -1.933780    0.547989    0.343930
     19          7           0       -1.701390    1.640437    1.148405
     20          6           0        1.699737   -0.148613   -0.251874
     21          1           0        3.561738   -1.742911    1.881723
     22          1           0        4.553433   -1.593468    0.430785
     23          1           0        2.971624   -2.384212    0.341320
     24          1           0        4.365764    0.928797    1.548244
     25          1           0        3.316072    3.114424    1.055814
     26          1           0        1.225432    3.223362   -0.283925
     27          1           0       -0.528736    2.170333   -1.459564
     28          1           0       -0.016638    0.741464   -2.372771
     29          1           0       -2.212744    1.611101    2.023520
     30          1           0       -0.723328    1.878188    1.281900
     31          1           0        1.238562   -1.061790   -0.622019
 ---------------------------------------------------------------------

 SCF Done:  E(RB3LYP) =  -1020.51926011     A.U. after   15 cycles

 Excitation energies and oscillator strengths:

 Excited state symmetry could not be determined.
 Excited State   1:      Triplet-?Sym    3.6981 eV  335.26 nm  f=0.0000  <S**2>=2.000
      69 -> 73         0.26435
      69 -> 74         0.10157
      70 -> 73         0.24576
      70 -> 74         0.33189
      71 -> 73         0.38435
      71 -> 74        -0.28301
      71 -> 75         0.10849
 This state for optimization and/or second-order correction.
 Total Energy, E(TD-HF/TD-DFT) =  -1020.38335580
 Copying the excited state density for this state as the 1-particle RhoCI density.

 Excited state symmetry could not be determined.
 Excited State   2:      Triplet-?Sym    4.1310 eV  300.13 nm  f=0.0000  <S**2>=2.000
      69 -> 75         0.14743
      69 -> 76         0.14524
      72 -> 73        -0.20323
      72 -> 75         0.15855
      72 -> 76         0.57197

 Excited state symmetry could not be determined.
 Excited State   3:      Singlet-?Sym    4.9782 eV  249.06 nm  f=0.0048  <S**2>=0.000
      72 -> 73         0.70270

 Excited state symmetry could not be determined.
 Excited State   4:      Singlet-?Sym    5.2389 eV  236.66 nm  f=0.0070  <S**2>=0.000
      70 -> 73         0.13445
      71 -> 73        -0.14017
      71 -> 74        -0.13207
      72 -> 74         0.65389

 Alpha  occ. eigenvalues --  -24.72251 -24.72203 -24.71824 -14.43748 -14.38336
 Alpha  occ. eigenvalues --  -14.37689 -14.33244 -10.43630 -10.29777 -10.25955
 Alpha  occ. eigenvalues --  -10.24649 -10.23117 -10.22999 -10.22347 -10.21941
 Alpha  occ. eigenvalues --  -10.21378 -10.21258 -10.20837 -10.20805 -10.19874
 Alpha  occ. eigenvalues --   -1.29991  -1.21407  -1.20961  -1.08086  -0.95559
 Alpha  occ. eigenvalues --   -0.90281  -0.89046  -0.86800  -0.80691  -0.79904
 Alpha  occ. eigenvalues --   -0.77976  -0.74014  -0.70935  -0.70335  -0.65539
 Alpha  occ. eigenvalues --   -0.62845  -0.61374  -0.60002  -0.58714  -0.57830
 Alpha  occ. eigenvalues --   -0.57635  -0.56066  -0.52998  -0.51661  -0.50953
 Alpha  occ. eigenvalues --   -0.49980  -0.48026  -0.47438  -0.46052  -0.45248
 Alpha  occ. eigenvalues --   -0.45123  -0.43644  -0.43311  -0.43126  -0.42630
 Alpha  occ. eigenvalues --   -0.41449  -0.41220  -0.39933  -0.39410  -0.38702
 Alpha  occ. eigenvalues --   -0.37242  -0.36802  -0.35991  -0.35916  -0.35787
 Alpha  occ. eigenvalues --   -0.35268  -0.33979  -0.31355  -0.27799  -0.26573
 Alpha  occ. eigenvalues --   -0.26386  -0.23792
 Alpha virt. eigenvalues --   -0.03169  -0.02315  -0.01356  -0.00338   0.02209
 Alpha virt. eigenvalues --    0.06635   0.07888   0.09554   0.10365   0.11192
 Alpha virt. eigenvalues --    0.11327   0.12504   0.13263   0.13602   0.14035

 Mulliken charges:
               1
     1  C   -0.532462
     2  C    0.177959
     3  C   -0.171806
     4  C   -0.125132
     5  C   -0.210088
     6  C    0.134419
     7  C   -0.238903
     8  N   -0.318446
     9  N   -0.364166
    10  C    0.177730
    11  C    0.836430
    12  F   -0.263436
    13  F   -0.256440
    14  F   -0.258929
    15  C    0.003234
    16  C    0.186963
    17  N   -0.489254
    18  C    0.578785
    19  N   -0.800684
    20  C   -0.226077
    21  H    0.169449
    22  H    0.168876
    23  H    0.166067
    24  H    0.133941
    25  H    0.140332
    26  H    0.136145
    27  H    0.181492
    28  H    0.207376
    29  H    0.356161
    30  H    0.349606
    31  H    0.150859
 Sum of Mulliken charges =  -0.00000

 Dipole moment (field-independent basis, Debye):
    X=              6.8702    Y=              4.1971    Z=              0.0877  Tot=              8.0513
 Quadrupole moment (field-independent basis, Debye-Ang):
   XX=           -132.8408   YY=           -110.5995   ZZ=           -117.7521
   XY=            -10.0228   XZ=             11.3167   YZ=              1.2976

 Normal termination of Gaussian 16 at Sat Nov  5 11:33:55 2022.
