 Gaussian 16, Revision B.01,
 Gaussian 16:  ES64L-G16RevB.01 20-Dec-2017

 -------------------------------------------------------------------
 #p b3lyp/6-31g(d) 6D 10F nosymm GFInput td=(50-50,nstate=2) SCF=XQC
 -------------------------------------------------------------------

 ------------------------------
 Gaussian input prepared by ASE
 ------------------------------
 Symbolic Z-matrix:
 Charge =  0 Multiplicity = 1

                          Input orientation:
 ---------------------------------------------------------------------
 Center     Atomic      Atomic             Coordinates (Angstroms)
 Number     Number       Type             X           Y           Z
 ---------------------------------------------------------------------
      1          6           0       -0.966637    4.228524    0.853579
      2          6           0       -0.922210    2.764616    1.285795
      3          7           0       -0.280976    1.942346    0.254860
      4          6           0       -0.082954    0.514367    0.621974
      5          6           0       -1.134904   -0.412426   -0.033418
      6          6           0       -2.611309   -0.119688    0.302074
      7          6           0       -2.961652   -0.378943    1.776176
      8          6           0       -3.537371   -0.922438   -0.617251
      9          8           0       -3.342281   -2.309352   -0.397755
     10          6           0       -4.162591   -3.114003   -1.213162
     11          6           0        1.338540    0.053986    0.298446
     12          6           0        2.116185   -0.460719    1.340990
     13          6           0        3.426258   -0.909598    1.163475
     14          6           0        3.992414   -0.834984   -0.110486
     15          8           0        5.262763   -1.228255   -0.427868
     16          6           0        6.072805   -1.759662    0.606860
     17          6           0        3.233386   -0.318891   -1.167141
     18          6           0        1.919433    0.119161   -0.994440
     19          6           0        1.181722    0.623017   -2.221465
     20          1           0       -1.465716    4.844029    1.610176
     21          1           0        0.045247    4.630259    0.713442
     22          1           0       -1.504792    4.334169   -0.094156
     23          1           0       -0.412147    2.681157    2.265470
     24          1           0       -1.943880    2.402102    1.440925
     25          1           0        0.637697    2.346038    0.080429
     26          1           0       -0.188854    0.415023    1.714200
     27          1           0       -1.014541   -0.355863   -1.120614
     28          1           0       -0.905256   -1.446158    0.252531
     29          1           0       -2.809235    0.934929    0.064071
     30          1           0       -2.820282   -1.436123    2.022860
     31          1           0       -2.342440    0.215178    2.456528
     32          1           0       -4.009565   -0.125668    1.979335
     33          1           0       -4.591308   -0.655527   -0.419531
     34          1           0       -3.329997   -0.675353   -1.673563
     35          1           0       -3.939702   -4.156814   -0.970869
     36          1           0       -3.964735   -2.946633   -2.284903
     37          1           0       -5.233445   -2.925769   -1.029118
     38          1           0        1.684330   -0.514939    2.337844
     39          1           0        3.980438   -1.297441    2.010519
     40          1           0        6.239709   -1.026728    1.407798
     41          1           0        5.633140   -2.668583    1.039239
     42          1           0        7.028948   -2.008508    0.142309
     43          1           0        3.699316   -0.269348   -2.147719
     44          1           0        1.880347    1.097134   -2.919572
     45          1           0        0.707837   -0.208811   -2.759590
     46          1           0        0.398261    1.341186   -1.971919
 ---------------------------------------------------------------------

 SCF Done:  E(RB3LYP) =  -831.132215378     A.U. after   13 cycles

 Excitation energies and oscillator strengths:

 Excited state symmetry could not be determined.
 Excited State   1:      Triplet-?Sym    3.6672 eV  338.09 nm  f=0.0000  <S**2>=2.000
      71 -> 74         0.45287
      72 -> 75         0.18632
      73 -> 75         0.48863
 This state for optimization and/or second-order correction.
 Total Energy, E(TD-HF/TD-DFT) =  -830.997448989
 Copying the excited state density for this state as the 1-particle RhoCI density.

 Excited state symmetry could not be determined.
 Excited State   2:      Triplet-?Sym    4.1690 eV  297.40 nm  f=0.0000  <S**2>=2.000
      71 -> 75         0.11220
      72 -> 74         0.22220
      73 -> 74         0.65202

 Excited state symmetry could not be determined.
 Excited State   3:      Singlet-?Sym    5.0039 eV  247.77 nm  f=0.0214  <S**2>=0.000
      71 -> 75        -0.29874
      73 -> 74         0.63715

 Excited state symmetry could not be determined.
 Excited State   4:      Singlet-?Sym    5.2892 eV  234.41 nm  f=0.0015  <S**2>=0.000
      71 -> 75        -0.12654
      72 -> 74         0.68665

 Alpha  occ. eigenvalues --  -19.17251 -19.14069 -14.30951 -10.23913 -10.23778
 Alpha  occ. eigenvalues --  -10.22208 -10.22075 -10.20742 -10.20238 -10.19215
 Alpha  occ. eigenvalues --  -10.18272 -10.18082 -10.17983 -10.17952 -10.17342
 Alpha  occ. eigenvalues --  -10.17313 -10.17009 -10.16393 -10.16385  -1.05811
 Alpha  occ. eigenvalues --   -1.02455  -0.89732  -0.84458  -0.79632  -0.76744
 Alpha  occ. eigenvalues --   -0.75866  -0.73566  -0.70646  -0.69509  -0.67886
 Alpha  occ. eigenvalues --   -0.67590  -0.64389  -0.61470  -0.59565  -0.59218
 Alpha  occ. eigenvalues --   -0.56066  -0.54442  -0.51772  -0.49318  -0.48317
 Alpha  occ. eigenvalues --   -0.47903  -0.46892  -0.46401  -0.45431  -0.45050
 Alpha  occ. eigenvalues --   -0.44919  -0.42806  -0.42380  -0.41913  -0.41483
 Alpha  occ. eigenvalues --   -0.40681  -0.40276  -0.39966  -0.39065  -0.38655
 Alpha  occ. eigenvalues --   -0.37358  -0.37122  -0.36287  -0.35741  -0.35100
 Alpha  occ. eigenvalues --   -0.34661  -0.34366  -0.33854  -0.32876  -0.31820
 Alpha  occ. eigenvalues --   -0.31651  -0.30711  -0.30200  -0.29555  -0.24770
 Alpha  occ. eigenvalues --   -0.23566  -0.21724  -0.20689
 Alpha virt. eigenvalues --    0.00509   0.01750   0.08384   0.09427   0.10103
 Alpha virt. eigenvalues --    0.10692   0.11338   0.11796   0.12220   0.13508
 Alpha virt. eigenvalues --    0.14062   0.14730   0.15073   0.15382   0.15525

 Mulliken charges:
               1
     1  C   -0.453223
     2  C   -0.116885
     3  N   -0.569483
     4  C   -0.036639
     5  C   -0.238295
     6  C   -0.105220
     7  C   -0.456041
     8  C   -0.014695
     9  O   -0.460972
    10  C   -0.187277
    11  C    0.081140
    12  C   -0.207249
    13  C   -0.196348
    14  C    0.383123
    15  O   -0.509788
    16  C   -0.212908
    17  C   -0.233471
    18  C    0.125764
    19  C   -0.549627
    20  H    0.143835
    21  H    0.140165
    22  H    0.157256
    23  H    0.112463
    24  H    0.148209
    25  H    0.299369
    26  H    0.118965
    27  H    0.133498
    28  H    0.146145
    29  H    0.136066
    30  H    0.162374
    31  H    0.141091
    32  H    0.134012
    33  H    0.111657
    34  H    0.115569
    35  H    0.155741
    36  H    0.127819
    37  H    0.126896
    38  H    0.124589
    39  H    0.127075
    40  H    0.149669
    41  H    0.150876
    42  H    0.167680
    43  H    0.127896
    44  H    0.150201
    45  H    0.163949
    46  H    0.185031
 Sum of Mulliken charges =  -0.00000

 Dipole moment (field-independent basis, Debye):
    X=              0.2528    Y=              0.0539    Z=              0.8029  Tot=              0.8435
 Quadrupole moment (field-independent basis, Debye-Ang):
   XX=           -103.8777   YY=           -115.2523   ZZ=           -113.5514
   XY=             -2.7699   XZ=              8.9135   YZ=              0.9402

 Normal termination of Gaussian 16 at Sat Nov  5 11:31:37 2022.
