 Gaussian 16, Revision B.01,
 Gaussian 16:  ES64L-G16RevB.01 20-Dec-2017

 -----------------------------
 #p b3lyp/6-31g(d) opt SCF=XQC
 -----------------------------

 ------------------------------
 Gaussian input prepared by ASE
 ------------------------------
 Symbolic Z-matrix:
 Charge =  0 Multiplicity = 1

 SCF Done:  E(RB3LYP) =  -831.128189197     A.U. after   13 cycles
 SCF Done:  E(RB3LYP) =  -831.131405071     A.U. after   11 cycles
 SCF Done:  E(RB3LYP) =  -831.131776921     A.U. after   11 cycles
 SCF Done:  E(RB3LYP) =  -831.131838779     A.U. after   11 cycles
 SCF Done:  E(RB3LYP) =  -831.132085818     A.U. after   11 cycles
 SCF Done:  E(RB3LYP) =  -831.132155752     A.U. after   10 cycles
 SCF Done:  E(RB3LYP) =  -831.132181585     A.U. after   10 cycles
 SCF Done:  E(RB3LYP) =  -831.132199126     A.U. after    9 cycles
 SCF Done:  E(RB3LYP) =  -831.132210248     A.U. after    9 cycles
 SCF Done:  E(RB3LYP) =  -831.132211571     A.U. after    7 cycles
 SCF Done:  E(RB3LYP) =  -831.132211783     A.U. after    7 cycles
 SCF Done:  E(RB3LYP) =  -831.132211823     A.U. after    7 cycles
 SCF Done:  E(RB3LYP) =  -831.132211840     A.U. after    6 cycles
 Optimization completed.
    -- Stationary point found.

                         Standard orientation:
 ---------------------------------------------------------------------
 Center     Atomic      Atomic             Coordinates (Angstroms)
 Number     Number       Type             X           Y           Z
 ---------------------------------------------------------------------
      1          6           0        1.436853    4.356836    0.364881
      2          6           0        1.337116    3.059340   -0.434096
      3          7           0        0.671544    2.018159    0.355265
      4          6           0        0.419943    0.743476   -0.369297
      5          6           0        1.440756   -0.357478    0.006103
      6          6           0        2.925143   -0.037213   -0.262319
      7          6           0        3.258519    0.086503   -1.757807
      8          6           0        3.825969   -1.083308    0.402025
      9          8           0        3.579522   -2.357096   -0.169375
     10          6           0        4.374082   -3.374267    0.395686
     11          6           0       -1.015720    0.262779   -0.157005
     12          6           0       -1.816715    0.065298   -1.286589
     13          6           0       -3.141338   -0.369870   -1.213809
     14          6           0       -3.698086   -0.612041    0.043355
     15          8           0       -4.980297   -1.031501    0.265088
     16          6           0       -5.814235   -1.246045   -0.860852
     17          6           0       -2.915574   -0.416283    1.187187
     18          6           0       -1.587443    0.007051    1.116170
     19          6           0       -0.825835    0.147157    2.421544
     20          1           0        1.954212    5.131611   -0.211686
     21          1           0        0.440943    4.741865    0.619550
     22          1           0        1.983184    4.192637    1.299511
     23          1           0        0.819505    3.252347   -1.394160
     24          1           0        2.344155    2.715736   -0.693130
     25          1           0       -0.230976    2.392954    0.642213
     26          1           0        0.516747    0.929798   -1.450941
     27          1           0        1.327921   -0.583260    1.071922
     28          1           0        1.172280   -1.272040   -0.536672
     29          1           0        3.162439    0.911109    0.240089
     30          1           0        3.077604   -0.863930   -2.270071
     31          1           0        2.657940    0.858478   -2.250394
     32          1           0        4.313924    0.348558   -1.902693
     33          1           0        4.887915   -0.809726    0.265865
     34          1           0        3.632950   -1.114299    1.489055
     35          1           0        4.112247   -4.309236   -0.107421
     36          1           0        4.187756   -3.486508    1.476645
     37          1           0        5.450144   -3.180726    0.251929
     38          1           0       -1.392064    0.259187   -2.269052
     39          1           0       -3.713439   -0.503674   -2.124753
     40          1           0       -5.958365   -0.323905   -1.440021
     41          1           0       -5.410040   -2.024517   -1.521911
     42          1           0       -6.776475   -1.575307   -0.463833
     43          1           0       -3.374529   -0.609274    2.153207
     44          1           0       -1.503300    0.445458    3.229180
     45          1           0       -0.379829   -0.811992    2.716833
     46          1           0       -0.018041    0.878710    2.357121
 ---------------------------------------------------------------------

 The electronic state is 1-A.
 Alpha  occ. eigenvalues --  -19.17251 -19.14069 -14.30950 -10.23913 -10.23778
 Alpha  occ. eigenvalues --  -10.22208 -10.22075 -10.20742 -10.20238 -10.19215
 Alpha  occ. eigenvalues --  -10.18272 -10.18082 -10.17983 -10.17952 -10.17342
 Alpha  occ. eigenvalues --  -10.17313 -10.17009 -10.16393 -10.16385  -1.05811
 Alpha  occ. eigenvalues --   -1.02455  -0.89732  -0.84458  -0.79632  -0.76744
 Alpha  occ. eigenvalues --   -0.75866  -0.73566  -0.70646  -0.69509  -0.67886
 Alpha  occ. eigenvalues --   -0.67590  -0.64389  -0.61470  -0.59565  -0.59218
 Alpha  occ. eigenvalues --   -0.56066  -0.54442  -0.51772  -0.49318  -0.48317
 Alpha  occ. eigenvalues --   -0.47903  -0.46892  -0.46401  -0.45431  -0.45050
 Alpha  occ. eigenvalues --   -0.44919  -0.42806  -0.42380  -0.41913  -0.41483
 Alpha  occ. eigenvalues --   -0.40681  -0.40276  -0.39966  -0.39065  -0.38655
 Alpha  occ. eigenvalues --   -0.37358  -0.37122  -0.36287  -0.35741  -0.35100
 Alpha  occ. eigenvalues --   -0.34661  -0.34366  -0.33854  -0.32876  -0.31820
 Alpha  occ. eigenvalues --   -0.31651  -0.30711  -0.30200  -0.29555  -0.24770
 Alpha  occ. eigenvalues --   -0.23566  -0.21724  -0.20689
 Alpha virt. eigenvalues --    0.00509   0.01750   0.08384   0.09427   0.10103
 Alpha virt. eigenvalues --    0.10692   0.11338   0.11796   0.12221   0.13508
 Alpha virt. eigenvalues --    0.14062   0.14730   0.15073   0.15382   0.15525

 Mulliken charges:
               1
     1  C   -0.453229
     2  C   -0.116873
     3  N   -0.569484
     4  C   -0.036647
     5  C   -0.238294
     6  C   -0.105212
     7  C   -0.456056
     8  C   -0.014685
     9  O   -0.460976
    10  C   -0.187275
    11  C    0.081147
    12  C   -0.207246
    13  C   -0.196355
    14  C    0.383129
    15  O   -0.509790
    16  C   -0.212908
    17  C   -0.233464
    18  C    0.125753
    19  C   -0.549624
    20  H    0.143835
    21  H    0.140165
    22  H    0.157258
    23  H    0.112463
    24  H    0.148206
    25  H    0.299368
    26  H    0.118966
    27  H    0.133496
    28  H    0.146141
    29  H    0.136064
    30  H    0.162376
    31  H    0.141094
    32  H    0.134015
    33  H    0.111654
    34  H    0.115568
    35  H    0.155740
    36  H    0.127818
    37  H    0.126896
    38  H    0.124587
    39  H    0.127076
    40  H    0.149670
    41  H    0.150876
    42  H    0.167680
    43  H    0.127896
    44  H    0.150201
    45  H    0.163950
    46  H    0.185029
 Sum of Mulliken charges =  -0.00000

 Dipole moment (field-independent basis, Debye):
    X=             -0.2546    Y=              0.2706    Z=             -0.7573  Tot=              0.8435
 Quadrupole moment (field-independent basis, Debye-Ang):
   XX=           -103.7674   YY=           -114.6242   ZZ=           -114.5544
   XY=              0.0180   XZ=              8.8615   YZ=             -1.5947

 Normal termination of Gaussian 16 at Fri Nov  4 18:42:12 2022.
