 Gaussian 16, Revision B.01,
 Gaussian 16:  ES64L-G16RevB.01 20-Dec-2017

 -------------------------------------------------------------------
 #p b3lyp/6-31g(d) 6D 10F nosymm GFInput td=(50-50,nstate=2) SCF=XQC
 -------------------------------------------------------------------

 ------------------------------
 Gaussian input prepared by ASE
 ------------------------------
 Symbolic Z-matrix:
 Charge =  0 Multiplicity = 1

                          Input orientation:
 ---------------------------------------------------------------------
 Center     Atomic      Atomic             Coordinates (Angstroms)
 Number     Number       Type             X           Y           Z
 ---------------------------------------------------------------------
      1          6           0        4.761877   -1.823970    0.356528
      2          6           0        3.940472   -0.568973    0.106268
      3          6           0        4.721247    0.716795    0.330553
      4          6           0        2.915486   -0.611014   -1.005888
      5          6           0        2.457050   -0.649463    0.436686
      6          6           0        1.669524    0.506649    1.026046
      7          7           0        0.272485    0.526518    0.601167
      8          6           0       -0.169790    1.316470   -0.416495
      9          8           0        0.553014    2.108530   -1.016353
     10          6           0       -1.631808    1.113989   -0.860244
     11          6           0       -1.599072    0.166593   -2.084705
     12          6           0       -3.004435   -0.294096   -2.458040
     13          7           0       -3.579069   -1.006627   -1.322411
     14          6           0       -3.551661   -0.382385   -0.074484
     15          6           0       -4.453243   -0.786565    0.927989
     16          6           0       -4.445586   -0.185975    2.180910
     17          6           0       -3.540148    0.840490    2.462103
     18          6           0       -2.640508    1.236900    1.474426
     19          6           0       -2.610209    0.635776    0.207892
     20          1           0        5.127538   -1.859126    1.391343
     21          1           0        5.637078   -1.858223   -0.305491
     22          1           0        4.174777   -2.732297    0.178903
     23          1           0        5.048707    0.809142    1.374657
     24          1           0        5.621240    0.724228   -0.297723
     25          1           0        4.143161    1.609853    0.076333
     26          1           0        2.719658    0.306344   -1.555346
     27          1           0        2.828653   -1.517315   -1.601191
     28          1           0        2.126146   -1.623888    0.798443
     29          1           0        2.089589    1.465185    0.717939
     30          1           0        1.693543    0.466105    2.122402
     31          1           0       -0.386050   -0.105191    1.035530
     32          1           0       -1.943851    2.106021   -1.210511
     33          1           0       -0.996011   -0.718923   -1.849289
     34          1           0       -1.119695    0.680472   -2.922977
     35          1           0       -2.967572   -0.980169   -3.310979
     36          1           0       -3.617223    0.575458   -2.755024
     37          1           0       -4.453962   -1.476437   -1.520945
     38          1           0       -5.166083   -1.578636    0.706289
     39          1           0       -5.155506   -0.513907    2.935890
     40          1           0       -3.536365    1.326183    3.433343
     41          1           0       -1.933395    2.035483    1.686454
 ---------------------------------------------------------------------

 SCF Done:  E(RB3LYP) =  -807.676371923     A.U. after   15 cycles

 Excitation energies and oscillator strengths:

 Excited state symmetry could not be determined.
 Excited State   1:      Triplet-?Sym    3.5398 eV  350.26 nm  f=0.0000  <S**2>=2.000
      64 -> 72        -0.11994
      67 -> 71         0.29882
      69 -> 71        -0.23008
      70 -> 72         0.58181
 This state for optimization and/or second-order correction.
 Total Energy, E(TD-HF/TD-DFT) =  -807.546287869
 Copying the excited state density for this state as the 1-particle RhoCI density.

 Excited state symmetry could not be determined.
 Excited State   2:      Triplet-?Sym    3.7318 eV  332.24 nm  f=0.0000  <S**2>=2.000
      70 -> 71         0.69795

 Excited state symmetry could not be determined.
 Excited State   3:      Singlet-?Sym    4.5619 eV  271.78 nm  f=0.0514  <S**2>=0.000
      67 -> 72        -0.15810
      69 -> 72         0.13445
      70 -> 71         0.67498

 Excited state symmetry could not be determined.
 Excited State   4:      Singlet-?Sym    5.3667 eV  231.02 nm  f=0.0937  <S**2>=0.000
      69 -> 71        -0.31661
      70 -> 72         0.61009

 Alpha  occ. eigenvalues --  -19.09887 -14.34936 -14.34415 -10.27461 -10.22694
 Alpha  occ. eigenvalues --  -10.22193 -10.21469 -10.19838 -10.19472 -10.19078
 Alpha  occ. eigenvalues --  -10.18971 -10.18766 -10.18613 -10.18440 -10.18362
 Alpha  occ. eigenvalues --  -10.17845 -10.17324 -10.17213 -10.17161  -1.01812
 Alpha  occ. eigenvalues --   -0.93927  -0.91131  -0.85774  -0.84018  -0.80286
 Alpha  occ. eigenvalues --   -0.74965  -0.73224  -0.72956  -0.70001  -0.68285
 Alpha  occ. eigenvalues --   -0.66432  -0.62450  -0.61124  -0.57959  -0.57377
 Alpha  occ. eigenvalues --   -0.55400  -0.53186  -0.52678  -0.50159  -0.49074
 Alpha  occ. eigenvalues --   -0.48230  -0.47393  -0.45669  -0.45206  -0.44339
 Alpha  occ. eigenvalues --   -0.42650  -0.42282  -0.41913  -0.41712  -0.40617
 Alpha  occ. eigenvalues --   -0.39600  -0.39015  -0.38721  -0.38033  -0.37598
 Alpha  occ. eigenvalues --   -0.37522  -0.36960  -0.35988  -0.34890  -0.34504
 Alpha  occ. eigenvalues --   -0.33308  -0.32927  -0.32188  -0.29391  -0.27145
 Alpha  occ. eigenvalues --   -0.26870  -0.24822  -0.23812  -0.23143  -0.19678
 Alpha virt. eigenvalues --   -0.00292   0.01451   0.03654   0.08158   0.09060
 Alpha virt. eigenvalues --    0.10210   0.10386   0.11189   0.12323   0.12914
 Alpha virt. eigenvalues --    0.13300   0.13588   0.14399   0.14911   0.15411

 Mulliken charges:
               1
     1  C   -0.461589
     2  C    0.124085
     3  C   -0.471700
     4  C   -0.337604
     5  C   -0.113368
     6  C   -0.158357
     7  N   -0.588546
     8  C    0.603688
     9  O   -0.544116
    10  C   -0.237694
    11  C   -0.279052
    12  C   -0.137798
    13  N   -0.646829
    14  C    0.290898
    15  C   -0.196590
    16  C   -0.132848
    17  C   -0.141142
    18  C   -0.201558
    19  C    0.086987
    20  H    0.141446
    21  H    0.143557
    22  H    0.138057
    23  H    0.139895
    24  H    0.145022
    25  H    0.157846
    26  H    0.174154
    27  H    0.138814
    28  H    0.124226
    29  H    0.180418
    30  H    0.142856
    31  H    0.332013
    32  H    0.168851
    33  H    0.155068
    34  H    0.163383
    35  H    0.146493
    36  H    0.136982
    37  H    0.313081
    38  H    0.115992
    39  H    0.126378
    40  H    0.123703
    41  H    0.134898
 Sum of Mulliken charges =  -0.00000

 Dipole moment (field-independent basis, Debye):
    X=             -1.8545    Y=             -2.6159    Z=              0.4386  Tot=              3.2364
 Quadrupole moment (field-independent basis, Debye-Ang):
   XX=           -103.5160   YY=           -119.0034   ZZ=           -107.8041
   XY=              2.0256   XZ=              6.7515   YZ=              4.7905

 Normal termination of Gaussian 16 at Sat Nov  5 11:39:15 2022.
