 Gaussian 16, Revision B.01,
 Gaussian 16:  ES64L-G16RevB.01 20-Dec-2017

 -----------------------------
 #p b3lyp/6-31g(d) opt SCF=XQC
 -----------------------------

 ------------------------------
 Gaussian input prepared by ASE
 ------------------------------
 Symbolic Z-matrix:
 Charge =  0 Multiplicity = 1

 SCF Done:  E(RB3LYP) =  -807.670078627     A.U. after   15 cycles
 SCF Done:  E(RB3LYP) =  -807.674914270     A.U. after   12 cycles
 SCF Done:  E(RB3LYP) =  -807.675377863     A.U. after   12 cycles
 SCF Done:  E(RB3LYP) =  -807.675906331     A.U. after   12 cycles
 SCF Done:  E(RB3LYP) =  -807.676185876     A.U. after   11 cycles
 SCF Done:  E(RB3LYP) =  -807.676310845     A.U. after   12 cycles
 SCF Done:  E(RB3LYP) =  -807.676348580     A.U. after   10 cycles
 SCF Done:  E(RB3LYP) =  -807.676361753     A.U. after   10 cycles
 SCF Done:  E(RB3LYP) =  -807.676364056     A.U. after    8 cycles
 SCF Done:  E(RB3LYP) =  -807.676364810     A.U. after    9 cycles
 SCF Done:  E(RB3LYP) =  -807.676365157     A.U. after    8 cycles
 SCF Done:  E(RB3LYP) =  -807.676365371     A.U. after    8 cycles
 SCF Done:  E(RB3LYP) =  -807.676365454     A.U. after    7 cycles
 SCF Done:  E(RB3LYP) =  -807.676365465     A.U. after    7 cycles
 Optimization completed.
    -- Stationary point found.

                         Standard orientation:
 ---------------------------------------------------------------------
 Center     Atomic      Atomic             Coordinates (Angstroms)
 Number     Number       Type             X           Y           Z
 ---------------------------------------------------------------------
      1          6           0        5.203638   -0.261901   -1.768472
      2          6           0        4.334026   -0.136711   -0.527321
      3          6           0        5.051930   -0.532401    0.753755
      4          6           0        3.338665    1.001806   -0.479474
      5          6           0        2.848129   -0.412524   -0.706865
      6          6           0        1.996701   -1.110228    0.338322
      7          7           0        0.610659   -0.650494    0.351155
      8          6           0        0.158435    0.280013    1.237111
      9          8           0        0.859787    0.761924    2.123395
     10          6           0       -1.282276    0.786383    1.028912
     11          6           0       -1.178745    2.111883    0.235019
     12          6           0       -2.553193    2.576950   -0.235367
     13          7           0       -3.122821    1.549594   -1.100017
     14          6           0       -3.152630    0.236897   -0.627056
     15          6           0       -4.059187   -0.684947   -1.183400
     16          6           0       -4.107801   -1.999262   -0.735303
     17          6           0       -3.255341   -2.424682    0.286875
     18          6           0       -2.350735   -1.516560    0.833682
     19          6           0       -2.263864   -0.189764    0.388215
     20          1           0        5.545737   -1.295594   -1.910717
     21          1           0        6.095021    0.374064   -1.688437
     22          1           0        4.661455    0.037698   -2.672669
     23          1           0        5.350046   -1.589142    0.735352
     24          1           0        5.965435    0.064471    0.872174
     25          1           0        4.441345   -0.367923    1.646221
     26          1           0        3.115823    1.445503    0.487621
     27          1           0        3.305982    1.701375   -1.311846
     28          1           0        2.551879   -0.648020   -1.729921
     29          1           0        2.381421   -0.928701    1.342919
     30          1           0        1.996357   -2.194531    0.169495
     31          1           0       -0.029615   -0.988744   -0.353851
     32          1           0       -1.629216    1.026951    2.041802
     33          1           0       -0.543099    1.964467   -0.646722
     34          1           0       -0.702601    2.870056    0.863537
     35          1           0       -2.465883    3.502925   -0.813733
     36          1           0       -3.196384    2.787633    0.637416
     37          1           0       -3.971226    1.826907   -1.578431
     38          1           0       -4.731017   -0.351580   -1.972184
     39          1           0       -4.820395   -2.689873   -1.178911
     40          1           0       -3.296061   -3.445808    0.654113
     41          1           0       -1.684681   -1.840922    1.629836
 ---------------------------------------------------------------------

 The electronic state is 1-A.
 Alpha  occ. eigenvalues --  -19.09886 -14.34936 -14.34415 -10.27461 -10.22694
 Alpha  occ. eigenvalues --  -10.22193 -10.21469 -10.19838 -10.19472 -10.19078
 Alpha  occ. eigenvalues --  -10.18971 -10.18766 -10.18613 -10.18440 -10.18362
 Alpha  occ. eigenvalues --  -10.17845 -10.17324 -10.17213 -10.17161  -1.01812
 Alpha  occ. eigenvalues --   -0.93927  -0.91131  -0.85774  -0.84018  -0.80286
 Alpha  occ. eigenvalues --   -0.74965  -0.73224  -0.72956  -0.70001  -0.68285
 Alpha  occ. eigenvalues --   -0.66432  -0.62450  -0.61124  -0.57959  -0.57377
 Alpha  occ. eigenvalues --   -0.55400  -0.53186  -0.52678  -0.50159  -0.49074
 Alpha  occ. eigenvalues --   -0.48230  -0.47393  -0.45669  -0.45206  -0.44339
 Alpha  occ. eigenvalues --   -0.42650  -0.42282  -0.41913  -0.41712  -0.40617
 Alpha  occ. eigenvalues --   -0.39600  -0.39015  -0.38721  -0.38033  -0.37598
 Alpha  occ. eigenvalues --   -0.37522  -0.36960  -0.35988  -0.34890  -0.34504
 Alpha  occ. eigenvalues --   -0.33308  -0.32927  -0.32188  -0.29391  -0.27145
 Alpha  occ. eigenvalues --   -0.26870  -0.24822  -0.23812  -0.23143  -0.19678
 Alpha virt. eigenvalues --   -0.00292   0.01451   0.03654   0.08158   0.09060
 Alpha virt. eigenvalues --    0.10210   0.10386   0.11189   0.12323   0.12914
 Alpha virt. eigenvalues --    0.13300   0.13588   0.14399   0.14911   0.15411

 Mulliken charges:
               1
     1  C   -0.461596
     2  C    0.124093
     3  C   -0.471700
     4  C   -0.337616
     5  C   -0.113355
     6  C   -0.158349
     7  N   -0.588567
     8  C    0.603715
     9  O   -0.544131
    10  C   -0.237702
    11  C   -0.279030
    12  C   -0.137807
    13  N   -0.646833
    14  C    0.290910
    15  C   -0.196604
    16  C   -0.132848
    17  C   -0.141134
    18  C   -0.201561
    19  C    0.086990
    20  H    0.141447
    21  H    0.143557
    22  H    0.138058
    23  H    0.139895
    24  H    0.145022
    25  H    0.157846
    26  H    0.174154
    27  H    0.138815
    28  H    0.124224
    29  H    0.180416
    30  H    0.142854
    31  H    0.332014
    32  H    0.168848
    33  H    0.155063
    34  H    0.163380
    35  H    0.146493
    36  H    0.136982
    37  H    0.313083
    38  H    0.115993
    39  H    0.126378
    40  H    0.123701
    41  H    0.134901
 Sum of Mulliken charges =  -0.00000

 Dipole moment (field-independent basis, Debye):
    X=             -1.7476    Y=             -0.0757    Z=             -2.7230  Tot=              3.2365
 Quadrupole moment (field-independent basis, Debye-Ang):
   XX=           -105.3516   YY=           -106.4429   ZZ=           -119.2395
   XY=             -6.9382   XZ=              0.9461   YZ=             -3.7092

 Normal termination of Gaussian 16 at Fri Nov  4 18:40:19 2022.
