 Gaussian 16, Revision B.01,
 Gaussian 16:  ES64L-G16RevB.01 20-Dec-2017

 -------------------------------------------------------------------
 #p b3lyp/6-31g(d) 6D 10F nosymm GFInput td=(50-50,nstate=2) SCF=XQC
 -------------------------------------------------------------------

 ------------------------------
 Gaussian input prepared by ASE
 ------------------------------
 Symbolic Z-matrix:
 Charge =  0 Multiplicity = 1

                          Input orientation:
 ---------------------------------------------------------------------
 Center     Atomic      Atomic             Coordinates (Angstroms)
 Number     Number       Type             X           Y           Z
 ---------------------------------------------------------------------
      1          6           0        4.513212    1.282423   -1.476075
      2          6           0        4.200539    0.092079   -0.565244
      3          6           0        4.801298    0.303367    0.828503
      4          6           0        4.664613   -1.219743   -1.207165
      5          8           0        2.730626    0.125980   -0.492058
      6          6           0        2.046130   -0.787332    0.238960
      7          8           0        2.537934   -1.700816    0.887426
      8          7           0        0.699044   -0.545291    0.148734
      9          6           0        0.153757    0.581857   -0.618865
     10          6           0       -1.374441    0.534538   -0.608170
     11          6           0       -1.975225    0.527684    0.836762
     12          6           0       -1.735381    1.862937    1.416554
     13          7           0       -1.511920    2.913881    1.857592
     14          6           0       -3.485933    0.240631    0.760270
     15          6           0       -4.448793    1.231223    0.982918
     16          6           0       -5.810323    0.939662    0.869824
     17          6           0       -6.230917   -0.344687    0.529130
     18          6           0       -5.278223   -1.339810    0.301411
     19          6           0       -3.920008   -1.048660    0.415672
     20          6           0       -1.198839   -0.529952    1.722348
     21          6           0       -0.221369   -1.384407    0.909369
     22          1           0        4.047383    1.151524   -2.458358
     23          1           0        5.595375    1.374857   -1.615709
     24          1           0        4.139521    2.213546   -1.037882
     25          1           0        4.563454   -0.532051    1.488421
     26          1           0        4.416017    1.228099    1.272193
     27          1           0        5.890623    0.393193    0.748874
     28          1           0        4.423737   -2.073313   -0.571996
     29          1           0        5.748896   -1.188823   -1.363356
     30          1           0        4.185201   -1.355952   -2.183066
     31          1           0        0.505900    1.532720   -0.198995
     32          1           0        0.513843    0.537959   -1.652353
     33          1           0       -1.768734    1.392203   -1.161719
     34          1           0       -1.727562   -0.363903   -1.124105
     35          1           0       -4.139071    2.235782    1.254476
     36          1           0       -6.540502    1.723388    1.052331
     37          1           0       -7.290076   -0.570712    0.442780
     38          1           0       -5.591031   -2.346051    0.035866
     39          1           0       -3.194619   -1.837871    0.234821
     40          1           0       -0.634305   -0.004836    2.498404
     41          1           0       -1.919292   -1.175578    2.232600
     42          1           0        0.383333   -2.003745    1.572841
     43          1           0       -0.763872   -2.065999    0.237564
 ---------------------------------------------------------------------

 SCF Done:  E(RB3LYP) =  -921.023990278     A.U. after   15 cycles

 Excitation energies and oscillator strengths:

 Excited state symmetry could not be determined.
 Excited State   1:      Triplet-?Sym    3.7429 eV  331.25 nm  f=0.0000  <S**2>=2.000
      74 -> 79         0.23028
      75 -> 78         0.32698
      75 -> 79        -0.31175
      76 -> 78         0.41930
      76 -> 79         0.24976
 This state for optimization and/or second-order correction.
 Total Energy, E(TD-HF/TD-DFT) =  -920.886440073
 Copying the excited state density for this state as the 1-particle RhoCI density.

 Excited state symmetry could not be determined.
 Excited State   2:      Triplet-?Sym    4.7006 eV  263.76 nm  f=0.0000  <S**2>=2.000
      74 -> 78        -0.27155
      75 -> 78         0.34914
      75 -> 79        -0.32936
      76 -> 78        -0.32987
      76 -> 79        -0.28424

 Excited state symmetry could not be determined.
 Excited State   3:      Singlet-?Sym    5.4085 eV  229.24 nm  f=0.0027  <S**2>=0.000
      74 -> 78        -0.21141
      75 -> 78         0.29698
      75 -> 79         0.25603
      76 -> 78        -0.25920
      76 -> 79         0.34290
      77 -> 78        -0.33516

 Excited state symmetry could not be determined.
 Excited State   4:      Singlet-?Sym    5.4651 eV  226.86 nm  f=0.0010  <S**2>=0.000
      74 -> 78        -0.11087
      75 -> 78         0.17591
      75 -> 79         0.13661
      76 -> 78        -0.14784
      76 -> 79         0.17454
      77 -> 78         0.61899

 Alpha  occ. eigenvalues --  -19.17628 -19.11027 -14.36236 -14.33520 -10.32505
 Alpha  occ. eigenvalues --  -10.25611 -10.25451 -10.23050 -10.22817 -10.22693
 Alpha  occ. eigenvalues --  -10.21626 -10.21453 -10.20906 -10.20358 -10.20219
 Alpha  occ. eigenvalues --  -10.20036 -10.19973 -10.19909 -10.17803 -10.17141
 Alpha  occ. eigenvalues --  -10.17045  -1.09025  -1.00043  -0.94418  -0.90860
 Alpha  occ. eigenvalues --   -0.87208  -0.83439  -0.80482  -0.77773  -0.75731
 Alpha  occ. eigenvalues --   -0.75414  -0.70460  -0.69136  -0.68885  -0.66260
 Alpha  occ. eigenvalues --   -0.63520  -0.61727  -0.60439  -0.57870  -0.55280
 Alpha  occ. eigenvalues --   -0.54049  -0.50614  -0.50134  -0.49235  -0.47323
 Alpha  occ. eigenvalues --   -0.47223  -0.45874  -0.45566  -0.44956  -0.44025
 Alpha  occ. eigenvalues --   -0.43448  -0.43270  -0.43008  -0.42582  -0.40801
 Alpha  occ. eigenvalues --   -0.40553  -0.39501  -0.39275  -0.38808  -0.38015
 Alpha  occ. eigenvalues --   -0.37574  -0.37143  -0.36537  -0.36153  -0.35915
 Alpha  occ. eigenvalues --   -0.35221  -0.34819  -0.34683  -0.34312  -0.33028
 Alpha  occ. eigenvalues --   -0.32122  -0.32068  -0.28679  -0.26185  -0.26101
 Alpha  occ. eigenvalues --   -0.25520  -0.23783
 Alpha virt. eigenvalues --   -0.01726  -0.01138   0.03034   0.03678   0.05262
 Alpha virt. eigenvalues --    0.06999   0.08201   0.09446   0.10205   0.10271
 Alpha virt. eigenvalues --    0.12032   0.12714   0.14326   0.14387   0.14513

 Mulliken charges:
               1
     1  C   -0.451166
     2  C    0.320689
     3  C   -0.466858
     4  C   -0.466209
     5  O   -0.529699
     6  C    0.813139
     7  O   -0.540382
     8  N   -0.473189
     9  C   -0.109470
    10  C   -0.303122
    11  C   -0.035775
    12  C    0.342157
    13  N   -0.496504
    14  C    0.136046
    15  C   -0.180879
    16  C   -0.136889
    17  C   -0.122682
    18  C   -0.135886
    19  C   -0.175369
    20  C   -0.303433
    21  C   -0.156139
    22  H    0.149799
    23  H    0.145775
    24  H    0.154315
    25  H    0.188949
    26  H    0.147668
    27  H    0.140719
    28  H    0.189365
    29  H    0.141071
    30  H    0.143186
    31  H    0.173478
    32  H    0.163305
    33  H    0.170538
    34  H    0.163960
    35  H    0.159673
    36  H    0.139393
    37  H    0.135414
    38  H    0.136259
    39  H    0.131355
    40  H    0.182187
    41  H    0.168070
    42  H    0.200083
    43  H    0.147058
 Sum of Mulliken charges =  -0.00000

 Dipole moment (field-independent basis, Debye):
    X=             -1.6931    Y=             -1.5942    Z=             -2.5545  Tot=              3.4545
 Quadrupole moment (field-independent basis, Debye-Ang):
   XX=           -107.4452   YY=           -135.0545   ZZ=           -128.4687
   XY=             10.1009   XZ=             -2.6584   YZ=             -4.7115

 Normal termination of Gaussian 16 at Sat Nov  5 11:26:51 2022.
