 Gaussian 16, Revision B.01,
 Gaussian 16:  ES64L-G16RevB.01 20-Dec-2017

 -----------------------------
 #p b3lyp/6-31g(d) opt SCF=XQC
 -----------------------------

 ------------------------------
 Gaussian input prepared by ASE
 ------------------------------
 Symbolic Z-matrix:
 Charge =  0 Multiplicity = 1

 SCF Done:  E(RB3LYP) =  -921.015184441     A.U. after   15 cycles
 SCF Done:  E(RB3LYP) =  -921.020636859     A.U. after   14 cycles
 SCF Done:  E(RB3LYP) =  -921.021231358     A.U. after   13 cycles
 SCF Done:  E(RB3LYP) =  -921.022335208     A.U. after   12 cycles
 SCF Done:  E(RB3LYP) =  -921.022508204     A.U. after   11 cycles
 SCF Done:  E(RB3LYP) =  -921.022622130     A.U. after   11 cycles
 SCF Done:  E(RB3LYP) =  -921.022707238     A.U. after   11 cycles
 SCF Done:  E(RB3LYP) =  -921.022754753     A.U. after   11 cycles
 SCF Done:  E(RB3LYP) =  -921.022771415     A.U. after   11 cycles
 SCF Done:  E(RB3LYP) =  -921.022789240     A.U. after   11 cycles
 SCF Done:  E(RB3LYP) =  -921.023956863     A.U. after   11 cycles
 SCF Done:  E(RB3LYP) =  -921.023976649     A.U. after   12 cycles
 SCF Done:  E(RB3LYP) =  -921.023962770     A.U. after   11 cycles
 SCF Done:  E(RB3LYP) =  -921.023984679     A.U. after   12 cycles
 SCF Done:  E(RB3LYP) =  -921.023978682     A.U. after   11 cycles
 SCF Done:  E(RB3LYP) =  -921.023985903     A.U. after   11 cycles
 SCF Done:  E(RB3LYP) =  -921.023981511     A.U. after   11 cycles
 SCF Done:  E(RB3LYP) =  -921.023986536     A.U. after   11 cycles
 SCF Done:  E(RB3LYP) =  -921.023986565     A.U. after    8 cycles
 SCF Done:  E(RB3LYP) =  -921.023986572     A.U. after    8 cycles
 Optimization completed.
    -- Stationary point found.

                         Standard orientation:
 ---------------------------------------------------------------------
 Center     Atomic      Atomic             Coordinates (Angstroms)
 Number     Number       Type             X           Y           Z
 ---------------------------------------------------------------------
      1          6           0       -4.947890    1.271339    1.302368
      2          6           0       -4.562279    0.180435    0.299606
      3          6           0       -4.963003    0.585405   -1.122893
      4          6           0       -5.157879   -1.170348    0.710641
      5          8           0       -3.095547    0.142989    0.419802
      6          6           0       -2.355105   -0.714347   -0.324362
      7          8           0       -2.790585   -1.517788   -1.137794
      8          7           0       -1.023848   -0.557834   -0.033464
      9          6           0       -0.543116    0.440669    0.930330
     10          6           0        0.969876    0.312220    1.109493
     11          6           0        1.757511    0.441765   -0.236489
     12          6           0        1.648622    1.846650   -0.673553
     13          7           0        1.526527    2.952490   -1.006935
     14          6           0        3.232346    0.066336   -0.003241
     15          6           0        4.253590    1.022544    0.022650
     16          6           0        5.575634    0.646446    0.272278
     17          6           0        5.897398   -0.689804    0.503425
     18          6           0        4.885370   -1.651649    0.483268
     19          6           0        3.566750   -1.276001    0.232864
     20          6           0        1.066343   -0.461498   -1.337412
     21          6           0       -0.042976   -1.350909   -0.767469
     22          1           0       -4.622761    1.001489    2.312558
     23          1           0       -6.034658    1.405298    1.312708
     24          1           0       -4.483599    2.225679    1.033447
     25          1           0       -4.671387   -0.178804   -1.844648
     26          1           0       -4.486746    1.533421   -1.396527
     27          1           0       -6.048952    0.724178   -1.172842
     28          1           0       -4.867262   -1.955614    0.011397
     29          1           0       -6.251318   -1.099211    0.729439
     30          1           0       -4.818652   -1.445453    1.715635
     31          1           0       -0.799311    1.451759    0.589009
     32          1           0       -1.039395    0.295847    1.895949
     33          1           0        1.319324    1.076682    1.810175
     34          1           0        1.216222   -0.658165    1.551925
     35          1           0        4.021660    2.067248   -0.160682
     36          1           0        6.353160    1.405423    0.282465
     37          1           0        6.926087   -0.981407    0.696110
     38          1           0        5.121095   -2.697486    0.660869
     39          1           0        2.793978   -2.040484    0.220986
     40          1           0        0.631048    0.180528   -2.108795
     41          1           0        1.823181   -1.081129   -1.826795
     42          1           0       -0.576974   -1.854786   -1.573938
     43          1           0        0.378420   -2.134727   -0.120743
 ---------------------------------------------------------------------

 The electronic state is 1-A.
 Alpha  occ. eigenvalues --  -19.17628 -19.11027 -14.36236 -14.33520 -10.32505
 Alpha  occ. eigenvalues --  -10.25611 -10.25451 -10.23050 -10.22817 -10.22693
 Alpha  occ. eigenvalues --  -10.21626 -10.21453 -10.20906 -10.20358 -10.20219
 Alpha  occ. eigenvalues --  -10.20036 -10.19973 -10.19910 -10.17803 -10.17141
 Alpha  occ. eigenvalues --  -10.17045  -1.09025  -1.00043  -0.94418  -0.90860
 Alpha  occ. eigenvalues --   -0.87208  -0.83438  -0.80482  -0.77773  -0.75731
 Alpha  occ. eigenvalues --   -0.75414  -0.70460  -0.69136  -0.68885  -0.66260
 Alpha  occ. eigenvalues --   -0.63520  -0.61727  -0.60439  -0.57870  -0.55280
 Alpha  occ. eigenvalues --   -0.54049  -0.50614  -0.50134  -0.49235  -0.47323
 Alpha  occ. eigenvalues --   -0.47223  -0.45874  -0.45566  -0.44956  -0.44025
 Alpha  occ. eigenvalues --   -0.43448  -0.43270  -0.43008  -0.42582  -0.40801
 Alpha  occ. eigenvalues --   -0.40553  -0.39501  -0.39275  -0.38808  -0.38015
 Alpha  occ. eigenvalues --   -0.37574  -0.37143  -0.36537  -0.36153  -0.35915
 Alpha  occ. eigenvalues --   -0.35220  -0.34819  -0.34683  -0.34312  -0.33028
 Alpha  occ. eigenvalues --   -0.32122  -0.32068  -0.28679  -0.26185  -0.26101
 Alpha  occ. eigenvalues --   -0.25520  -0.23783
 Alpha virt. eigenvalues --   -0.01726  -0.01138   0.03034   0.03678   0.05262
 Alpha virt. eigenvalues --    0.06999   0.08201   0.09446   0.10205   0.10271
 Alpha virt. eigenvalues --    0.12032   0.12714   0.14326   0.14387   0.14513

 Mulliken charges:
               1
     1  C   -0.451165
     2  C    0.320692
     3  C   -0.466855
     4  C   -0.466221
     5  O   -0.529711
     6  C    0.813172
     7  O   -0.540384
     8  N   -0.473206
     9  C   -0.109473
    10  C   -0.303127
    11  C   -0.035745
    12  C    0.342154
    13  N   -0.496509
    14  C    0.136025
    15  C   -0.180872
    16  C   -0.136891
    17  C   -0.122681
    18  C   -0.135887
    19  C   -0.175364
    20  C   -0.303433
    21  C   -0.156146
    22  H    0.149798
    23  H    0.145775
    24  H    0.154314
    25  H    0.188948
    26  H    0.147667
    27  H    0.140719
    28  H    0.189367
    29  H    0.141072
    30  H    0.143189
    31  H    0.173483
    32  H    0.163305
    33  H    0.170536
    34  H    0.163960
    35  H    0.159673
    36  H    0.139393
    37  H    0.135415
    38  H    0.136259
    39  H    0.131355
    40  H    0.182186
    41  H    0.168069
    42  H    0.200084
    43  H    0.147059
 Sum of Mulliken charges =  -0.00000

 Dipole moment (field-independent basis, Debye):
    X=              1.2745    Y=             -1.9712    Z=              2.5345  Tot=              3.4545
 Quadrupole moment (field-independent basis, Debye-Ang):
   XX=           -108.8156   YY=           -134.6392   ZZ=           -126.7055
   XY=            -11.0740   XZ=             -1.5866   YZ=              1.8344

 Normal termination of Gaussian 16 at Fri Nov  4 19:08:08 2022.
