 Gaussian 16, Revision B.01,
 Gaussian 16:  ES64L-G16RevB.01 20-Dec-2017

 -----------------------------
 #p b3lyp/6-31g(d) opt SCF=XQC
 -----------------------------

 ------------------------------
 Gaussian input prepared by ASE
 ------------------------------
 Symbolic Z-matrix:
 Charge =  0 Multiplicity = 1

 SCF Done:  E(RB3LYP) =  -694.122922258     A.U. after   14 cycles
 SCF Done:  E(RB3LYP) =  -694.126274317     A.U. after   12 cycles
 SCF Done:  E(RB3LYP) =  -694.126520756     A.U. after   11 cycles
 SCF Done:  E(RB3LYP) =  -694.126570639     A.U. after   10 cycles
 SCF Done:  E(RB3LYP) =  -694.126617324     A.U. after   11 cycles
 SCF Done:  E(RB3LYP) =  -694.126615770     A.U. after   10 cycles
 SCF Done:  E(RB3LYP) =  -694.126692624     A.U. after   11 cycles
 SCF Done:  E(RB3LYP) =  -694.126633404     A.U. after   12 cycles
 SCF Done:  E(RB3LYP) =  -694.126758432     A.U. after   12 cycles
 SCF Done:  E(RB3LYP) =  -694.126752123     A.U. after   10 cycles
 SCF Done:  E(RB3LYP) =  -694.126769192     A.U. after   11 cycles
 SCF Done:  E(RB3LYP) =  -694.126770481     A.U. after    9 cycles
 SCF Done:  E(RB3LYP) =  -694.126770592     A.U. after    8 cycles
 SCF Done:  E(RB3LYP) =  -694.126770613     A.U. after    9 cycles
 SCF Done:  E(RB3LYP) =  -694.126770806     A.U. after    8 cycles
 SCF Done:  E(RB3LYP) =  -694.126770855     A.U. after    7 cycles
 SCF Done:  E(RB3LYP) =  -694.126770899     A.U. after    7 cycles
 Optimization completed.
    -- Stationary point found.

                         Standard orientation:
 ---------------------------------------------------------------------
 Center     Atomic      Atomic             Coordinates (Angstroms)
 Number     Number       Type             X           Y           Z
 ---------------------------------------------------------------------
      1          6           0        5.613710   -1.331653   -0.437921
      2          6           0        4.201549   -0.973597   -0.911786
      3          6           0        3.439152   -0.084492    0.080395
      4          6           0        2.025977    0.272723   -0.400376
      5          6           0        1.176026    1.051215    0.625702
      6          6           0        1.726247    2.443920    0.946928
      7          7           0       -0.208263    1.196392    0.165279
      8          6           0       -1.154308    0.226238    0.271873
      9          7           0       -0.902096   -0.894245    0.970831
     10          6           0       -1.902593   -1.777687    1.055351
     11          7           0       -3.121405   -1.697657    0.527772
     12          6           0       -3.389733   -0.577943   -0.187654
     13          6           0       -4.749054   -0.430133   -0.814852
     14          6           0       -2.421389    0.391755   -0.324572
     15          9           0       -2.656144    1.527252   -1.038793
     16          1           0        5.586338   -1.872664    0.515936
     17          1           0        6.130423   -1.967114   -1.166082
     18          1           0        6.223289   -0.431590   -0.289872
     19          1           0        3.627755   -1.894663   -1.084989
     20          1           0        4.259436   -0.463818   -1.884095
     21          1           0        3.371989   -0.601397    1.049320
     22          1           0        4.023399    0.828817    0.259234
     23          1           0        1.487663   -0.652576   -0.640290
     24          1           0        2.084816    0.855299   -1.332238
     25          1           0        1.125662    0.460506    1.545793
     26          1           0        2.737522    2.380519    1.358476
     27          1           0        1.090755    2.952254    1.679220
     28          1           0        1.775191    3.066993    0.043343
     29          1           0       -0.418275    1.953031   -0.471286
     30          1           0       -1.686065   -2.678376    1.627445
     31          1           0       -4.674626   -0.336123   -1.904612
     32          1           0       -5.352423   -1.306861   -0.572466
     33          1           0       -5.258711    0.468990   -0.449394
 ---------------------------------------------------------------------

 The electronic state is 1-A.
 Alpha  occ. eigenvalues --  -24.71632 -14.36067 -14.32600 -14.31970 -10.27326
 Alpha  occ. eigenvalues --  -10.26627 -10.24355 -10.23702 -10.22868 -10.18639
 Alpha  occ. eigenvalues --  -10.18516 -10.18217 -10.18192 -10.18149 -10.17394
 Alpha  occ. eigenvalues --   -1.22312  -0.98827  -0.94107  -0.87145  -0.80904
 Alpha  occ. eigenvalues --   -0.78698  -0.76332  -0.72073  -0.71163  -0.65564
 Alpha  occ. eigenvalues --   -0.64970  -0.62227  -0.59248  -0.57846  -0.55096
 Alpha  occ. eigenvalues --   -0.53452  -0.52347  -0.47673  -0.47505  -0.46629
 Alpha  occ. eigenvalues --   -0.45345  -0.44623  -0.42785  -0.42087  -0.41693
 Alpha  occ. eigenvalues --   -0.41169  -0.40298  -0.39736  -0.38964  -0.38809
 Alpha  occ. eigenvalues --   -0.38163  -0.36982  -0.35652  -0.34317  -0.33808
 Alpha  occ. eigenvalues --   -0.33114  -0.32444  -0.31434  -0.29687  -0.27231
 Alpha  occ. eigenvalues --   -0.24417  -0.21905
 Alpha virt. eigenvalues --   -0.01579  -0.00004   0.08010   0.09089   0.10476
 Alpha virt. eigenvalues --    0.11421   0.12106   0.12824   0.13668   0.13894
 Alpha virt. eigenvalues --    0.14802   0.15364   0.15772   0.16219   0.16838

 Mulliken charges:
               1
     1  C   -0.442780
     2  C   -0.248407
     3  C   -0.256884
     4  C   -0.252891
     5  C    0.056450
     6  C   -0.467592
     7  N   -0.656210
     8  C    0.516695
     9  N   -0.502205
    10  C    0.159322
    11  N   -0.459136
    12  C    0.243698
    13  C   -0.517449
    14  C    0.274045
    15  F   -0.304178
    16  H    0.143527
    17  H    0.143623
    18  H    0.140616
    19  H    0.136103
    20  H    0.130607
    21  H    0.135235
    22  H    0.129871
    23  H    0.153399
    24  H    0.119557
    25  H    0.170278
    26  H    0.161029
    27  H    0.159822
    28  H    0.138379
    29  H    0.328511
    30  H    0.145828
    31  H    0.169999
    32  H    0.180648
    33  H    0.170492
 Sum of Mulliken charges =  -0.00000

 Dipole moment (field-independent basis, Debye):
    X=              1.6251    Y=              2.1131    Z=             -0.9481  Tot=              2.8293
 Quadrupole moment (field-independent basis, Debye-Ang):
   XX=            -89.9185   YY=            -90.8408   ZZ=            -90.6287
   XY=             -2.4246   XZ=              2.5819   YZ=              0.7145

 Normal termination of Gaussian 16 at Fri Nov  4 18:29:11 2022.
