 Gaussian 16, Revision B.01,
 Gaussian 16:  ES64L-G16RevB.01 20-Dec-2017

 -------------------------------------------------------------------
 #p b3lyp/6-31g(d) 6D 10F nosymm GFInput td=(50-50,nstate=2) SCF=XQC
 -------------------------------------------------------------------

 ------------------------------
 Gaussian input prepared by ASE
 ------------------------------
 Symbolic Z-matrix:
 Charge =  0 Multiplicity = 1

                          Input orientation:
 ---------------------------------------------------------------------
 Center     Atomic      Atomic             Coordinates (Angstroms)
 Number     Number       Type             X           Y           Z
 ---------------------------------------------------------------------
      1          6           0       -4.793225   -1.335673   -0.838604
      2          6           0       -3.440952   -1.370014   -0.119488
      3          6           0       -2.692420   -0.031148   -0.177094
      4          6           0       -1.339464   -0.070772    0.546611
      5          6           0       -0.493557    1.211246    0.397701
      6          6           0       -1.127548    2.443355    1.050018
      7          7           0        0.847683    1.029088    0.960922
      8          6           0        1.868288    0.404206    0.316366
      9          7           0        1.740715    0.050263   -0.974403
     10          6           0        2.807784   -0.524936   -1.539307
     11          7           0        3.985361   -0.803279   -0.986058
     12          6           0        4.128104   -0.460795    0.317752
     13          6           0        5.434853   -0.754491    1.002683
     14          6           0        3.083617    0.142821    0.982167
     15          9           0        3.191822    0.497160    2.292628
     16          1           0       -4.671457   -1.086230   -1.899846
     17          1           0       -5.301231   -2.305012   -0.780879
     18          1           0       -5.459190   -0.584033   -0.396849
     19          1           0       -2.810463   -2.154743   -0.560266
     20          1           0       -3.591804   -1.655432    0.931411
     21          1           0       -2.531990    0.246895   -1.229458
     22          1           0       -3.332414    0.751525    0.253360
     23          1           0       -0.747756   -0.904431    0.148600
     24          1           0       -1.494431   -0.275284    1.616837
     25          1           0       -0.347084    1.401659   -0.670161
     26          1           0       -2.106317    2.658751    0.612199
     27          1           0       -0.491528    3.324056    0.914564
     28          1           0       -1.274100    2.287942    2.127724
     29          1           0        0.964042    1.157203    1.956847
     30          1           0        2.692085   -0.802737   -2.585662
     31          1           0        5.292048   -1.425385    1.857938
     32          1           0        6.114977   -1.224412    0.289899
     33          1           0        5.895551    0.162642    1.387855
 ---------------------------------------------------------------------

 SCF Done:  E(RB3LYP) =  -694.126767214     A.U. after   14 cycles

 Excitation energies and oscillator strengths:

 Excited state symmetry could not be determined.
 Excited State   1:      Triplet-?Sym    3.8138 eV  325.09 nm  f=0.0000  <S**2>=2.000
      55 -> 58         0.25980
      57 -> 58         0.53979
      57 -> 59        -0.35292
 This state for optimization and/or second-order correction.
 Total Energy, E(TD-HF/TD-DFT) =  -693.986612796
 Copying the excited state density for this state as the 1-particle RhoCI density.

 Excited state symmetry could not be determined.
 Excited State   2:      Triplet-?Sym    3.9016 eV  317.77 nm  f=0.0000  <S**2>=2.000
      55 -> 58        -0.12610
      57 -> 58         0.42758
      57 -> 59         0.53731

 Excited state symmetry could not be determined.
 Excited State   3:      Singlet-?Sym    4.8077 eV  257.89 nm  f=0.0159  <S**2>=0.000
      56 -> 58         0.56980
      57 -> 58        -0.39695

 Excited state symmetry could not be determined.
 Excited State   4:      Singlet-?Sym    4.8991 eV  253.08 nm  f=0.0408  <S**2>=0.000
      55 -> 59         0.15519
      56 -> 58         0.40948
      57 -> 58         0.54225

 Alpha  occ. eigenvalues --  -24.71632 -14.36067 -14.32600 -14.31970 -10.27326
 Alpha  occ. eigenvalues --  -10.26627 -10.24355 -10.23702 -10.22868 -10.18639
 Alpha  occ. eigenvalues --  -10.18516 -10.18217 -10.18192 -10.18149 -10.17395
 Alpha  occ. eigenvalues --   -1.22312  -0.98827  -0.94107  -0.87145  -0.80904
 Alpha  occ. eigenvalues --   -0.78698  -0.76332  -0.72073  -0.71163  -0.65564
 Alpha  occ. eigenvalues --   -0.64970  -0.62227  -0.59248  -0.57846  -0.55096
 Alpha  occ. eigenvalues --   -0.53452  -0.52347  -0.47673  -0.47505  -0.46629
 Alpha  occ. eigenvalues --   -0.45345  -0.44623  -0.42785  -0.42087  -0.41693
 Alpha  occ. eigenvalues --   -0.41169  -0.40298  -0.39736  -0.38964  -0.38809
 Alpha  occ. eigenvalues --   -0.38163  -0.36982  -0.35652  -0.34317  -0.33808
 Alpha  occ. eigenvalues --   -0.33114  -0.32444  -0.31434  -0.29687  -0.27231
 Alpha  occ. eigenvalues --   -0.24417  -0.21905
 Alpha virt. eigenvalues --   -0.01579  -0.00004   0.08010   0.09089   0.10476
 Alpha virt. eigenvalues --    0.11421   0.12106   0.12824   0.13668   0.13894
 Alpha virt. eigenvalues --    0.14802   0.15364   0.15772   0.16219   0.16838

 Mulliken charges:
               1
     1  C   -0.442794
     2  C   -0.248393
     3  C   -0.256876
     4  C   -0.252904
     5  C    0.056456
     6  C   -0.467598
     7  N   -0.656203
     8  C    0.516702
     9  N   -0.502210
    10  C    0.159325
    11  N   -0.459141
    12  C    0.243710
    13  C   -0.517451
    14  C    0.274034
    15  F   -0.304179
    16  H    0.143529
    17  H    0.143625
    18  H    0.140617
    19  H    0.136100
    20  H    0.130604
    21  H    0.135232
    22  H    0.129869
    23  H    0.153403
    24  H    0.119559
    25  H    0.170277
    26  H    0.161029
    27  H    0.159823
    28  H    0.138379
    29  H    0.328511
    30  H    0.145827
    31  H    0.170000
    32  H    0.180648
    33  H    0.170493
 Sum of Mulliken charges =  -0.00000

 Dipole moment (field-independent basis, Debye):
    X=             -1.8300    Y=              0.8830    Z=              1.9689  Tot=              2.8294
 Quadrupole moment (field-independent basis, Debye-Ang):
   XX=            -93.2221   YY=            -89.9695   ZZ=            -89.7631
   XY=              0.6168   XZ=              4.5727   YZ=              0.1936

 Normal termination of Gaussian 16 at Sat Nov  5 11:23:59 2022.
