 Gaussian 16, Revision B.01,
 Gaussian 16:  ES64L-G16RevB.01 20-Dec-2017

 -------------------------------------------------------------------
 #p b3lyp/6-31g(d) 6D 10F nosymm GFInput td=(50-50,nstate=2) SCF=XQC
 -------------------------------------------------------------------

 ------------------------------
 Gaussian input prepared by ASE
 ------------------------------
 Symbolic Z-matrix:
 Charge =  0 Multiplicity = 1

                          Input orientation:
 ---------------------------------------------------------------------
 Center     Atomic      Atomic             Coordinates (Angstroms)
 Number     Number       Type             X           Y           Z
 ---------------------------------------------------------------------
      1          6           0        5.068022    0.187812    1.052720
      2          6           0        3.596991    0.217823    0.707945
      3          6           0        2.794040    1.315692    1.020934
      4          6           0        1.431437    1.320633    0.720847
      5          6           0        0.823842    0.231521    0.080322
      6          7           0       -0.555158    0.206218   -0.280433
      7          6           0       -1.452381   -0.678524    0.508104
      8          6           0       -1.911348    0.210033    1.699306
      9          6           0       -1.883695    1.654909    1.127391
     10          6           0       -1.322352    1.468362   -0.315099
     11          6           0       -2.458134    1.266753   -1.339240
     12          6           0       -3.404547    0.129006   -0.914412
     13          8           0       -4.331345   -0.214278   -1.941625
     14          6           0       -2.617677   -1.094151   -0.408352
     15          6           0        1.638237   -0.870915   -0.278462
     16          6           0        1.062386   -2.025674   -1.067063
     17          8           0        2.114496   -2.738506   -1.711696
     18          6           0        2.992444   -0.863881    0.054269
     19          1           0        5.280790   -0.538536    1.848312
     20          1           0        5.677683   -0.099014    0.187418
     21          1           0        5.417207    1.166195    1.398989
     22          1           0        3.230495    2.180131    1.516926
     23          1           0        0.841046    2.188990    0.992569
     24          1           0       -0.906642   -1.560898    0.849058
     25          1           0       -2.897278   -0.080719    2.077857
     26          1           0       -1.201342    0.109593    2.526133
     27          1           0       -1.232016    2.299016    1.725032
     28          1           0       -2.873005    2.124565    1.118634
     29          1           0       -0.678159    2.290280   -0.636101
     30          1           0       -2.003883    1.017915   -2.307814
     31          1           0       -3.034741    2.190508   -1.472114
     32          1           0       -4.044553    0.491141   -0.102028
     33          1           0       -3.813006   -0.523351   -2.702436
     34          1           0       -2.201519   -1.632652   -1.270921
     35          1           0       -3.299616   -1.780709    0.108198
     36          1           0        0.340082   -1.623218   -1.793920
     37          1           0        0.499387   -2.706406   -0.405454
     38          1           0        1.720620   -3.518482   -2.129087
     39          1           0        3.593189   -1.717185   -0.244701
 ---------------------------------------------------------------------

 SCF Done:  E(RB3LYP) =  -789.413032538     A.U. after   14 cycles

 Excitation energies and oscillator strengths:

 Excited state symmetry could not be determined.
 Excited State   1:      Triplet-?Sym    3.5507 eV  349.18 nm  f=0.0000  <S**2>=2.000
      65 -> 69        -0.17462
      66 -> 68         0.36608
      67 -> 69         0.56523
 This state for optimization and/or second-order correction.
 Total Energy, E(TD-HF/TD-DFT) =  -789.282545491
 Copying the excited state density for this state as the 1-particle RhoCI density.

 Excited state symmetry could not be determined.
 Excited State   2:      Triplet-?Sym    4.1094 eV  301.71 nm  f=0.0000  <S**2>=2.000
      65 -> 68        -0.11965
      66 -> 69         0.11675
      67 -> 68         0.68181

 Excited state symmetry could not be determined.
 Excited State   3:      Singlet-?Sym    4.7903 eV  258.82 nm  f=0.0183  <S**2>=0.000
      66 -> 69        -0.25372
      67 -> 68         0.65693

 Excited state symmetry could not be determined.
 Excited State   4:      Singlet-?Sym    5.1969 eV  238.57 nm  f=0.2381  <S**2>=0.000
      65 -> 69         0.11827
      66 -> 68         0.15622
      67 -> 69         0.67326

 Alpha  occ. eigenvalues --  -19.14330 -19.14080 -14.33085 -10.23328 -10.23106
 Alpha  occ. eigenvalues --  -10.21957 -10.21728 -10.21300 -10.18512 -10.18487
 Alpha  occ. eigenvalues --  -10.18322 -10.18190 -10.18173 -10.18069 -10.17712
 Alpha  occ. eigenvalues --  -10.17618 -10.17461 -10.17031  -1.01562  -1.01430
 Alpha  occ. eigenvalues --   -0.94529  -0.84583  -0.79652  -0.76593  -0.75694
 Alpha  occ. eigenvalues --   -0.74877  -0.73969  -0.67636  -0.66692  -0.64898
 Alpha  occ. eigenvalues --   -0.62272  -0.59445  -0.57486  -0.56460  -0.54624
 Alpha  occ. eigenvalues --   -0.52948  -0.50699  -0.48708  -0.47182  -0.45928
 Alpha  occ. eigenvalues --   -0.44942  -0.44718  -0.43846  -0.43127  -0.42397
 Alpha  occ. eigenvalues --   -0.41372  -0.41225  -0.40897  -0.40730  -0.39742
 Alpha  occ. eigenvalues --   -0.37910  -0.37404  -0.36209  -0.35783  -0.35216
 Alpha  occ. eigenvalues --   -0.34216  -0.33919  -0.33283  -0.32563  -0.32357
 Alpha  occ. eigenvalues --   -0.31385  -0.30519  -0.27158  -0.26023  -0.25231
 Alpha  occ. eigenvalues --   -0.23191  -0.19634
 Alpha virt. eigenvalues --    0.00922   0.01399   0.06842   0.07687   0.07921
 Alpha virt. eigenvalues --    0.08776   0.09869   0.11848   0.12741   0.13050
 Alpha virt. eigenvalues --    0.13967   0.14490   0.15089   0.15918   0.16186

 Mulliken charges:
               1
     1  C   -0.529919
     2  C    0.189654
     3  C   -0.200553
     4  C   -0.178978
     5  C    0.246150
     6  N   -0.495769
     7  C   -0.006754
     8  C   -0.282280
     9  C   -0.295218
    10  C    0.004764
    11  C   -0.270070
    12  C    0.126393
    13  O   -0.628134
    14  C   -0.266985
    15  C    0.105533
    16  C   -0.093787
    17  O   -0.623301
    18  C   -0.241404
    19  H    0.159027
    20  H    0.159966
    21  H    0.149685
    22  H    0.115697
    23  H    0.122807
    24  H    0.138391
    25  H    0.142171
    26  H    0.151303
    27  H    0.147603
    28  H    0.143809
    29  H    0.140541
    30  H    0.128936
    31  H    0.141563
    32  H    0.138934
    33  H    0.381864
    34  H    0.124422
    35  H    0.141347
    36  H    0.145985
    37  H    0.126950
    38  H    0.394189
    39  H    0.145467
 Sum of Mulliken charges =  -0.00000

 Dipole moment (field-independent basis, Debye):
    X=             -0.2989    Y=             -0.5734    Z=              0.4741  Tot=              0.8018
 Quadrupole moment (field-independent basis, Debye-Ang):
   XX=           -120.8525   YY=            -98.2049   ZZ=           -105.0523
   XY=              1.4845   XZ=             -0.2656   YZ=              4.9740

 Normal termination of Gaussian 16 at Sat Nov  5 11:27:01 2022.
