 Gaussian 16, Revision B.01,
 Gaussian 16:  ES64L-G16RevB.01 20-Dec-2017

 -----------------------------
 #p b3lyp/6-31g(d) opt SCF=XQC
 -----------------------------

 ------------------------------
 Gaussian input prepared by ASE
 ------------------------------
 Symbolic Z-matrix:
 Charge =  0 Multiplicity = 1

 SCF Done:  E(RB3LYP) =  -789.408633492     A.U. after   14 cycles
 SCF Done:  E(RB3LYP) =  -789.412549819     A.U. after   12 cycles
 SCF Done:  E(RB3LYP) =  -789.412800946     A.U. after   11 cycles
 SCF Done:  E(RB3LYP) =  -789.412930618     A.U. after   11 cycles
 SCF Done:  E(RB3LYP) =  -789.412970071     A.U. after   10 cycles
 SCF Done:  E(RB3LYP) =  -789.412987183     A.U. after   10 cycles
 SCF Done:  E(RB3LYP) =  -789.412991928     A.U. after    8 cycles
 SCF Done:  E(RB3LYP) =  -789.412994128     A.U. after    8 cycles
 SCF Done:  E(RB3LYP) =  -789.412995733     A.U. after    8 cycles
 SCF Done:  E(RB3LYP) =  -789.412996809     A.U. after    8 cycles
 SCF Done:  E(RB3LYP) =  -789.413006846     A.U. after    9 cycles
 SCF Done:  E(RB3LYP) =  -789.413009047     A.U. after   10 cycles
 SCF Done:  E(RB3LYP) =  -789.413012865     A.U. after   10 cycles
 SCF Done:  E(RB3LYP) =  -789.413019014     A.U. after   10 cycles
 SCF Done:  E(RB3LYP) =  -789.413025001     A.U. after   10 cycles
 SCF Done:  E(RB3LYP) =  -789.413031902     A.U. after   10 cycles
 SCF Done:  E(RB3LYP) =  -789.413032562     A.U. after   10 cycles
 SCF Done:  E(RB3LYP) =  -789.413032851     A.U. after    9 cycles
 SCF Done:  E(RB3LYP) =  -789.413032977     A.U. after    7 cycles
 SCF Done:  E(RB3LYP) =  -789.413032997     A.U. after    6 cycles
 Optimization completed.
    -- Stationary point found.

                         Standard orientation:
 ---------------------------------------------------------------------
 Center     Atomic      Atomic             Coordinates (Angstroms)
 Number     Number       Type             X           Y           Z
 ---------------------------------------------------------------------
      1          6           0       -5.132755   -0.714279   -0.070487
      2          6           0       -3.627742   -0.584320   -0.112296
      3          6           0       -2.803719   -1.687880   -0.338456
      4          6           0       -1.414401   -1.559613   -0.348738
      5          6           0       -0.797285   -0.316692   -0.148926
      6          7           0        0.615463   -0.129580   -0.188410
      7          6           0        1.307849    0.126738    1.101734
      8          6           0        1.638940   -1.292934    1.644003
      9          6           0        1.810820   -2.157340    0.363856
     10          6           0        1.471477   -1.170255   -0.794242
     11          6           0        2.736047   -0.455094   -1.312815
     12          6           0        3.515134    0.214374   -0.165871
     13          8           0        4.563740    1.053710   -0.643269
     14          6           0        2.568366    0.956206    0.795736
     15          6           0       -1.625700    0.816914    0.040806
     16          6           0       -1.021443    2.198721    0.152365
     17          8           0       -2.009472    3.180275   -0.149241
     18          6           0       -3.010995    0.660044    0.072191
     19          1           0       -5.522447   -0.561544    0.944713
     20          1           0       -5.618234    0.029419   -0.713859
     21          1           0       -5.457393   -1.706365   -0.401304
     22          1           0       -3.246481   -2.668639   -0.499171
     23          1           0       -0.810465   -2.444932   -0.515798
     24          1           0        0.650226    0.674953    1.779713
     25          1           0        2.528092   -1.295594    2.283766
     26          1           0        0.801928   -1.659375    2.246475
     27          1           0        1.123508   -3.008379    0.372161
     28          1           0        2.821697   -2.566470    0.263211
     29          1           0        0.949776   -1.646984   -1.627390
     30          1           0        2.422733    0.311575   -2.034240
     31          1           0        3.394377   -1.156219   -1.840526
     32          1           0        4.044513   -0.562155    0.397579
     33          1           0        4.150026    1.753937   -1.173888
     34          1           0        2.254006    1.900169    0.329575
     35          1           0        3.106606    1.209574    1.717327
     36          1           0       -0.165314    2.259506   -0.537101
     37          1           0       -0.622743    2.368342    1.167431
     38          1           0       -1.614658    4.048115    0.020148
     39          1           0       -3.619695    1.548710    0.206963
 ---------------------------------------------------------------------

 The electronic state is 1-A.
 Alpha  occ. eigenvalues --  -19.14330 -19.14080 -14.33085 -10.23328 -10.23106
 Alpha  occ. eigenvalues --  -10.21957 -10.21727 -10.21300 -10.18512 -10.18487
 Alpha  occ. eigenvalues --  -10.18322 -10.18190 -10.18173 -10.18069 -10.17712
 Alpha  occ. eigenvalues --  -10.17618 -10.17461 -10.17031  -1.01562  -1.01430
 Alpha  occ. eigenvalues --   -0.94530  -0.84583  -0.79652  -0.76593  -0.75694
 Alpha  occ. eigenvalues --   -0.74877  -0.73969  -0.67636  -0.66692  -0.64898
 Alpha  occ. eigenvalues --   -0.62272  -0.59445  -0.57486  -0.56460  -0.54624
 Alpha  occ. eigenvalues --   -0.52948  -0.50699  -0.48708  -0.47182  -0.45928
 Alpha  occ. eigenvalues --   -0.44942  -0.44718  -0.43846  -0.43127  -0.42397
 Alpha  occ. eigenvalues --   -0.41372  -0.41225  -0.40897  -0.40730  -0.39742
 Alpha  occ. eigenvalues --   -0.37910  -0.37404  -0.36209  -0.35783  -0.35216
 Alpha  occ. eigenvalues --   -0.34216  -0.33919  -0.33283  -0.32563  -0.32357
 Alpha  occ. eigenvalues --   -0.31385  -0.30519  -0.27158  -0.26023  -0.25231
 Alpha  occ. eigenvalues --   -0.23191  -0.19635
 Alpha virt. eigenvalues --    0.00922   0.01399   0.06842   0.07687   0.07921
 Alpha virt. eigenvalues --    0.08776   0.09869   0.11848   0.12741   0.13050
 Alpha virt. eigenvalues --    0.13967   0.14490   0.15089   0.15918   0.16186

 Mulliken charges:
               1
     1  C   -0.529917
     2  C    0.189658
     3  C   -0.200556
     4  C   -0.178972
     5  C    0.246136
     6  N   -0.495807
     7  C   -0.006757
     8  C   -0.282275
     9  C   -0.295242
    10  C    0.004875
    11  C   -0.270103
    12  C    0.126362
    13  O   -0.628131
    14  C   -0.266973
    15  C    0.105536
    16  C   -0.093778
    17  O   -0.623301
    18  C   -0.241406
    19  H    0.159027
    20  H    0.159966
    21  H    0.149685
    22  H    0.115697
    23  H    0.122808
    24  H    0.138392
    25  H    0.142171
    26  H    0.151301
    27  H    0.147600
    28  H    0.143808
    29  H    0.140534
    30  H    0.128938
    31  H    0.141564
    32  H    0.138942
    33  H    0.381864
    34  H    0.124424
    35  H    0.141349
    36  H    0.145979
    37  H    0.126947
    38  H    0.394189
    39  H    0.145467
 Sum of Mulliken charges =  -0.00000

 Dipole moment (field-independent basis, Debye):
    X=              0.1764    Y=              0.1949    Z=              0.7575  Tot=              0.8018
 Quadrupole moment (field-independent basis, Debye-Ang):
   XX=           -120.7487   YY=            -95.8802   ZZ=           -107.4291
   XY=              1.4827   XZ=             -1.2058   YZ=              1.6129

 Normal termination of Gaussian 16 at Fri Nov  4 18:41:19 2022.
