 Gaussian 16, Revision B.01,
 Gaussian 16:  ES64L-G16RevB.01 20-Dec-2017

 -------------------------------------------------------------------
 #p b3lyp/6-31g(d) 6D 10F nosymm GFInput td=(50-50,nstate=2) SCF=XQC
 -------------------------------------------------------------------

 ------------------------------
 Gaussian input prepared by ASE
 ------------------------------
 Symbolic Z-matrix:
 Charge =  0 Multiplicity = 1

                          Input orientation:
 ---------------------------------------------------------------------
 Center     Atomic      Atomic             Coordinates (Angstroms)
 Number     Number       Type             X           Y           Z
 ---------------------------------------------------------------------
      1          6           0        5.662272   -0.960597    3.071370
      2          6           0        6.089303    0.097403    2.043316
      3          6           0        7.217580   -0.412229    1.134487
      4          6           0        4.897609    0.606895    1.230594
      5          8           0        4.353239   -0.486059    0.482481
      6          6           0        3.269882   -0.278032   -0.306119
      7          6           0        2.626937    0.957497   -0.471255
      8          6           0        1.514381    1.051743   -1.306214
      9          6           0        1.021024   -0.065074   -1.992216
     10          6           0       -0.121802    0.032071   -2.927982
     11          8           0        0.080622   -0.520983   -4.149735
     12          6           0       -1.334303    0.588143   -2.657728
     13          6           0       -2.396964    0.810235   -3.647891
     14          8           0       -2.440046    0.537502   -4.832749
     15          6           0       -3.533190    1.530379   -2.898870
     16          8           0       -4.588393    1.933995   -3.361787
     17          7           0       -3.128214    1.644853   -1.597908
     18          6           0       -3.964248    2.330644   -0.613925
     19          6           0       -5.035142    1.485146    0.003870
     20          6           0       -6.228165    1.011968   -0.458913
     21          6           0       -6.797290    0.238118    0.604691
     22          6           0       -5.909915    0.301457    1.635603
     23          8           0       -4.829808    1.057070    1.289330
     24          6           0       -1.814189    1.061609   -1.284469
     25          6           0       -1.895323   -0.034690   -0.226117
     26          6           0       -2.646201   -1.195671   -0.446409
     27          6           0       -2.730954   -2.188560    0.524396
     28          6           0       -2.056468   -2.035511    1.742512
     29          8           0       -2.101778   -2.977752    2.733293
     30          6           0       -1.302203   -0.884020    1.977886
     31          6           0       -1.231708    0.102922    0.996930
     32          6           0        1.690754   -1.295253   -1.831489
     33          6           0        2.790725   -1.404586   -0.995999
     34          1           0        6.515539   -1.270518    3.684638
     35          1           0        5.262024   -1.849689    2.573326
     36          1           0        4.887780   -0.574090    3.744737
     37          1           0        6.459700    0.977770    2.589817
     38          1           0        8.085652   -0.716865    1.729332
     39          1           0        6.887124   -1.276965    0.549825
     40          1           0        7.547141    0.363546    0.432824
     41          1           0        4.123265    1.015250    1.895514
     42          1           0        5.213883    1.401187    0.539380
     43          1           0        2.989869    1.845687    0.032099
     44          1           0        1.043104    2.019193   -1.449645
     45          1           0        1.030023   -0.701897   -4.249193
     46          1           0       -4.431129    3.168165   -1.141552
     47          1           0       -3.318163    2.729548    0.173849
     48          1           0       -6.631711    1.190776   -1.445538
     49          1           0       -7.742256   -0.287588    0.600117
     50          1           0       -5.895824   -0.102582    2.636438
     51          1           0       -1.177692    1.862342   -0.883203
     52          1           0       -3.179530   -1.325195   -1.384216
     53          1           0       -3.324081   -3.082535    0.338977
     54          1           0       -2.661307   -3.713901    2.440720
     55          1           0       -0.785697   -0.776041    2.926374
     56          1           0       -0.642480    0.996718    1.189164
     57          1           0        1.319872   -2.179152   -2.344090
     58          1           0        3.296869   -2.353797   -0.852498
 ---------------------------------------------------------------------

 SCF Done:  E(RB3LYP) =  -1511.86754086     A.U. after   16 cycles

 Excitation energies and oscillator strengths:

 Excited state symmetry could not be determined.
 Excited State   1:      Triplet-?Sym    2.3143 eV  535.74 nm  f=0.0000  <S**2>=2.000
     110 ->119        -0.11102
     116 ->119        -0.23062
     117 ->119         0.36238
     117 ->121         0.10562
     118 ->119         0.50337
     118 ->121         0.13226
 This state for optimization and/or second-order correction.
 Total Energy, E(TD-HF/TD-DFT) =  -1511.78249365
 Copying the excited state density for this state as the 1-particle RhoCI density.

 Excited state symmetry could not be determined.
 Excited State   2:      Triplet-?Sym    2.5527 eV  485.69 nm  f=0.0000  <S**2>=2.000
     112 ->119        -0.22314
     115 ->119         0.52859
     116 ->119         0.27056
     117 ->119         0.24251

 Excited state symmetry could not be determined.
 Excited State   3:      Singlet-?Sym    2.7369 eV  453.02 nm  f=0.0003  <S**2>=0.000
     116 ->119        -0.21861
     117 ->119         0.34800
     118 ->119         0.54656
     118 ->121         0.10068

 Excited state symmetry could not be determined.
 Excited State   4:      Singlet-?Sym    3.4749 eV  356.80 nm  f=0.0004  <S**2>=0.000
     117 ->119         0.57921
     118 ->119        -0.39155

 Alpha  occ. eigenvalues --  -19.20472 -19.19868 -19.19792 -19.18270 -19.12083
 Alpha  occ. eigenvalues --  -19.10595 -14.36400 -10.28022 -10.27380 -10.26846
 Alpha  occ. eigenvalues --  -10.25715 -10.25680 -10.25268 -10.24593 -10.23093
 Alpha  occ. eigenvalues --  -10.22855 -10.22618 -10.21956 -10.21887 -10.21819
 Alpha  occ. eigenvalues --  -10.21227 -10.20934 -10.20871 -10.19487 -10.19397
 Alpha  occ. eigenvalues --  -10.19320 -10.19306 -10.19269 -10.18735 -10.18508
 Alpha  occ. eigenvalues --  -10.18463 -10.17774 -10.17303  -1.09755  -1.08514
 Alpha  occ. eigenvalues --   -1.08286  -1.06261  -1.03280  -1.00733  -0.94642
 Alpha  occ. eigenvalues --   -0.87900  -0.85465  -0.82574  -0.81396  -0.78710
 Alpha  occ. eigenvalues --   -0.77881  -0.77289  -0.76035  -0.75119  -0.74976
 Alpha  occ. eigenvalues --   -0.71422  -0.69902  -0.69441  -0.68668  -0.65034
 Alpha  occ. eigenvalues --   -0.63775  -0.62665  -0.62134  -0.59853  -0.58987
 Alpha  occ. eigenvalues --   -0.57760  -0.56829  -0.56214  -0.54922  -0.54765
 Alpha  occ. eigenvalues --   -0.54153  -0.52742  -0.51675  -0.50378  -0.49875
 Alpha  occ. eigenvalues --   -0.49428  -0.48534  -0.47426  -0.47137  -0.45882
 Alpha  occ. eigenvalues --   -0.45633  -0.45199  -0.44714  -0.44437  -0.43955
 Alpha  occ. eigenvalues --   -0.43521  -0.43348  -0.42535  -0.42328  -0.41858
 Alpha  occ. eigenvalues --   -0.41502  -0.41093  -0.40760  -0.40116  -0.39992
 Alpha  occ. eigenvalues --   -0.39368  -0.39304  -0.38981  -0.38809  -0.38315
 Alpha  occ. eigenvalues --   -0.37932  -0.37783  -0.36744  -0.36627  -0.36275
 Alpha  occ. eigenvalues --   -0.35844  -0.35127  -0.34607  -0.34325  -0.34075
 Alpha  occ. eigenvalues --   -0.33658  -0.33407  -0.33056  -0.27722  -0.27182
 Alpha  occ. eigenvalues --   -0.26663  -0.25660  -0.25389  -0.24528  -0.22836
 Alpha  occ. eigenvalues --   -0.21975  -0.21630  -0.20812
 Alpha virt. eigenvalues --   -0.06567  -0.02845  -0.01637  -0.00451   0.00635
 Alpha virt. eigenvalues --    0.02082   0.03839   0.06353   0.06806   0.07157
 Alpha virt. eigenvalues --    0.07406   0.07893   0.09592   0.10493   0.10857

 Mulliken charges:
               1
     1  C   -0.444489
     2  C   -0.099076
     3  C   -0.444540
     4  C   -0.037425
     5  O   -0.515944
     6  C    0.396396
     7  C   -0.198806
     8  C   -0.168126
     9  C    0.059345
    10  C    0.248056
    11  O   -0.567091
    12  C   -0.003536
    13  C    0.326032
    14  O   -0.457028
    15  C    0.568854
    16  O   -0.523505
    17  N   -0.442345
    18  C   -0.244914
    19  C    0.349538
    20  C   -0.198542
    21  C   -0.186000
    22  C    0.082014
    23  O   -0.434424
    24  C   -0.123339
    25  C    0.211735
    26  C   -0.184725
    27  C   -0.192158
    28  C    0.350508
    29  O   -0.643054
    30  C   -0.158471
    31  C   -0.193328
    32  C   -0.182145
    33  C   -0.175148
    34  H    0.147262
    35  H    0.162856
    36  H    0.141150
    37  H    0.133493
    38  H    0.147524
    39  H    0.162024
    40  H    0.140445
    41  H    0.142451
    42  H    0.142041
    43  H    0.146012
    44  H    0.152100
    45  H    0.411536
    46  H    0.193447
    47  H    0.165189
    48  H    0.168195
    49  H    0.137484
    50  H    0.149165
    51  H    0.140913
    52  H    0.146664
    53  H    0.123559
    54  H    0.408094
    55  H    0.136880
    56  H    0.122185
    57  H    0.154516
    58  H    0.150495
 Sum of Mulliken charges =  -0.00000

 Dipole moment (field-independent basis, Debye):
    X=              7.1791    Y=             -1.6632    Z=              6.1024  Tot=              9.5679
 Quadrupole moment (field-independent basis, Debye-Ang):
   XX=           -184.9935   YY=           -174.7777   ZZ=           -221.6600
   XY=             19.8932   XZ=            -26.4115   YZ=              9.3917

 Normal termination of Gaussian 16 at Sat Nov  5 11:47:49 2022.
