 Gaussian 16, Revision B.01,
 Gaussian 16:  ES64L-G16RevB.01 20-Dec-2017

 -----------------------------
 #p b3lyp/6-31g(d) opt SCF=XQC
 -----------------------------

 ------------------------------
 Gaussian input prepared by ASE
 ------------------------------
 Symbolic Z-matrix:
 Charge =  0 Multiplicity = 1

 SCF Done:  E(RB3LYP) =  -1511.84707334     A.U. after   16 cycles
 SCF Done:  E(RB3LYP) =  -1511.86184696     A.U. after   15 cycles
 SCF Done:  E(RB3LYP) =  -1511.86562312     A.U. after   14 cycles
 SCF Done:  E(RB3LYP) =  -1511.86654206     A.U. after   15 cycles
 SCF Done:  E(RB3LYP) =  -1511.86685167     A.U. after   13 cycles
 SCF Done:  E(RB3LYP) =  -1511.86738047     A.U. after   11 cycles
 SCF Done:  E(RB3LYP) =  -1511.86748738     A.U. after   11 cycles
 SCF Done:  E(RB3LYP) =  -1511.86751952     A.U. after   11 cycles
 SCF Done:  E(RB3LYP) =  -1511.86753176     A.U. after   10 cycles
 SCF Done:  E(RB3LYP) =  -1511.86753786     A.U. after   10 cycles
 SCF Done:  E(RB3LYP) =  -1511.86754162     A.U. after    9 cycles
 SCF Done:  E(RB3LYP) =  -1511.86754409     A.U. after   10 cycles
 SCF Done:  E(RB3LYP) =  -1511.86754452     A.U. after    8 cycles
 SCF Done:  E(RB3LYP) =  -1511.86754462     A.U. after    7 cycles
 SCF Done:  E(RB3LYP) =  -1511.86754466     A.U. after    7 cycles
 Optimization completed.
    -- Stationary point found.

                         Standard orientation:
 ---------------------------------------------------------------------
 Center     Atomic      Atomic             Coordinates (Angstroms)
 Number     Number       Type             X           Y           Z
 ---------------------------------------------------------------------
      1          6           0        6.883529    2.291615   -0.404961
      2          6           0        6.997408    0.947740   -1.139568
      3          6           0        7.994809    0.003807   -0.451901
      4          6           0        5.629677    0.287071   -1.321398
      5          8           0        5.086911   -0.004407   -0.028724
      6          6           0        3.863385   -0.581634    0.064115
      7          6           0        3.066076   -0.945313   -1.030973
      8          6           0        1.818542   -1.528868   -0.814314
      9          6           0        1.339450   -1.765829    0.480135
     10          6           0        0.043948   -2.438726    0.725145
     11          8           0        0.085323   -3.475940    1.598072
     12          6           0       -1.155389   -2.090390    0.184159
     13          6           0       -2.396378   -2.865093    0.321180
     14          8           0       -2.619956   -3.894632    0.929615
     15          6           0       -3.453917   -2.127563   -0.520432
     16          8           0       -4.613651   -2.458285   -0.710935
     17          7           0       -2.837999   -1.019230   -1.032151
     18          6           0       -3.556186   -0.112704   -1.926522
     19          6           0       -4.396792    0.918578   -1.238634
     20          6           0       -5.592306    0.857108   -0.584160
     21          6           0       -5.870740    2.185253   -0.123177
     22          6           0       -4.825959    2.955527   -0.534678
     23          8           0       -3.917575    2.202198   -1.216457
     24          6           0       -1.431823   -0.832362   -0.641220
     25          6           0       -1.197895    0.479971    0.101494
     26          6           0       -1.840272    0.745247    1.316897
     27          6           0       -1.637227    1.947633    1.986610
     28          6           0       -0.777096    2.912559    1.446929
     29          8           0       -0.537636    4.111748    2.060217
     30          6           0       -0.127637    2.663371    0.235996
     31          6           0       -0.345765    1.455991   -0.424269
     32          6           0        2.161545   -1.413226    1.569880
     33          6           0        3.398576   -0.822458    1.368188
     34          1           0        7.862267    2.779030   -0.336315
     35          1           0        6.503420    2.149673    0.611946
     36          1           0        6.203608    2.976005   -0.926464
     37          1           0        7.358006    1.143697   -2.160583
     38          1           0        8.984120    0.469441   -0.383768
     39          1           0        7.664648   -0.240448    0.563054
     40          1           0        8.103721   -0.935934   -1.006693
     41          1           0        4.945922    0.957489   -1.861306
     42          1           0        5.725386   -0.645232   -1.896165
     43          1           0        3.410768   -0.790524   -2.046451
     44          1           0        1.223135   -1.833469   -1.669501
     45          1           0        1.015801   -3.713269    1.745956
     46          1           0       -4.201460   -0.743477   -2.545843
     47          1           0       -2.828626    0.386082   -2.573830
     48          1           0       -6.183601   -0.036785   -0.444239
     49          1           0       -6.735819    2.518169    0.433737
     50          1           0       -4.587345    4.004106   -0.441588
     51          1           0       -0.828186   -0.805243   -1.558936
     52          1           0       -2.514888    0.008447    1.744351
     53          1           0       -2.149296    2.140109    2.927943
     54          1           0       -1.053863    4.153307    2.880198
     55          1           0        0.534880    3.419561   -0.173046
     56          1           0        0.163735    1.270761   -1.367198
     57          1           0        1.806943   -1.576260    2.584409
     58          1           0        4.026015   -0.529915    2.203959
 ---------------------------------------------------------------------

 The electronic state is 1-A.
 Alpha  occ. eigenvalues --  -19.20472 -19.19868 -19.19791 -19.18270 -19.12083
 Alpha  occ. eigenvalues --  -19.10596 -14.36400 -10.28022 -10.27380 -10.26846
 Alpha  occ. eigenvalues --  -10.25715 -10.25680 -10.25268 -10.24593 -10.23093
 Alpha  occ. eigenvalues --  -10.22855 -10.22618 -10.21956 -10.21886 -10.21819
 Alpha  occ. eigenvalues --  -10.21227 -10.20934 -10.20871 -10.19487 -10.19397
 Alpha  occ. eigenvalues --  -10.19320 -10.19306 -10.19269 -10.18735 -10.18508
 Alpha  occ. eigenvalues --  -10.18463 -10.17774 -10.17303  -1.09755  -1.08514
 Alpha  occ. eigenvalues --   -1.08286  -1.06261  -1.03280  -1.00733  -0.94642
 Alpha  occ. eigenvalues --   -0.87900  -0.85465  -0.82574  -0.81396  -0.78710
 Alpha  occ. eigenvalues --   -0.77881  -0.77289  -0.76035  -0.75119  -0.74976
 Alpha  occ. eigenvalues --   -0.71422  -0.69902  -0.69441  -0.68668  -0.65034
 Alpha  occ. eigenvalues --   -0.63775  -0.62665  -0.62134  -0.59853  -0.58987
 Alpha  occ. eigenvalues --   -0.57760  -0.56829  -0.56214  -0.54922  -0.54765
 Alpha  occ. eigenvalues --   -0.54153  -0.52742  -0.51676  -0.50378  -0.49875
 Alpha  occ. eigenvalues --   -0.49428  -0.48534  -0.47426  -0.47137  -0.45882
 Alpha  occ. eigenvalues --   -0.45633  -0.45199  -0.44714  -0.44437  -0.43955
 Alpha  occ. eigenvalues --   -0.43521  -0.43348  -0.42535  -0.42328  -0.41858
 Alpha  occ. eigenvalues --   -0.41502  -0.41093  -0.40760  -0.40116  -0.39992
 Alpha  occ. eigenvalues --   -0.39368  -0.39304  -0.38981  -0.38809  -0.38315
 Alpha  occ. eigenvalues --   -0.37932  -0.37783  -0.36744  -0.36627  -0.36275
 Alpha  occ. eigenvalues --   -0.35844  -0.35126  -0.34607  -0.34325  -0.34075
 Alpha  occ. eigenvalues --   -0.33658  -0.33407  -0.33056  -0.27722  -0.27182
 Alpha  occ. eigenvalues --   -0.26663  -0.25660  -0.25389  -0.24528  -0.22836
 Alpha  occ. eigenvalues --   -0.21975  -0.21630  -0.20812
 Alpha virt. eigenvalues --   -0.06567  -0.02844  -0.01637  -0.00451   0.00635
 Alpha virt. eigenvalues --    0.02082   0.03839   0.06353   0.06806   0.07157
 Alpha virt. eigenvalues --    0.07406   0.07893   0.09592   0.10493   0.10857

 Mulliken charges:
               1
     1  C   -0.444490
     2  C   -0.099084
     3  C   -0.444531
     4  C   -0.037424
     5  O   -0.515938
     6  C    0.396379
     7  C   -0.198797
     8  C   -0.168121
     9  C    0.059335
    10  C    0.248043
    11  O   -0.567091
    12  C   -0.003501
    13  C    0.326023
    14  O   -0.457027
    15  C    0.568860
    16  O   -0.523501
    17  N   -0.442337
    18  C   -0.244917
    19  C    0.349516
    20  C   -0.198525
    21  C   -0.185995
    22  C    0.082010
    23  O   -0.434428
    24  C   -0.123372
    25  C    0.211754
    26  C   -0.184722
    27  C   -0.192162
    28  C    0.350512
    29  O   -0.643058
    30  C   -0.158453
    31  C   -0.193360
    32  C   -0.182125
    33  C   -0.175161
    34  H    0.147264
    35  H    0.162854
    36  H    0.141151
    37  H    0.133494
    38  H    0.147523
    39  H    0.162024
    40  H    0.140443
    41  H    0.142450
    42  H    0.142043
    43  H    0.146011
    44  H    0.152099
    45  H    0.411536
    46  H    0.193448
    47  H    0.165193
    48  H    0.168196
    49  H    0.137485
    50  H    0.149166
    51  H    0.140912
    52  H    0.146661
    53  H    0.123561
    54  H    0.408094
    55  H    0.136877
    56  H    0.122188
    57  H    0.154516
    58  H    0.150497
 Sum of Mulliken charges =  -0.00000

 Dipole moment (field-independent basis, Debye):
    X=              8.2969    Y=              4.7270    Z=             -0.5991  Tot=              9.5678
 Quadrupole moment (field-independent basis, Debye-Ang):
   XX=           -188.5853   YY=           -206.2901   ZZ=           -172.1603
   XY=            -29.7624   XZ=            -10.2078   YZ=              8.4031

 Normal termination of Gaussian 16 at Fri Nov  4 18:58:02 2022.
