 Gaussian 16, Revision B.01,
 Gaussian 16:  ES64L-G16RevB.01 20-Dec-2017

 -------------------------------------------------------------------
 #p b3lyp/6-31g(d) 6D 10F nosymm GFInput td=(50-50,nstate=2) SCF=XQC
 -------------------------------------------------------------------

 ------------------------------
 Gaussian input prepared by ASE
 ------------------------------
 Symbolic Z-matrix:
 Charge =  0 Multiplicity = 1

                          Input orientation:
 ---------------------------------------------------------------------
 Center     Atomic      Atomic             Coordinates (Angstroms)
 Number     Number       Type             X           Y           Z
 ---------------------------------------------------------------------
      1          6           0        6.800181   -1.827121   -0.142449
      2          7           0        5.682969   -0.901076   -0.108772
      3          6           0        5.250800   -0.434217   -1.416072
      4          6           0        3.839256    0.159099   -1.291065
      5          7           0        3.764583    1.021248   -0.106875
      6          6           0        2.594976    1.421934    0.472840
      7          8           0        2.556783    2.131788    1.477278
      8          6           0        1.298771    0.929183   -0.183294
      9          7           0        0.189727    1.645815    0.387139
     10          6           0       -1.105650    1.122606    0.342590
     11          6           0       -2.081359    1.587410    1.242599
     12          6           0       -3.389034    1.121611    1.204077
     13          6           0       -3.795685    0.153140    0.260114
     14          7           0       -5.105860   -0.307133    0.218404
     15          6           0       -5.567169   -1.300089   -0.740234
     16          6           0       -7.074065   -1.389038   -0.463798
     17          6           0       -7.162331   -1.124505    1.047860
     18          6           0       -6.065355   -0.073810    1.293139
     19          6           0       -2.819135   -0.310321   -0.640600
     20          6           0       -1.507527    0.165281   -0.601480
     21          6           0        5.039100    1.427318    0.476581
     22          6           0        5.906270    0.205647    0.831129
     23          1           0        7.737227   -1.375099   -0.524087
     24          1           0        6.552994   -2.688429   -0.772750
     25          1           0        6.996908   -2.195762    0.870723
     26          1           0        5.205772   -1.287044   -2.101805
     27          1           0        5.946358    0.298189   -1.871836
     28          1           0        3.584222    0.714242   -2.206178
     29          1           0        3.127104   -0.664932   -1.182191
     30          1           0        1.224957   -0.164549   -0.023104
     31          1           0        1.351258    1.072910   -1.272831
     32          1           0        0.457523    2.093869    1.257881
     33          1           0       -1.805969    2.335168    1.983749
     34          1           0       -4.106146    1.522966    1.912818
     35          1           0       -5.351853   -0.985014   -1.770027
     36          1           0       -5.075482   -2.278802   -0.590830
     37          1           0       -7.499323   -2.353040   -0.759870
     38          1           0       -7.601235   -0.603274   -1.018070
     39          1           0       -8.150497   -0.782936    1.371283
     40          1           0       -6.928912   -2.041876    1.601655
     41          1           0       -5.597386   -0.195194    2.280426
     42          1           0       -6.472561    0.950141    1.252938
     43          1           0       -3.076301   -1.057954   -1.383746
     44          1           0       -0.795945   -0.217099   -1.327518
     45          1           0        5.569429    2.072749   -0.236072
     46          1           0        4.818275    2.023126    1.361799
     47          1           0        5.675423   -0.149308    1.843642
     48          1           0        6.963915    0.532186    0.832961
 ---------------------------------------------------------------------

 SCF Done:  E(RB3LYP) =  -957.684086498     A.U. after   15 cycles

 Excitation energies and oscillator strengths:

 Excited state symmetry could not be determined.
 Excited State   1:      Triplet-?Sym    3.1073 eV  399.01 nm  f=0.0000  <S**2>=2.000
      82 -> 83         0.65378
      82 -> 84         0.24528
 This state for optimization and/or second-order correction.
 Total Energy, E(TD-HF/TD-DFT) =  -957.569895557
 Copying the excited state density for this state as the 1-particle RhoCI density.

 Excited state symmetry could not be determined.
 Excited State   2:      Triplet-?Sym    3.4486 eV  359.52 nm  f=0.0000  <S**2>=2.000
      79 -> 83        -0.25290
      79 -> 84        -0.12828
      82 -> 84        -0.13308
      82 -> 85         0.61979

 Excited state symmetry could not be determined.
 Excited State   3:      Singlet-?Sym    4.0081 eV  309.34 nm  f=0.0401  <S**2>=0.000
      79 -> 85         0.11681
      82 -> 83         0.69171

 Excited state symmetry could not be determined.
 Excited State   4:      Singlet-?Sym    4.2521 eV  291.58 nm  f=0.0127  <S**2>=0.000
      82 -> 84         0.69532

 Alpha  occ. eigenvalues --  -19.11300 -14.36608 -14.33399 -14.32734 -14.31743
 Alpha  occ. eigenvalues --  -10.28608 -10.23361 -10.22597 -10.22217 -10.21984
 Alpha  occ. eigenvalues --  -10.21731 -10.21126 -10.20849 -10.20844 -10.20039
 Alpha  occ. eigenvalues --  -10.19809 -10.18519 -10.18488 -10.16423 -10.16392
 Alpha  occ. eigenvalues --  -10.16362 -10.16316  -1.03411  -0.95599  -0.93534
 Alpha  occ. eigenvalues --   -0.91347  -0.91060  -0.82250  -0.78060  -0.77600
 Alpha  occ. eigenvalues --   -0.75248  -0.73414  -0.72037  -0.71462  -0.68139
 Alpha  occ. eigenvalues --   -0.66373  -0.65322  -0.60867  -0.60358  -0.58926
 Alpha  occ. eigenvalues --   -0.57146  -0.55316  -0.53593  -0.52470  -0.51678
 Alpha  occ. eigenvalues --   -0.50954  -0.49508  -0.48899  -0.47664  -0.46432
 Alpha  occ. eigenvalues --   -0.45569  -0.45393  -0.43455  -0.43268  -0.42916
 Alpha  occ. eigenvalues --   -0.42288  -0.42055  -0.41651  -0.40475  -0.40174
 Alpha  occ. eigenvalues --   -0.39945  -0.39641  -0.39246  -0.38192  -0.37869
 Alpha  occ. eigenvalues --   -0.37356  -0.36315  -0.35627  -0.35300  -0.34817
 Alpha  occ. eigenvalues --   -0.34420  -0.34163  -0.34047  -0.32824  -0.31613
 Alpha  occ. eigenvalues --   -0.28963  -0.25520  -0.24143  -0.22759  -0.22182
 Alpha  occ. eigenvalues --   -0.21751  -0.14899
 Alpha virt. eigenvalues --    0.01887   0.02945   0.04998   0.07108   0.08790
 Alpha virt. eigenvalues --    0.09064   0.10693   0.11323   0.12060   0.12291
 Alpha virt. eigenvalues --    0.12554   0.12820   0.13067   0.13736   0.13928

 Mulliken charges:
               1
     1  C   -0.296643
     2  N   -0.381176
     3  C   -0.158181
     4  C   -0.109810
     5  N   -0.436007
     6  C    0.587063
     7  O   -0.528493
     8  C   -0.195395
     9  N   -0.678430
    10  C    0.351820
    11  C   -0.201063
    12  C   -0.196143
    13  C    0.367596
    14  N   -0.527085
    15  C   -0.100187
    16  C   -0.293215
    17  C   -0.299427
    18  C   -0.101128
    19  C   -0.208639
    20  C   -0.190636
    21  C   -0.182108
    22  C   -0.108957
    23  H    0.121396
    24  H    0.150352
    25  H    0.156299
    26  H    0.151965
    27  H    0.124513
    28  H    0.147921
    29  H    0.163930
    30  H    0.157351
    31  H    0.158937
    32  H    0.337280
    33  H    0.116525
    34  H    0.119638
    35  H    0.142972
    36  H    0.127988
    37  H    0.141601
    38  H    0.148528
    39  H    0.142911
    40  H    0.146987
    41  H    0.140592
    42  H    0.135070
    43  H    0.115756
    44  H    0.109725
    45  H    0.151951
    46  H    0.202342
    47  H    0.155812
    48  H    0.117900
 Sum of Mulliken charges =  -0.00000

 Dipole moment (field-independent basis, Debye):
    X=              1.9445    Y=             -2.7410    Z=             -2.0707  Tot=              3.9474
 Quadrupole moment (field-independent basis, Debye-Ang):
   XX=            -95.5116   YY=           -137.2318   ZZ=           -130.3909
   XY=              1.1184   XZ=             -9.2657   YZ=              0.6296

 Normal termination of Gaussian 16 at Fri Nov  4 22:31:18 2022.
