 Gaussian 16, Revision B.01,
 Gaussian 16:  ES64L-G16RevB.01 20-Dec-2017

 -----------------------------
 #p b3lyp/6-31g(d) opt SCF=XQC
 -----------------------------

 ------------------------------
 Gaussian input prepared by ASE
 ------------------------------
 Symbolic Z-matrix:
 Charge =  0 Multiplicity = 1

 SCF Done:  E(RB3LYP) =  -957.677368284     A.U. after   15 cycles
 SCF Done:  E(RB3LYP) =  -957.681802509     A.U. after   12 cycles
 SCF Done:  E(RB3LYP) =  -957.682109949     A.U. after   11 cycles
 SCF Done:  E(RB3LYP) =  -957.682230541     A.U. after   11 cycles
 SCF Done:  E(RB3LYP) =  -957.682275505     A.U. after   10 cycles
 SCF Done:  E(RB3LYP) =  -957.682330240     A.U. after   10 cycles
 SCF Done:  E(RB3LYP) =  -957.682364160     A.U. after   11 cycles
 SCF Done:  E(RB3LYP) =  -957.682375649     A.U. after    9 cycles
 SCF Done:  E(RB3LYP) =  -957.682385746     A.U. after    9 cycles
 SCF Done:  E(RB3LYP) =  -957.682390309     A.U. after    9 cycles
 SCF Done:  E(RB3LYP) =  -957.684083206     A.U. after    8 cycles
 SCF Done:  E(RB3LYP) =  -957.684083067     A.U. after    8 cycles
 SCF Done:  E(RB3LYP) =  -957.684083473     A.U. after    7 cycles
 SCF Done:  E(RB3LYP) =  -957.684083625     A.U. after    8 cycles
 SCF Done:  E(RB3LYP) =  -957.684083729     A.U. after    7 cycles
 SCF Done:  E(RB3LYP) =  -957.684083889     A.U. after    8 cycles
 SCF Done:  E(RB3LYP) =  -957.684084003     A.U. after    7 cycles
 SCF Done:  E(RB3LYP) =  -957.684084113     A.U. after    7 cycles
 SCF Done:  E(RB3LYP) =  -957.684084137     A.U. after    7 cycles
 SCF Done:  E(RB3LYP) =  -957.684084132     A.U. after    6 cycles
 Optimization completed.
    -- Stationary point found.

                         Standard orientation:
 ---------------------------------------------------------------------
 Center     Atomic      Atomic             Coordinates (Angstroms)
 Number     Number       Type             X           Y           Z
 ---------------------------------------------------------------------
      1          6           0        6.718286   -2.038560    1.219381
      2          7           0        5.649584   -1.206881    0.696845
      3          6           0        5.291823   -1.486882   -0.684230
      4          6           0        3.908855   -0.883135   -0.972322
      5          7           0        3.833661    0.474285   -0.421923
      6          6           0        2.665011    1.147527   -0.208381
      7          8           0        2.625226    2.280083    0.271182
      8          6           0        1.371047    0.414364   -0.584669
      9          7           0        0.279399    1.349949   -0.540898
     10          6           0       -1.038494    0.912378   -0.381446
     11          6           0       -2.022498    1.803918    0.082193
     12          6           0       -3.349946    1.418625    0.215971
     13          6           0       -3.769660    0.108510   -0.103095
     14          7           0       -5.099200   -0.273701    0.024932
     15          6           0       -5.574160   -1.611055   -0.297019
     16          6           0       -7.093033   -1.505595   -0.104747
     17          6           0       -7.224871   -0.483877    1.036125
     18          6           0       -6.085524    0.512470    0.759250
     19          6           0       -2.784722   -0.782279   -0.567987
     20          6           0       -1.452868   -0.388429   -0.706158
     21          6           0        5.104290    1.096047   -0.063285
     22          6           0        5.893569    0.223013    0.929195
     23          1           0        7.691086   -1.877061    0.713808
     24          1           0        6.451314   -3.096445    1.120190
     25          1           0        6.857278   -1.824075    2.285116
     26          1           0        5.229136   -2.571495   -0.822998
     27          1           0        6.040825   -1.120197   -1.413943
     28          1           0        3.717525   -0.886097   -2.055854
     29          1           0        3.151748   -1.509699   -0.490401
     30          1           0        1.235194   -0.429713    0.119912
     31          1           0        1.472118   -0.037436   -1.582749
     32          1           0        0.536616    2.182340   -0.019721
     33          1           0       -1.737410    2.822851    0.336726
     34          1           0       -4.071881    2.149523    0.565610
     35          1           0       -5.304066   -1.889609   -1.324426
     36          1           0       -5.139354   -2.376423    0.371645
     37          1           0       -7.555656   -2.470872    0.123337
     38          1           0       -7.557796   -1.116295   -1.018526
     39          1           0       -8.205764    0.000055    1.073571
     40          1           0       -7.059995   -0.978364    2.001030
     41          1           0       -5.662176    0.917160    1.689555
     42          1           0       -6.437841    1.371707    0.164699
     43          1           0       -3.051540   -1.802587   -0.823201
     44          1           0       -0.734822   -1.112153   -1.080761
     45          1           0        5.693678    1.257650   -0.975542
     46          1           0        4.880915    2.073288    0.363875
     47          1           0        5.606586    0.458940    1.961882
     48          1           0        6.965743    0.476535    0.822365
 ---------------------------------------------------------------------

 The electronic state is 1-A.
 Alpha  occ. eigenvalues --  -19.11300 -14.36608 -14.33399 -14.32734 -14.31743
 Alpha  occ. eigenvalues --  -10.28608 -10.23361 -10.22597 -10.22217 -10.21984
 Alpha  occ. eigenvalues --  -10.21731 -10.21126 -10.20849 -10.20844 -10.20039
 Alpha  occ. eigenvalues --  -10.19809 -10.18519 -10.18488 -10.16423 -10.16391
 Alpha  occ. eigenvalues --  -10.16362 -10.16316  -1.03411  -0.95599  -0.93534
 Alpha  occ. eigenvalues --   -0.91347  -0.91060  -0.82250  -0.78060  -0.77600
 Alpha  occ. eigenvalues --   -0.75248  -0.73414  -0.72037  -0.71462  -0.68139
 Alpha  occ. eigenvalues --   -0.66373  -0.65322  -0.60867  -0.60358  -0.58926
 Alpha  occ. eigenvalues --   -0.57146  -0.55316  -0.53593  -0.52470  -0.51678
 Alpha  occ. eigenvalues --   -0.50954  -0.49508  -0.48899  -0.47664  -0.46432
 Alpha  occ. eigenvalues --   -0.45569  -0.45393  -0.43454  -0.43268  -0.42916
 Alpha  occ. eigenvalues --   -0.42288  -0.42055  -0.41651  -0.40475  -0.40174
 Alpha  occ. eigenvalues --   -0.39945  -0.39641  -0.39246  -0.38192  -0.37869
 Alpha  occ. eigenvalues --   -0.37356  -0.36315  -0.35627  -0.35300  -0.34817
 Alpha  occ. eigenvalues --   -0.34420  -0.34163  -0.34047  -0.32824  -0.31613
 Alpha  occ. eigenvalues --   -0.28963  -0.25520  -0.24144  -0.22758  -0.22182
 Alpha  occ. eigenvalues --   -0.21751  -0.14899
 Alpha virt. eigenvalues --    0.01887   0.02945   0.04998   0.07108   0.08790
 Alpha virt. eigenvalues --    0.09064   0.10693   0.11323   0.12060   0.12291
 Alpha virt. eigenvalues --    0.12554   0.12820   0.13067   0.13736   0.13928

 Mulliken charges:
               1
     1  C   -0.296640
     2  N   -0.381187
     3  C   -0.158165
     4  C   -0.109815
     5  N   -0.435997
     6  C    0.587056
     7  O   -0.528493
     8  C   -0.195395
     9  N   -0.678430
    10  C    0.351832
    11  C   -0.201069
    12  C   -0.196143
    13  C    0.367623
    14  N   -0.527097
    15  C   -0.100188
    16  C   -0.293227
    17  C   -0.299418
    18  C   -0.101115
    19  C   -0.208654
    20  C   -0.190645
    21  C   -0.182116
    22  C   -0.108955
    23  H    0.121396
    24  H    0.150351
    25  H    0.156299
    26  H    0.151964
    27  H    0.124511
    28  H    0.147921
    29  H    0.163930
    30  H    0.157352
    31  H    0.158936
    32  H    0.337280
    33  H    0.116525
    34  H    0.119638
    35  H    0.142973
    36  H    0.127988
    37  H    0.141603
    38  H    0.148528
    39  H    0.142909
    40  H    0.146986
    41  H    0.140588
    42  H    0.135068
    43  H    0.115756
    44  H    0.109727
    45  H    0.151954
    46  H    0.202343
    47  H    0.155812
    48  H    0.117900
 Sum of Mulliken charges =  -0.00000

 Dipole moment (field-independent basis, Debye):
    X=              1.8784    Y=             -3.4655    Z=             -0.2090  Tot=              3.9474
 Quadrupole moment (field-independent basis, Debye-Ang):
   XX=            -94.7821   YY=           -132.8459   ZZ=           -133.6994
   XY=             -5.5870   XZ=             -6.1737   YZ=              3.3662

 Normal termination of Gaussian 16 at Fri Nov  4 06:01:44 2022.
