 Gaussian 16, Revision B.01,
 Gaussian 16:  ES64L-G16RevB.01 20-Dec-2017

 -----------------------------
 #p b3lyp/6-31g(d) opt SCF=XQC
 -----------------------------

 ------------------------------
 Gaussian input prepared by ASE
 ------------------------------
 Symbolic Z-matrix:
 Charge =  0 Multiplicity = 1

 SCF Done:  E(RB3LYP) =  -1410.00281465     A.U. after   14 cycles
 SCF Done:  E(RB3LYP) =  -1410.01042089     A.U. after   12 cycles
 SCF Done:  E(RB3LYP) =  -1410.01151858     A.U. after   12 cycles
 SCF Done:  E(RB3LYP) =  -1410.01201629     A.U. after   12 cycles
 SCF Done:  E(RB3LYP) =  -1410.01226516     A.U. after   12 cycles
 SCF Done:  E(RB3LYP) =  -1410.01234593     A.U. after   10 cycles
 SCF Done:  E(RB3LYP) =  -1410.01243885     A.U. after   11 cycles
 SCF Done:  E(RB3LYP) =  -1410.01245456     A.U. after    9 cycles
 SCF Done:  E(RB3LYP) =  -1410.01246478     A.U. after   10 cycles
 SCF Done:  E(RB3LYP) =  -1410.01247059     A.U. after    9 cycles
 SCF Done:  E(RB3LYP) =  -1410.01248048     A.U. after    9 cycles
 SCF Done:  E(RB3LYP) =  -1410.01247473     A.U. after   11 cycles
 SCF Done:  E(RB3LYP) =  -1410.01248098     A.U. after   11 cycles
 SCF Done:  E(RB3LYP) =  -1410.01247301     A.U. after   11 cycles
 SCF Done:  E(RB3LYP) =  -1410.01239900     A.U. after   12 cycles
 SCF Done:  E(RB3LYP) =  -1410.01247637     A.U. after   11 cycles
 SCF Done:  E(RB3LYP) =  -1410.01248089     A.U. after    9 cycles
 SCF Done:  E(RB3LYP) =  -1410.01247880     A.U. after   10 cycles
 SCF Done:  E(RB3LYP) =  -1410.01248155     A.U. after   10 cycles
 SCF Done:  E(RB3LYP) =  -1410.01248159     A.U. after    6 cycles
 Optimization completed.
    -- Stationary point found.

                         Standard orientation:
 ---------------------------------------------------------------------
 Center     Atomic      Atomic             Coordinates (Angstroms)
 Number     Number       Type             X           Y           Z
 ---------------------------------------------------------------------
      1          6           0        6.580132   -2.406483   -0.336082
      2          6           0        5.449839   -1.429610   -0.672748
      3          6           0        4.642232   -1.054461    0.574644
      4          7           0        3.527214   -0.150615    0.282267
      5          6           0        3.524778    1.228682    0.319298
      6          6           0        4.691324    2.092203    0.690729
      7          8           0        5.785054    1.979692   -0.215376
      8          7           0        2.366732    1.712321   -0.038282
      9          7           0        1.600118    0.610410   -0.312004
     10          6           0        0.205192    0.782483   -0.726282
     11          7           0       -0.635801    1.184066    0.379219
     12          6           0       -1.163439    0.082640    1.193453
     13          6           0       -2.406487   -0.569711    0.577139
     14          7           0       -3.442569    0.441278    0.309050
     15          6           0       -4.757388   -0.032153    0.085663
     16          6           0       -5.360829   -0.882750    1.034279
     17          6           0       -6.662662   -1.339668    0.861010
     18          6           0       -7.412662   -0.954499   -0.254216
     19          6           0       -6.830674   -0.106348   -1.193171
     20          6           0       -5.518518    0.345781   -1.034875
     21          6           0       -2.947545    1.509144   -0.554173
     22          6           0       -1.693248    2.143141    0.068381
     23          6           0        2.272130   -0.567757   -0.127847
     24         16           0        1.728629   -2.144688   -0.331280
     25          1           0        7.280872   -1.974690    0.389157
     26          1           0        6.188073   -3.338545    0.087873
     27          1           0        7.150736   -2.664433   -1.234358
     28          1           0        4.769176   -1.878787   -1.404698
     29          1           0        5.859151   -0.512356   -1.110210
     30          1           0        4.203578   -1.946469    1.030646
     31          1           0        5.280510   -0.563432    1.315312
     32          1           0        5.091848    1.803266    1.667425
     33          1           0        4.318387    3.121127    0.769129
     34          1           0        5.485452    2.313390   -1.076380
     35          1           0       -0.066919   -0.170383   -1.196366
     36          1           0        0.200112    1.569477   -1.484086
     37          1           0       -1.424828    0.489156    2.179037
     38          1           0       -0.381338   -0.669778    1.331302
     39          1           0       -2.131658   -1.099152   -0.353936
     40          1           0       -2.797964   -1.321550    1.264984
     41          1           0       -4.811949   -1.162004    1.928485
     42          1           0       -7.100580   -1.990867    1.613450
     43          1           0       -8.431791   -1.307360   -0.383367
     44          1           0       -7.393105    0.203257   -2.070718
     45          1           0       -5.088820    0.983235   -1.799482
     46          1           0       -2.716747    1.143734   -1.574766
     47          1           0       -3.723452    2.275878   -0.648377
     48          1           0       -1.295028    2.917283   -0.596982
     49          1           0       -1.985119    2.631453    1.007444
 ---------------------------------------------------------------------

 The electronic state is 1-A.
 Alpha  occ. eigenvalues --  -88.82024 -19.17452 -14.42023 -14.41053 -14.37681
 Alpha  occ. eigenvalues --  -14.33965 -14.33287 -10.29814 -10.27305 -10.26813
 Alpha  occ. eigenvalues --  -10.25908 -10.23684 -10.21806 -10.21590 -10.21435
 Alpha  occ. eigenvalues --  -10.21108 -10.20765 -10.18892 -10.18185 -10.18168
 Alpha  occ. eigenvalues --  -10.18102 -10.17785 -10.17760 -10.17509  -7.88206
 Alpha  occ. eigenvalues --   -5.84802  -5.84089  -5.83848  -1.09592  -1.04530
 Alpha  occ. eigenvalues --   -0.96610  -0.94846  -0.91660  -0.87038  -0.83413
 Alpha  occ. eigenvalues --   -0.79851  -0.76819  -0.76240  -0.73982  -0.73501
 Alpha  occ. eigenvalues --   -0.73373  -0.70354  -0.69092  -0.65616  -0.65166
 Alpha  occ. eigenvalues --   -0.62453  -0.61218  -0.59421  -0.59158  -0.58717
 Alpha  occ. eigenvalues --   -0.56357  -0.54177  -0.53083  -0.51014  -0.50658
 Alpha  occ. eigenvalues --   -0.48729  -0.48494  -0.47710  -0.46898  -0.46666
 Alpha  occ. eigenvalues --   -0.46292  -0.46096  -0.45681  -0.44644  -0.43626
 Alpha  occ. eigenvalues --   -0.42338  -0.42058  -0.41471  -0.41020  -0.40212
 Alpha  occ. eigenvalues --   -0.39718  -0.38503  -0.38222  -0.37348  -0.36514
 Alpha  occ. eigenvalues --   -0.36399  -0.35856  -0.35626  -0.35436  -0.35073
 Alpha  occ. eigenvalues --   -0.34470  -0.34342  -0.32934  -0.32456  -0.31234
 Alpha  occ. eigenvalues --   -0.30900  -0.29530  -0.27399  -0.24127  -0.22365
 Alpha  occ. eigenvalues --   -0.20810  -0.20308  -0.19214
 Alpha virt. eigenvalues --   -0.00767   0.00155   0.00770   0.01608   0.06260
 Alpha virt. eigenvalues --    0.08520   0.09123   0.09752   0.09930   0.10435
 Alpha virt. eigenvalues --    0.11022   0.11310   0.11779   0.12866   0.13990

 Mulliken charges:
               1
     1  C   -0.451569
     2  C   -0.263238
     3  C   -0.142536
     4  N   -0.480621
     5  C    0.489549
     6  C   -0.111204
     7  O   -0.595350
     8  N   -0.315838
     9  N   -0.292214
    10  C   -0.013242
    11  N   -0.367257
    12  C   -0.167691
    13  C   -0.146760
    14  N   -0.496556
    15  C    0.331375
    16  C   -0.169353
    17  C   -0.136670
    18  C   -0.132225
    19  C   -0.140637
    20  C   -0.187254
    21  C   -0.131606
    22  C   -0.155412
    23  C    0.344592
    24  S   -0.316963
    25  H    0.145192
    26  H    0.154708
    27  H    0.153086
    28  H    0.171844
    29  H    0.150984
    30  H    0.194053
    31  H    0.157264
    32  H    0.172821
    33  H    0.172364
    34  H    0.400544
    35  H    0.187395
    36  H    0.164383
    37  H    0.147636
    38  H    0.180280
    39  H    0.142571
    40  H    0.155780
    41  H    0.127145
    42  H    0.125587
    43  H    0.122065
    44  H    0.124504
    45  H    0.125092
    46  H    0.121404
    47  H    0.153378
    48  H    0.144323
    49  H    0.154273
 Sum of Mulliken charges =  -0.00000

 Dipole moment (field-independent basis, Debye):
    X=              2.1581    Y=              3.0963    Z=             -0.2067  Tot=              3.7798
 Quadrupole moment (field-independent basis, Debye-Ang):
   XX=           -142.3506   YY=           -154.0842   ZZ=           -144.2459
   XY=              4.7127   XZ=              2.7901   YZ=             -7.8619

 Normal termination of Gaussian 16 at Fri Nov  4 19:11:25 2022.
