 Gaussian 16, Revision B.01,
 Gaussian 16:  ES64L-G16RevB.01 20-Dec-2017

 -------------------------------------------------------------------
 #p b3lyp/6-31g(d) 6D 10F nosymm GFInput td=(50-50,nstate=2) SCF=XQC
 -------------------------------------------------------------------

 ------------------------------
 Gaussian input prepared by ASE
 ------------------------------
 Symbolic Z-matrix:
 Charge =  0 Multiplicity = 1

                          Input orientation:
 ---------------------------------------------------------------------
 Center     Atomic      Atomic             Coordinates (Angstroms)
 Number     Number       Type             X           Y           Z
 ---------------------------------------------------------------------
      1          6           0       -6.635986    1.083587    2.029867
      2          6           0       -5.465517    1.146482    1.044356
      3          6           0       -4.689435   -0.174674    1.009789
      4          7           0       -3.537962   -0.136797    0.105154
      5          6           0       -3.494468   -0.504582   -1.224011
      6          6           0       -4.645869   -1.042996   -2.017008
      7          8           0       -5.711262   -0.108883   -2.166341
      8          7           0       -2.310698   -0.303452   -1.734967
      9          7           0       -1.569430    0.207685   -0.702451
     10          6           0       -0.156668    0.532744   -0.915744
     11          7           0        0.658376   -0.657944   -1.008674
     12          6           0        1.124133   -1.196485    0.274899
     13          6           0        2.366718   -0.473205    0.807274
     14          7           0        3.441802   -0.482658   -0.198479
     15          6           0        4.748281   -0.185504    0.257151
     16          6           0        5.292913   -0.916702    1.332443
     17          6           0        6.585231   -0.671820    1.783565
     18          6           0        7.383986    0.298534    1.171202
     19          6           0        6.860383    1.020402    0.101410
     20          6           0        5.558112    0.791461   -0.349043
     21          6           0        3.009252    0.110659   -1.459993
     22          6           0        1.754656   -0.613973   -1.973494
     23          6           0       -2.283113    0.329520    0.459187
     24         16           0       -1.781676    0.892403    1.960924
     25          1           0       -7.347280    0.293862    1.758110
     26          1           0       -6.287270    0.886446    3.050513
     27          1           0       -7.183526    2.031767    2.043335
     28          1           0       -4.774587    1.947411    1.330609
     29          1           0       -5.831466    1.360729    0.034185
     30          1           0       -4.294027   -0.413731    2.001020
     31          1           0       -5.337035   -0.995209    0.686628
     32          1           0       -5.087874   -1.910983   -1.517939
     33          1           0       -4.244407   -1.376074   -2.982306
     34          1           0       -5.372613    0.638651   -2.684949
     35          1           0        0.101828    1.211152   -0.093599
     36          1           0       -0.101818    1.078601   -1.860563
     37          1           0        1.364385   -2.257243    0.126491
     38          1           0        0.315103   -1.129328    1.008231
     39          1           0        2.107426    0.564576    1.087486
     40          1           0        2.711457   -0.969736    1.716263
     41          1           0        4.705793   -1.703200    1.796736
     42          1           0        6.977265   -1.256419    2.612149
     43          1           0        8.395595    0.482778    1.521225
     44          1           0        7.461407    1.783089   -0.387825
     45          1           0        5.174280    1.390964   -1.166895
     46          1           0        2.802005    1.194721   -1.358689
     47          1           0        3.811058   -0.002132   -2.196995
     48          1           0        1.403105   -0.144449   -2.898990
     49          1           0        2.029440   -1.650045   -2.211244
 ---------------------------------------------------------------------

 SCF Done:  E(RB3LYP) =  -1410.01248595     A.U. after   14 cycles

 Excitation energies and oscillator strengths:

 Excited state symmetry could not be determined.
 Excited State   1:      Triplet-?Sym    3.5616 eV  348.11 nm  f=0.0000  <S**2>=2.000
      88 -> 97        -0.14804
      89 -> 96        -0.32348
      90 -> 96        -0.10870
      90 -> 97         0.12706
      93 -> 96        -0.25954
      93 -> 97         0.50026
 This state for optimization and/or second-order correction.
 Total Energy, E(TD-HF/TD-DFT) =  -1409.88159913
 Copying the excited state density for this state as the 1-particle RhoCI density.

 Excited state symmetry could not be determined.
 Excited State   2:      Triplet-?Sym    3.6469 eV  339.98 nm  f=0.0000  <S**2>=2.000
      85 -> 94         0.11975
      92 -> 94         0.48851
      92 -> 95         0.47377

 Excited state symmetry could not be determined.
 Excited State   3:      Singlet-?Sym    4.4116 eV  281.04 nm  f=0.0002  <S**2>=0.000
      90 -> 95        -0.13795
      91 -> 94         0.25680
      91 -> 95         0.61864
      93 -> 94        -0.12069

 Excited state symmetry could not be determined.
 Excited State   4:      Singlet-?Sym    4.5444 eV  272.83 nm  f=0.0005  <S**2>=0.000
      90 -> 94        -0.11569
      91 -> 94        -0.14323
      91 -> 95         0.16891
      92 -> 94        -0.14393
      93 -> 94         0.63268

 Alpha  occ. eigenvalues --  -88.82024 -19.17453 -14.42023 -14.41053 -14.37681
 Alpha  occ. eigenvalues --  -14.33965 -14.33287 -10.29814 -10.27305 -10.26813
 Alpha  occ. eigenvalues --  -10.25908 -10.23684 -10.21806 -10.21591 -10.21435
 Alpha  occ. eigenvalues --  -10.21108 -10.20765 -10.18892 -10.18185 -10.18168
 Alpha  occ. eigenvalues --  -10.18103 -10.17785 -10.17760 -10.17509  -7.88206
 Alpha  occ. eigenvalues --   -5.84802  -5.84089  -5.83848  -1.09593  -1.04530
 Alpha  occ. eigenvalues --   -0.96610  -0.94846  -0.91660  -0.87038  -0.83413
 Alpha  occ. eigenvalues --   -0.79851  -0.76819  -0.76240  -0.73982  -0.73501
 Alpha  occ. eigenvalues --   -0.73373  -0.70354  -0.69092  -0.65616  -0.65166
 Alpha  occ. eigenvalues --   -0.62453  -0.61218  -0.59421  -0.59158  -0.58717
 Alpha  occ. eigenvalues --   -0.56357  -0.54177  -0.53083  -0.51014  -0.50658
 Alpha  occ. eigenvalues --   -0.48729  -0.48494  -0.47710  -0.46898  -0.46666
 Alpha  occ. eigenvalues --   -0.46292  -0.46096  -0.45681  -0.44644  -0.43626
 Alpha  occ. eigenvalues --   -0.42338  -0.42058  -0.41471  -0.41020  -0.40212
 Alpha  occ. eigenvalues --   -0.39718  -0.38503  -0.38222  -0.37348  -0.36514
 Alpha  occ. eigenvalues --   -0.36399  -0.35856  -0.35626  -0.35436  -0.35073
 Alpha  occ. eigenvalues --   -0.34470  -0.34342  -0.32934  -0.32456  -0.31234
 Alpha  occ. eigenvalues --   -0.30900  -0.29530  -0.27399  -0.24127  -0.22365
 Alpha  occ. eigenvalues --   -0.20810  -0.20308  -0.19214
 Alpha virt. eigenvalues --   -0.00767   0.00155   0.00770   0.01608   0.06260
 Alpha virt. eigenvalues --    0.08520   0.09123   0.09752   0.09930   0.10435
 Alpha virt. eigenvalues --    0.11022   0.11310   0.11779   0.12866   0.13990

 Mulliken charges:
               1
     1  C   -0.451559
     2  C   -0.263242
     3  C   -0.142552
     4  N   -0.480597
     5  C    0.489539
     6  C   -0.111190
     7  O   -0.595351
     8  N   -0.315839
     9  N   -0.292220
    10  C   -0.013233
    11  N   -0.367267
    12  C   -0.167717
    13  C   -0.146746
    14  N   -0.496544
    15  C    0.331370
    16  C   -0.169357
    17  C   -0.136668
    18  C   -0.132220
    19  C   -0.140642
    20  C   -0.187254
    21  C   -0.131647
    22  C   -0.155368
    23  C    0.344580
    24  S   -0.316967
    25  H    0.145190
    26  H    0.154707
    27  H    0.153086
    28  H    0.171846
    29  H    0.150984
    30  H    0.194055
    31  H    0.157267
    32  H    0.172820
    33  H    0.172364
    34  H    0.400544
    35  H    0.187397
    36  H    0.164382
    37  H    0.147640
    38  H    0.180285
    39  H    0.142573
    40  H    0.155777
    41  H    0.127146
    42  H    0.125587
    43  H    0.122064
    44  H    0.124505
    45  H    0.125091
    46  H    0.121411
    47  H    0.153382
    48  H    0.144318
    49  H    0.154269
 Sum of Mulliken charges =  -0.00000

 Dipole moment (field-independent basis, Debye):
    X=             -2.0539    Y=             -0.4893    Z=             -3.1352  Tot=              3.7799
 Quadrupole moment (field-independent basis, Debye-Ang):
   XX=           -142.4466   YY=           -148.6904   ZZ=           -149.7108
   XY=              4.0101   XZ=              3.8957   YZ=             -9.2463

 Normal termination of Gaussian 16 at Sat Nov  5 11:27:27 2022.
