 Gaussian 16, Revision B.01,
 Gaussian 16:  ES64L-G16RevB.01 20-Dec-2017

 -------------------------------------------------------------------
 #p b3lyp/6-31g(d) 6D 10F nosymm GFInput td=(50-50,nstate=2) SCF=XQC
 -------------------------------------------------------------------

 ------------------------------
 Gaussian input prepared by ASE
 ------------------------------
 Symbolic Z-matrix:
 Charge =  0 Multiplicity = 1

                          Input orientation:
 ---------------------------------------------------------------------
 Center     Atomic      Atomic             Coordinates (Angstroms)
 Number     Number       Type             X           Y           Z
 ---------------------------------------------------------------------
      1          6           0       -1.947160   -0.202119    3.526906
      2          6           0       -0.996541   -1.365372    3.220285
      3          7           0        0.071596   -1.013472    2.284199
      4          6           0        0.125976   -1.378018    0.947991
      5          7           0        1.191337   -1.447561    0.217419
      6          6           0        2.487373   -1.271448    0.837437
      7          6           0        2.955643    0.206693    0.903285
      8          8           0        3.957806    0.368703    1.912213
      9          6           0        3.416101    0.786362   -0.430131
     10          6           0        2.966619    0.303901   -1.665322
     11          6           0        3.441102    0.898939   -2.835343
     12          7           0        4.310464    1.917178   -2.865120
     13          6           0        4.733737    2.373025   -1.679059
     14          6           0        4.325032    1.851547   -0.452154
     15          7           0       -1.110004   -1.710951    0.404689
     16          6           0       -1.235176   -1.996097   -1.019344
     17          6           0       -1.301528   -0.738966   -1.917613
     18          6           0       -2.476645    0.154725   -1.596036
     19          6           0       -2.346545    1.332403   -0.846817
     20          6           0       -3.452970    2.126409   -0.532978
     21          6           0       -4.725027    1.753191   -0.969201
     22          6           0       -4.889358    0.585267   -1.716750
     23          6           0       -3.769747   -0.182399   -2.006834
     24          9           0       -3.936693   -1.321106   -2.725554
     25          1           0       -2.720105   -0.514577    4.239019
     26          1           0       -1.401407    0.642066    3.962521
     27          1           0       -2.446426    0.160512    2.620640
     28          1           0       -1.549516   -2.217243    2.812145
     29          1           0       -0.530420   -1.710798    4.151109
     30          1           0        0.959029   -0.773994    2.698810
     31          1           0        3.227437   -1.845105    0.261671
     32          1           0        2.540098   -1.656612    1.870868
     33          1           0        2.113696    0.809492    1.268176
     34          1           0        4.760692   -0.077008    1.594717
     35          1           0        2.255570   -0.514766   -1.707468
     36          1           0        3.104236    0.532904   -3.804499
     37          1           0        5.440551    3.201430   -1.710756
     38          1           0        4.707770    2.261611    0.476815
     39          1           0       -1.886537   -1.182345    0.783193
     40          1           0       -2.141664   -2.594204   -1.161765
     41          1           0       -0.373538   -2.600526   -1.306352
     42          1           0       -0.369072   -0.178785   -1.801405
     43          1           0       -1.361123   -1.072054   -2.960841
     44          1           0       -1.354386    1.631876   -0.517895
     45          1           0       -3.318812    3.036921    0.043929
     46          1           0       -5.589733    2.366898   -0.733342
     47          1           0       -5.861732    0.263473   -2.075456
 ---------------------------------------------------------------------

 SCF Done:  E(RB3LYP) =  -1093.81618425     A.U. after   14 cycles

 Excitation energies and oscillator strengths:

 Excited state symmetry could not be determined.
 Excited State   1:      Triplet-?Sym    3.7658 eV  329.24 nm  f=0.0000  <S**2>=2.000
      82 -> 90        -0.44210
      84 -> 91         0.34524
      86 -> 90         0.16633
      86 -> 91        -0.29531
      87 -> 90        -0.14050
      87 -> 91         0.18961
 This state for optimization and/or second-order correction.
 Total Energy, E(TD-HF/TD-DFT) =  -1093.67779403
 Copying the excited state density for this state as the 1-particle RhoCI density.

 Excited state symmetry could not be determined.
 Excited State   2:      Triplet-?Sym    3.8684 eV  320.51 nm  f=0.0000  <S**2>=2.000
      80 -> 89        -0.13616
      81 -> 89         0.42610
      83 -> 92        -0.48471
      85 -> 92         0.14565
      88 -> 89        -0.17409

 Excited state symmetry could not be determined.
 Excited State   3:      Singlet-?Sym    4.5869 eV  270.30 nm  f=0.0186  <S**2>=0.000
      85 -> 89        -0.12750
      88 -> 89         0.68491

 Excited state symmetry could not be determined.
 Excited State   4:      Singlet-?Sym    4.8551 eV  255.37 nm  f=0.0119  <S**2>=0.000
      88 -> 90         0.69736

 Alpha  occ. eigenvalues --  -24.70697 -19.15310 -14.35488 -14.34587 -14.31875
 Alpha  occ. eigenvalues --  -14.28719 -10.28199 -10.27180 -10.24362 -10.23278
 Alpha  occ. eigenvalues --  -10.21411 -10.21260 -10.21167 -10.20644 -10.20422
 Alpha  occ. eigenvalues --  -10.20416 -10.20170 -10.19968 -10.19952 -10.19636
 Alpha  occ. eigenvalues --  -10.18965 -10.18868 -10.18725 -10.18391  -1.21638
 Alpha  occ. eigenvalues --   -1.02593  -0.98267  -0.92838  -0.90065  -0.87246
 Alpha  occ. eigenvalues --   -0.86427  -0.80508  -0.78733  -0.75952  -0.75032
 Alpha  occ. eigenvalues --   -0.74869  -0.72892  -0.71862  -0.65942  -0.64260
 Alpha  occ. eigenvalues --   -0.63462  -0.61986  -0.61787  -0.59915  -0.59363
 Alpha  occ. eigenvalues --   -0.56864  -0.54348  -0.53503  -0.52705  -0.50197
 Alpha  occ. eigenvalues --   -0.49637  -0.48594  -0.48235  -0.46915  -0.46318
 Alpha  occ. eigenvalues --   -0.45874  -0.45360  -0.45054  -0.44686  -0.44230
 Alpha  occ. eigenvalues --   -0.43894  -0.43407  -0.42027  -0.41595  -0.41433
 Alpha  occ. eigenvalues --   -0.40510  -0.39981  -0.39011  -0.38643  -0.38254
 Alpha  occ. eigenvalues --   -0.37963  -0.36652  -0.36337  -0.35936  -0.35524
 Alpha  occ. eigenvalues --   -0.35361  -0.34124  -0.33579  -0.33213  -0.29209
 Alpha  occ. eigenvalues --   -0.26772  -0.25874  -0.25206  -0.25014  -0.24684
 Alpha  occ. eigenvalues --   -0.24052  -0.23697  -0.21130
 Alpha virt. eigenvalues --   -0.01757  -0.01179  -0.00213  -0.00114   0.04612
 Alpha virt. eigenvalues --    0.07374   0.07703   0.08492   0.08961   0.10547
 Alpha virt. eigenvalues --    0.12186   0.12445   0.12996   0.13568   0.13806

 Mulliken charges:
               1
     1  C   -0.439081
     2  C   -0.147879
     3  N   -0.637920
     4  C    0.690499
     5  N   -0.507896
     6  C   -0.205575
     7  C    0.083422
     8  O   -0.623695
     9  C    0.099264
    10  C   -0.190811
    11  C    0.029060
    12  N   -0.409670
    13  C    0.036258
    14  C   -0.186299
    15  N   -0.625173
    16  C   -0.131546
    17  C   -0.350632
    18  C    0.082248
    19  C   -0.200915
    20  C   -0.127554
    21  C   -0.135207
    22  C   -0.191362
    23  C    0.323713
    24  F   -0.299199
    25  H    0.148025
    26  H    0.152983
    27  H    0.152888
    28  H    0.171183
    29  H    0.151352
    30  H    0.338767
    31  H    0.136235
    32  H    0.122941
    33  H    0.156989
    34  H    0.389064
    35  H    0.180537
    36  H    0.137496
    37  H    0.136178
    38  H    0.144343
    39  H    0.325583
    40  H    0.151816
    41  H    0.180479
    42  H    0.171988
    43  H    0.154464
    44  H    0.143364
    45  H    0.134529
    46  H    0.138331
    47  H    0.146414
 Sum of Mulliken charges =  -0.00000

 Dipole moment (field-independent basis, Debye):
    X=             -2.5840    Y=             -0.6031    Z=              4.0157  Tot=              4.8132
 Quadrupole moment (field-independent basis, Debye-Ang):
   XX=           -136.3878   YY=           -143.1621   ZZ=           -144.4434
   XY=             -8.8680   XZ=              5.6869   YZ=              2.6859

 Normal termination of Gaussian 16 at Sat Nov  5 11:32:35 2022.
