 Gaussian 16, Revision B.01,
 Gaussian 16:  ES64L-G16RevB.01 20-Dec-2017

 -----------------------------
 #p b3lyp/6-31g(d) opt SCF=XQC
 -----------------------------

 ------------------------------
 Gaussian input prepared by ASE
 ------------------------------
 Symbolic Z-matrix:
 Charge =  0 Multiplicity = 1

 SCF Done:  E(RB3LYP) =  -1093.80570216     A.U. after   14 cycles
 SCF Done:  E(RB3LYP) =  -1093.81159146     A.U. after   13 cycles
 SCF Done:  E(RB3LYP) =  -1093.81292406     A.U. after   12 cycles
 SCF Done:  E(RB3LYP) =  -1093.81347008     A.U. after   12 cycles
 SCF Done:  E(RB3LYP) =  -1093.81370924     A.U. after   11 cycles
 SCF Done:  E(RB3LYP) =  -1093.81396628     A.U. after   12 cycles
 SCF Done:  E(RB3LYP) =  -1093.81409616     A.U. after   12 cycles
 SCF Done:  E(RB3LYP) =  -1093.81415660     A.U. after   11 cycles
 SCF Done:  E(RB3LYP) =  -1093.81451136     A.U. after   11 cycles
 SCF Done:  E(RB3LYP) =  -1093.81481747     A.U. after   11 cycles
 SCF Done:  E(RB3LYP) =  -1093.81497350     A.U. after   12 cycles
 SCF Done:  E(RB3LYP) =  -1093.81612512     A.U. after   11 cycles
 SCF Done:  E(RB3LYP) =  -1093.81616266     A.U. after    9 cycles
 SCF Done:  E(RB3LYP) =  -1093.81610973     A.U. after   11 cycles
 SCF Done:  E(RB3LYP) =  -1093.81617896     A.U. after   11 cycles
 SCF Done:  E(RB3LYP) =  -1093.81618145     A.U. after    8 cycles
 SCF Done:  E(RB3LYP) =  -1093.81618263     A.U. after    8 cycles
 SCF Done:  E(RB3LYP) =  -1093.81618280     A.U. after    7 cycles
 SCF Done:  E(RB3LYP) =  -1093.81618294     A.U. after    7 cycles
 SCF Done:  E(RB3LYP) =  -1093.81618299     A.U. after    7 cycles
 Optimization completed.
    -- Stationary point found.

                         Standard orientation:
 ---------------------------------------------------------------------
 Center     Atomic      Atomic             Coordinates (Angstroms)
 Number     Number       Type             X           Y           Z
 ---------------------------------------------------------------------
      1          6           0        1.838758    3.625777    1.423133
      2          6           0        1.040369    3.768071    0.121912
      3          7           0       -0.016847    2.767240   -0.025188
      4          6           0        0.031206    1.659013   -0.856348
      5          7           0       -0.985094    1.004409   -1.316993
      6          6           0       -2.319633    1.514920   -1.085624
      7          6           0       -2.954132    1.031597    0.245663
      8          8           0       -4.013120    1.909157    0.641827
      9          6           0       -3.415757   -0.421975    0.237554
     10          6           0       -2.858889   -1.392430   -0.604240
     11          6           0       -3.343616   -2.699751   -0.540185
     12          7           0       -4.320002   -3.103035    0.282932
     13          6           0       -4.845613   -2.168441    1.085405
     14          6           0       -4.437065   -0.835367    1.102017
     15          7           0        1.320324    1.277508   -1.211730
     16          6           0        1.541646    0.058552   -1.979851
     17          6           0        1.506677   -1.239357   -1.139686
     18          6           0        2.557617   -1.268316   -0.054474
     19          6           0        2.261508   -1.005352    1.290275
     20          6           0        3.255860   -1.004871    2.272303
     21          6           0        4.580449   -1.271956    1.923244
     22          6           0        4.909358   -1.536927    0.592271
     23          6           0        3.897864   -1.525029   -0.358374
     24          9           0        4.224760   -1.773951   -1.651533
     25          1           0        2.608736    4.403584    1.488912
     26          1           0        1.181991    3.719560    2.294981
     27          1           0        2.334734    2.650097    1.487494
     28          1           0        1.703918    3.702669   -0.746114
     29          1           0        0.574231    4.760279    0.086432
     30          1           0       -0.943601    3.063800    0.239332
     31          1           0       -2.963255    1.190111   -1.915403
     32          1           0       -2.375641    2.617521   -1.070010
     33          1           0       -2.203057    1.149700    1.037700
     34          1           0       -4.745302    1.777328    0.016832
     35          1           0       -2.058870   -1.129623   -1.288700
     36          1           0       -2.923787   -3.465810   -1.191048
     37          1           0       -5.639161   -2.503487    1.752393
     38          1           0       -4.905558   -0.122922    1.773254
     39          1           0        2.014218    1.435523   -0.491151
     40          1           0        2.515349    0.147104   -2.473609
     41          1           0        0.767659    0.013446   -2.747339
     42          1           0        0.512671   -1.338342   -0.693665
     43          1           0        1.650955   -2.086657   -1.820926
     44          1           0        1.227947   -0.810641    1.566125
     45          1           0        2.993710   -0.803773    3.307044
     46          1           0        5.358766   -1.277819    2.680985
     47          1           0        5.927156   -1.751132    0.282536
 ---------------------------------------------------------------------

 The electronic state is 1-A.
 Alpha  occ. eigenvalues --  -24.70697 -19.15310 -14.35488 -14.34587 -14.31875
 Alpha  occ. eigenvalues --  -14.28719 -10.28199 -10.27180 -10.24362 -10.23278
 Alpha  occ. eigenvalues --  -10.21411 -10.21260 -10.21167 -10.20644 -10.20422
 Alpha  occ. eigenvalues --  -10.20416 -10.20170 -10.19968 -10.19952 -10.19636
 Alpha  occ. eigenvalues --  -10.18965 -10.18868 -10.18725 -10.18391  -1.21638
 Alpha  occ. eigenvalues --   -1.02593  -0.98267  -0.92838  -0.90065  -0.87246
 Alpha  occ. eigenvalues --   -0.86427  -0.80508  -0.78733  -0.75952  -0.75032
 Alpha  occ. eigenvalues --   -0.74869  -0.72892  -0.71862  -0.65942  -0.64260
 Alpha  occ. eigenvalues --   -0.63462  -0.61986  -0.61787  -0.59915  -0.59363
 Alpha  occ. eigenvalues --   -0.56864  -0.54348  -0.53503  -0.52705  -0.50197
 Alpha  occ. eigenvalues --   -0.49637  -0.48594  -0.48235  -0.46915  -0.46318
 Alpha  occ. eigenvalues --   -0.45874  -0.45360  -0.45054  -0.44686  -0.44230
 Alpha  occ. eigenvalues --   -0.43894  -0.43407  -0.42027  -0.41595  -0.41433
 Alpha  occ. eigenvalues --   -0.40510  -0.39981  -0.39011  -0.38643  -0.38254
 Alpha  occ. eigenvalues --   -0.37963  -0.36652  -0.36337  -0.35936  -0.35524
 Alpha  occ. eigenvalues --   -0.35361  -0.34124  -0.33579  -0.33213  -0.29209
 Alpha  occ. eigenvalues --   -0.26772  -0.25874  -0.25206  -0.25013  -0.24684
 Alpha  occ. eigenvalues --   -0.24052  -0.23697  -0.21130
 Alpha virt. eigenvalues --   -0.01757  -0.01179  -0.00213  -0.00114   0.04612
 Alpha virt. eigenvalues --    0.07374   0.07703   0.08492   0.08961   0.10547
 Alpha virt. eigenvalues --    0.12186   0.12445   0.12996   0.13568   0.13806

 Mulliken charges:
               1
     1  C   -0.439078
     2  C   -0.147889
     3  N   -0.637920
     4  C    0.690515
     5  N   -0.507900
     6  C   -0.205582
     7  C    0.083419
     8  O   -0.623692
     9  C    0.099277
    10  C   -0.190825
    11  C    0.029071
    12  N   -0.409678
    13  C    0.036276
    14  C   -0.186316
    15  N   -0.625172
    16  C   -0.131551
    17  C   -0.350616
    18  C    0.082241
    19  C   -0.200928
    20  C   -0.127549
    21  C   -0.135210
    22  C   -0.191364
    23  C    0.323716
    24  F   -0.299197
    25  H    0.148026
    26  H    0.152985
    27  H    0.152884
    28  H    0.171184
    29  H    0.151354
    30  H    0.338767
    31  H    0.136235
    32  H    0.122941
    33  H    0.156988
    34  H    0.389063
    35  H    0.180532
    36  H    0.137497
    37  H    0.136178
    38  H    0.144343
    39  H    0.325584
    40  H    0.151815
    41  H    0.180482
    42  H    0.171989
    43  H    0.154461
    44  H    0.143370
    45  H    0.134530
    46  H    0.138332
    47  H    0.146415
 Sum of Mulliken charges =  -0.00000

 Dipole moment (field-independent basis, Debye):
    X=              2.4497    Y=              3.9579    Z=              1.2246  Tot=              4.8131
 Quadrupole moment (field-independent basis, Debye-Ang):
   XX=           -137.7178   YY=           -143.9827   ZZ=           -139.7291
   XY=             -7.8287   XZ=              6.8480   YZ=              1.1397

 Normal termination of Gaussian 16 at Fri Nov  4 19:09:59 2022.
