 Gaussian 16, Revision B.01,
 Gaussian 16:  ES64L-G16RevB.01 20-Dec-2017

 -----------------------------
 #p b3lyp/6-31g(d) opt SCF=XQC
 -----------------------------

 ------------------------------
 Gaussian input prepared by ASE
 ------------------------------
 Symbolic Z-matrix:
 Charge =  0 Multiplicity = 1

 SCF Done:  E(RB3LYP) =  -1073.80337081     A.U. after   15 cycles
 SCF Done:  E(RB3LYP) =  -1073.80571796     A.U. after   13 cycles
 SCF Done:  E(RB3LYP) =  -1073.80849077     A.U. after   13 cycles
 SCF Done:  E(RB3LYP) =  -1073.80863168     A.U. after   13 cycles
 SCF Done:  E(RB3LYP) =  -1073.80951399     A.U. after   13 cycles
 SCF Done:  E(RB3LYP) =  -1073.80977886     A.U. after   12 cycles
 SCF Done:  E(RB3LYP) =  -1073.80990750     A.U. after   12 cycles
 SCF Done:  E(RB3LYP) =  -1073.81012001     A.U. after   12 cycles
 SCF Done:  E(RB3LYP) =  -1073.81021616     A.U. after   11 cycles
 SCF Done:  E(RB3LYP) =  -1073.81025053     A.U. after   11 cycles
 SCF Done:  E(RB3LYP) =  -1073.81025845     A.U. after   10 cycles
 SCF Done:  E(RB3LYP) =  -1073.81025887     A.U. after    8 cycles
 SCF Done:  E(RB3LYP) =  -1073.81025908     A.U. after    8 cycles
 Optimization completed.
    -- Stationary point found.

                         Standard orientation:
 ---------------------------------------------------------------------
 Center     Atomic      Atomic             Coordinates (Angstroms)
 Number     Number       Type             X           Y           Z
 ---------------------------------------------------------------------
      1          6           0        3.394482    0.457829   -1.933597
      2         16           0        3.820260   -0.000604   -0.213478
      3          6           0        2.408076    0.754564    0.701335
      4          6           0        1.214332   -0.140248    1.097134
      5          6           0        1.614230   -1.247634    2.085755
      6          7           0        0.429118   -0.662449   -0.056633
      7          6           0        0.906081   -1.915677   -0.640809
      8          6           0       -0.955549   -0.449104   -0.084614
      9          6           0       -1.859619   -1.505672   -0.329723
     10          6           0       -3.235642   -1.309746   -0.382042
     11          6           0       -3.754205   -0.036045   -0.180588
     12          9           0       -5.089330    0.153933   -0.217888
     13          6           0       -2.919591    1.042535    0.042999
     14          6           0       -1.526394    0.849387    0.072067
     15          6           0       -0.721096    2.026487    0.180650
     16          7           0       -0.097862    3.008405    0.244401
     17          1           0        2.452386    0.005862   -2.253753
     18          1           0        4.203614    0.086222   -2.568256
     19          1           0        3.333367    1.544644   -2.038820
     20          1           0        2.840505    1.151483    1.626343
     21          1           0        2.056286    1.609702    0.120818
     22          1           0        0.539195    0.531073    1.635945
     23          1           0        0.741969   -1.839108    2.384634
     24          1           0        2.367114   -1.921513    1.666017
     25          1           0        2.040213   -0.796356    2.988580
     26          1           0        0.487233   -2.030772   -1.645084
     27          1           0        0.643041   -2.808363   -0.051543
     28          1           0        1.992623   -1.874092   -0.719684
     29          1           0       -1.481611   -2.511402   -0.461299
     30          1           0       -3.910318   -2.141042   -0.560048
     31          1           0       -3.335234    2.036180    0.167010
 ---------------------------------------------------------------------

 The electronic state is 1-A.
 Alpha  occ. eigenvalues --  -88.87037 -24.71353 -14.36325 -14.33762 -10.28191
 Alpha  occ. eigenvalues --  -10.25692 -10.24119 -10.23894 -10.23289 -10.22025
 Alpha  occ. eigenvalues --  -10.21848 -10.21703 -10.21260 -10.21197 -10.20940
 Alpha  occ. eigenvalues --  -10.18713  -7.93124  -5.89649  -5.89269  -5.88582
 Alpha  occ. eigenvalues --   -1.22502  -0.95910  -0.90773  -0.87353  -0.81034
 Alpha  occ. eigenvalues --   -0.79006  -0.77064  -0.75536  -0.70184  -0.69532
 Alpha  occ. eigenvalues --   -0.66818  -0.63446  -0.61109  -0.58251  -0.56518
 Alpha  occ. eigenvalues --   -0.52657  -0.51646  -0.50255  -0.47923  -0.46778
 Alpha  occ. eigenvalues --   -0.46205  -0.45799  -0.45256  -0.43364  -0.42884
 Alpha  occ. eigenvalues --   -0.42439  -0.41676  -0.40749  -0.40537  -0.39639
 Alpha  occ. eigenvalues --   -0.38638  -0.37430  -0.37187  -0.36910  -0.35863
 Alpha  occ. eigenvalues --   -0.35206  -0.34411  -0.32999  -0.30329  -0.29108
 Alpha  occ. eigenvalues --   -0.27199  -0.22604  -0.20972
 Alpha virt. eigenvalues --   -0.05429  -0.01045   0.02881   0.04231   0.06980
 Alpha virt. eigenvalues --    0.07422   0.07899   0.08255   0.10543   0.11628
 Alpha virt. eigenvalues --    0.13049   0.13476   0.13796   0.13914   0.15000

 Mulliken charges:
               1
     1  C   -0.587824
     2  S    0.073807
     3  C   -0.425517
     4  C    0.014275
     5  C   -0.458275
     6  N   -0.491637
     7  C   -0.343533
     8  C    0.343881
     9  C   -0.195953
    10  C   -0.191762
    11  C    0.379123
    12  F   -0.296050
    13  C   -0.223362
    14  C    0.094421
    15  C    0.261274
    16  N   -0.510662
    17  H    0.184632
    18  H    0.180856
    19  H    0.187724
    20  H    0.174674
    21  H    0.206191
    22  H    0.161128
    23  H    0.151489
    24  H    0.170914
    25  H    0.154473
    26  H    0.162099
    27  H    0.144282
    28  H    0.201923
    29  H    0.149017
    30  H    0.156471
    31  H    0.171920
 Sum of Mulliken charges =  -0.00000

 Dipole moment (field-independent basis, Debye):
    X=             -0.7755    Y=             -3.5681    Z=             -0.3752  Tot=              3.6706
 Quadrupole moment (field-independent basis, Debye-Ang):
   XX=           -111.1424   YY=           -106.4773   ZZ=            -97.0111
   XY=              1.0957   XZ=             -2.1656   YZ=              0.5874

 Normal termination of Gaussian 16 at Fri Nov  4 18:31:31 2022.
