 Gaussian 16, Revision B.01,
 Gaussian 16:  ES64L-G16RevB.01 20-Dec-2017

 -------------------------------------------------------------------
 #p b3lyp/6-31g(d) 6D 10F nosymm GFInput td=(50-50,nstate=2) SCF=XQC
 -------------------------------------------------------------------

 ------------------------------
 Gaussian input prepared by ASE
 ------------------------------
 Symbolic Z-matrix:
 Charge =  0 Multiplicity = 1

                          Input orientation:
 ---------------------------------------------------------------------
 Center     Atomic      Atomic             Coordinates (Angstroms)
 Number     Number       Type             X           Y           Z
 ---------------------------------------------------------------------
      1          6           0        3.472205    1.160927   -0.803438
      2         16           0        3.255504   -0.582419   -1.317288
      3          6           0        2.142354   -1.196957    0.018625
      4          6           0        0.623873   -1.263293   -0.250051
      5          6           0        0.269757   -2.252879   -1.372064
      6          7           0       -0.025624    0.064941   -0.435467
      7          6           0       -0.018981    0.596142   -1.798228
      8          6           0       -1.135352    0.391686    0.355320
      9          6           0       -2.325699    0.892701   -0.215483
     10          6           0       -3.429899    1.242153    0.554705
     11          6           0       -3.377220    1.091459    1.935401
     12          9           0       -4.451707    1.417434    2.683236
     13          6           0       -2.233084    0.625771    2.555075
     14          6           0       -1.107424    0.294918    1.778818
     15          6           0        0.079813   -0.057827    2.494291
     16          7           0        1.033915   -0.315066    3.110865
     17          1           0        2.527183    1.709615   -0.817318
     18          1           0        4.161471    1.617106   -1.519253
     19          1           0        3.912783    1.216125    0.195972
     20          1           0        2.481669   -2.216285    0.233140
     21          1           0        2.336828   -0.601043    0.912540
     22          1           0        0.202898   -1.673175    0.672758
     23          1           0       -0.815010   -2.314253   -1.511799
     24          1           0        0.730476   -1.976174   -2.325112
     25          1           0        0.631987   -3.252224   -1.106912
     26          1           0       -0.206582    1.673728   -1.768855
     27          1           0       -0.768216    0.132128   -2.459023
     28          1           0        0.965070    0.426119   -2.235561
     29          1           0       -2.400979    0.992021   -1.290733
     30          1           0       -4.337844    1.613665    0.090442
     31          1           0       -2.194159    0.542953    3.635396
 ---------------------------------------------------------------------

 SCF Done:  E(RB3LYP) =  -1073.81025760     A.U. after   15 cycles

 Excitation energies and oscillator strengths:

 Excited state symmetry could not be determined.
 Excited State   1:      Triplet-?Sym    2.8810 eV  430.35 nm  f=0.0000  <S**2>=2.000
      61 -> 64        -0.15117
      62 -> 64         0.27471
      63 -> 64         0.61494
      63 -> 65        -0.11487
 This state for optimization and/or second-order correction.
 Total Energy, E(TD-HF/TD-DFT) =  -1073.70438233
 Copying the excited state density for this state as the 1-particle RhoCI density.

 Excited state symmetry could not be determined.
 Excited State   2:      Triplet-?Sym    3.4742 eV  356.87 nm  f=0.0000  <S**2>=2.000
      60 -> 65        -0.13615
      61 -> 64         0.43728
      61 -> 65         0.13051
      62 -> 65         0.22410
      63 -> 64         0.20343
      63 -> 65         0.42072

 Excited state symmetry could not be determined.
 Excited State   3:      Singlet-?Sym    3.6413 eV  340.49 nm  f=0.0553  <S**2>=0.000
      63 -> 64         0.69730

 Excited state symmetry could not be determined.
 Excited State   4:      Singlet-?Sym    4.1512 eV  298.67 nm  f=0.0189  <S**2>=0.000
      62 -> 64         0.69938

 Alpha  occ. eigenvalues --  -88.87036 -24.71353 -14.36325 -14.33762 -10.28191
 Alpha  occ. eigenvalues --  -10.25692 -10.24119 -10.23894 -10.23289 -10.22025
 Alpha  occ. eigenvalues --  -10.21848 -10.21703 -10.21260 -10.21197 -10.20939
 Alpha  occ. eigenvalues --  -10.18713  -7.93124  -5.89649  -5.89269  -5.88582
 Alpha  occ. eigenvalues --   -1.22502  -0.95910  -0.90773  -0.87353  -0.81034
 Alpha  occ. eigenvalues --   -0.79006  -0.77064  -0.75536  -0.70184  -0.69532
 Alpha  occ. eigenvalues --   -0.66818  -0.63446  -0.61109  -0.58251  -0.56518
 Alpha  occ. eigenvalues --   -0.52657  -0.51647  -0.50255  -0.47923  -0.46778
 Alpha  occ. eigenvalues --   -0.46205  -0.45799  -0.45256  -0.43364  -0.42884
 Alpha  occ. eigenvalues --   -0.42439  -0.41676  -0.40749  -0.40537  -0.39639
 Alpha  occ. eigenvalues --   -0.38638  -0.37430  -0.37187  -0.36910  -0.35863
 Alpha  occ. eigenvalues --   -0.35206  -0.34411  -0.32999  -0.30329  -0.29108
 Alpha  occ. eigenvalues --   -0.27199  -0.22604  -0.20972
 Alpha virt. eigenvalues --   -0.05429  -0.01045   0.02881   0.04231   0.06980
 Alpha virt. eigenvalues --    0.07422   0.07899   0.08255   0.10543   0.11628
 Alpha virt. eigenvalues --    0.13049   0.13476   0.13796   0.13914   0.15000

 Mulliken charges:
               1
     1  C   -0.587825
     2  S    0.073813
     3  C   -0.425516
     4  C    0.014286
     5  C   -0.458271
     6  N   -0.491676
     7  C   -0.343514
     8  C    0.343877
     9  C   -0.195950
    10  C   -0.191762
    11  C    0.379127
    12  F   -0.296051
    13  C   -0.223374
    14  C    0.094434
    15  C    0.261279
    16  N   -0.510660
    17  H    0.184632
    18  H    0.180856
    19  H    0.187722
    20  H    0.174673
    21  H    0.206191
    22  H    0.161126
    23  H    0.151489
    24  H    0.170913
    25  H    0.154473
    26  H    0.162097
    27  H    0.144281
    28  H    0.201920
    29  H    0.149019
    30  H    0.156470
    31  H    0.171920
 Sum of Mulliken charges =  -0.00000

 Dipole moment (field-independent basis, Debye):
    X=             -2.1350    Y=              0.7394    Z=             -2.8929  Tot=              3.6707
 Quadrupole moment (field-independent basis, Debye-Ang):
   XX=           -107.4349   YY=            -98.5097   ZZ=           -110.0657
   XY=              4.0903   XZ=              1.5236   YZ=             -2.4429

 Normal termination of Gaussian 16 at Sat Nov  5 11:26:23 2022.
