 Gaussian 16, Revision B.01,
 Gaussian 16:  ES64L-G16RevB.01 20-Dec-2017

 -----------------------------
 #p b3lyp/6-31g(d) opt SCF=XQC
 -----------------------------

 ------------------------------
 Gaussian input prepared by ASE
 ------------------------------
 Symbolic Z-matrix:
 Charge =  0 Multiplicity = 1

 SCF Done:  E(RB3LYP) =  -755.912999040     A.U. after   13 cycles
 SCF Done:  E(RB3LYP) =  -755.916675334     A.U. after   12 cycles
 SCF Done:  E(RB3LYP) =  -755.917635074     A.U. after   12 cycles
 SCF Done:  E(RB3LYP) =  -755.918096332     A.U. after   11 cycles
 SCF Done:  E(RB3LYP) =  -755.918114532     A.U. after   11 cycles
 SCF Done:  E(RB3LYP) =  -755.918158683     A.U. after    9 cycles
 SCF Done:  E(RB3LYP) =  -755.918162799     A.U. after    8 cycles
 SCF Done:  E(RB3LYP) =  -755.918163324     A.U. after    8 cycles
 SCF Done:  E(RB3LYP) =  -755.918163629     A.U. after    7 cycles
 SCF Done:  E(RB3LYP) =  -755.918163681     A.U. after    7 cycles
 Optimization completed.
    -- Stationary point found.

                         Standard orientation:
 ---------------------------------------------------------------------
 Center     Atomic      Atomic             Coordinates (Angstroms)
 Number     Number       Type             X           Y           Z
 ---------------------------------------------------------------------
      1          6           0       -5.434440   -1.134489   -0.475715
      2          6           0       -4.768767    0.131758    0.086939
      3          7           0       -3.375972    0.366611   -0.296343
      4          6           0       -2.412823   -0.630649    0.168634
      5          6           0       -0.960505   -0.154551   -0.063414
      6          6           0       -0.679054    1.081181    0.832331
      7          6           0        0.456507    1.990080    0.406163
      8          6           0        1.582702    2.181456    1.217532
      9          6           0        2.615393    3.039167    0.832121
     10          6           0        2.539063    3.727946   -0.378584
     11          6           0        1.418456    3.556094   -1.194811
     12          6           0        0.389802    2.699739   -0.803051
     13          6           0        0.036976   -1.344109    0.064836
     14          6           0        0.123257   -1.918214    1.490582
     15          6           0        1.432520   -1.015248   -0.515435
     16          6           0        2.242686   -2.216426   -0.997232
     17          8           0        2.678141   -3.004796    0.099549
     18          6           0        3.448608   -4.115135   -0.302390
     19          1           0       -4.928450   -2.045577   -0.137704
     20          1           0       -6.481699   -1.196788   -0.155793
     21          1           0       -5.421395   -1.130057   -1.573352
     22          1           0       -4.807145    0.110345    1.184127
     23          1           0       -5.346229    1.011855   -0.224506
     24          1           0       -3.313485    0.447297   -1.310936
     25          1           0       -2.543742   -1.620832   -0.304669
     26          1           0       -2.591310   -0.775169    1.242622
     27          1           0       -0.910313    0.179486   -1.112418
     28          1           0       -1.608089    1.664720    0.836695
     29          1           0       -0.513112    0.751923    1.865021
     30          1           0        1.650684    1.651971    2.165635
     31          1           0        3.478517    3.169008    1.480327
     32          1           0        3.340685    4.396432   -0.681455
     33          1           0        1.342296    4.096117   -2.135483
     34          1           0       -0.485536    2.586311   -1.439294
     35          1           0       -0.382342   -2.137805   -0.575475
     36          1           0        0.565936   -1.196294    2.187066
     37          1           0       -0.864432   -2.194079    1.877992
     38          1           0        0.758101   -2.806548    1.500269
     39          1           0        2.034955   -0.457055    0.209958
     40          1           0        1.314020   -0.353034   -1.383335
     41          1           0        3.120457   -1.862412   -1.566060
     42          1           0        1.639181   -2.833691   -1.687935
     43          1           0        3.745505   -4.650398    0.603633
     44          1           0        2.875783   -4.799346   -0.950090
     45          1           0        4.355549   -3.805892   -0.847874
 ---------------------------------------------------------------------

 The electronic state is 1-A.
 Alpha  occ. eigenvalues --  -19.14278 -14.31388 -10.22383 -10.22351 -10.20520
 Alpha  occ. eigenvalues --  -10.19970 -10.18505 -10.18236 -10.18122 -10.18063
 Alpha  occ. eigenvalues --  -10.18056 -10.17912 -10.17723 -10.17707 -10.17376
 Alpha  occ. eigenvalues --  -10.17059 -10.17050 -10.15783  -1.02581  -0.89802
 Alpha  occ. eigenvalues --   -0.84454  -0.80935  -0.76631  -0.74565  -0.73281
 Alpha  occ. eigenvalues --   -0.72771  -0.69915  -0.67055  -0.66010  -0.62566
 Alpha  occ. eigenvalues --   -0.60207  -0.59503  -0.58463  -0.57181  -0.53632
 Alpha  occ. eigenvalues --   -0.50168  -0.48357  -0.47977  -0.47780  -0.45874
 Alpha  occ. eigenvalues --   -0.45356  -0.44586  -0.44202  -0.43609  -0.42381
 Alpha  occ. eigenvalues --   -0.41786  -0.40885  -0.40530  -0.40247  -0.39255
 Alpha  occ. eigenvalues --   -0.38636  -0.37520  -0.36811  -0.36351  -0.35963
 Alpha  occ. eigenvalues --   -0.35088  -0.34611  -0.34169  -0.33870  -0.32821
 Alpha  occ. eigenvalues --   -0.32362  -0.31655  -0.30711  -0.30501  -0.29092
 Alpha  occ. eigenvalues --   -0.24897  -0.23949  -0.23081  -0.21274
 Alpha virt. eigenvalues --    0.00716   0.01084   0.08166   0.09007   0.09379
 Alpha virt. eigenvalues --    0.10163   0.11217   0.12200   0.12771   0.13395
 Alpha virt. eigenvalues --    0.13668   0.14632   0.15269   0.15510   0.15902

 Mulliken charges:
               1
     1  C   -0.451481
     2  C   -0.126508
     3  N   -0.545607
     4  C   -0.135213
     5  C   -0.089552
     6  C   -0.362829
     7  C    0.183327
     8  C   -0.195507
     9  C   -0.127018
    10  C   -0.133643
    11  C   -0.128768
    12  C   -0.183873
    13  C   -0.068894
    14  C   -0.464185
    15  C   -0.287558
    16  C   -0.015072
    17  O   -0.454661
    18  C   -0.189685
    19  H    0.150893
    20  H    0.142522
    21  H    0.136373
    22  H    0.140993
    23  H    0.138112
    24  H    0.286138
    25  H    0.115753
    26  H    0.138479
    27  H    0.112085
    28  H    0.175438
    29  H    0.135742
    30  H    0.122776
    31  H    0.125364
    32  H    0.123855
    33  H    0.123803
    34  H    0.121534
    35  H    0.110096
    36  H    0.138172
    37  H    0.132470
    38  H    0.173305
    39  H    0.157294
    40  H    0.135191
    41  H    0.117485
    42  H    0.110472
    43  H    0.156385
    44  H    0.127651
    45  H    0.128343
 Sum of Mulliken charges =  -0.00000

 Dipole moment (field-independent basis, Debye):
    X=             -0.4531    Y=             -1.2619    Z=             -1.5649  Tot=              2.0608
 Quadrupole moment (field-independent basis, Debye-Ang):
   XX=           -104.5249   YY=           -111.7549   ZZ=           -108.3471
   XY=              0.2485   XZ=              0.4695   YZ=             -0.0193

 Normal termination of Gaussian 16 at Fri Nov  4 18:32:34 2022.
