 Gaussian 16, Revision B.01,
 Gaussian 16:  ES64L-G16RevB.01 20-Dec-2017

 -------------------------------------------------------------------
 #p b3lyp/6-31g(d) 6D 10F nosymm GFInput td=(50-50,nstate=2) SCF=XQC
 -------------------------------------------------------------------

 ------------------------------
 Gaussian input prepared by ASE
 ------------------------------
 Symbolic Z-matrix:
 Charge =  0 Multiplicity = 1

                          Input orientation:
 ---------------------------------------------------------------------
 Center     Atomic      Atomic             Coordinates (Angstroms)
 Number     Number       Type             X           Y           Z
 ---------------------------------------------------------------------
      1          6           0       -1.734607    5.012238    0.397111
      2          6           0       -2.521214    3.838577   -0.208574
      3          7           0       -2.059855    2.492707    0.134530
      4          6           0       -0.719420    2.142599   -0.333492
      5          6           0       -0.440007    0.633525   -0.148104
      6          6           0       -1.382501   -0.178012   -1.076394
      7          6           0       -1.636097   -1.623627   -0.698107
      8          6           0       -1.257263   -2.676534   -1.541393
      9          6           0       -1.515183   -4.006087   -1.200178
     10          6           0       -2.163445   -4.309015   -0.002664
     11          6           0       -2.556740   -3.270540    0.844927
     12          6           0       -2.298029   -1.944973    0.497237
     13          6           0        1.083415    0.334881   -0.276407
     14          6           0        1.637274    0.580911   -1.691506
     15          6           0        1.462426   -1.064895    0.261536
     16          6           0        2.902119   -1.213399    0.747909
     17          8           0        3.809659   -1.181047   -0.342687
     18          6           0        5.151120   -1.335829    0.062963
     19          1           0       -0.690343    5.017327    0.065679
     20          1           0       -2.181516    5.970327    0.105017
     21          1           0       -1.739151    4.963381    1.493738
     22          1           0       -2.513965    3.917781   -1.303758
     23          1           0       -3.572503    3.911873    0.098756
     24          1           0       -2.106960    2.366554    1.145312
     25          1           0        0.082826    2.717820    0.163638
     26          1           0       -0.671747    2.402997   -1.399379
     27          1           0       -0.715378    0.395328    0.892060
     28          1           0       -2.340823    0.356045   -1.069633
     29          1           0       -1.007501   -0.132067   -2.105791
     30          1           0       -0.754341   -2.451261   -2.479580
     31          1           0       -1.209919   -4.804109   -1.872478
     32          1           0       -2.366037   -5.342487    0.265841
     33          1           0       -3.072787   -3.493470    1.775673
     34          1           0       -2.623481   -1.143746    1.157542
     35          1           0        1.573658    1.063106    0.390773
     36          1           0        1.221550   -0.131500   -2.413910
     37          1           0        1.406687    1.591560   -2.048066
     38          1           0        2.721470    0.451578   -1.698509
     39          1           0        1.267255   -1.837739   -0.490344
     40          1           0        0.819345   -1.307078    1.118048
     41          1           0        3.010188   -2.171088    1.286915
     42          1           0        3.148787   -0.410124    1.466384
     43          1           0        5.768912   -1.309766   -0.838805
     44          1           0        5.471510   -0.525898    0.739091
     45          1           0        5.312617   -2.296825    0.578843
 ---------------------------------------------------------------------

 SCF Done:  E(RB3LYP) =  -755.918166992     A.U. after   13 cycles

 Excitation energies and oscillator strengths:

 Excited state symmetry could not be determined.
 Excited State   1:      Triplet-?Sym    3.7253 eV  332.81 nm  f=0.0000  <S**2>=2.000
      67 -> 70         0.40789
      67 -> 71         0.21452
      68 -> 70        -0.25743
      68 -> 71         0.40238
      69 -> 70        -0.13263
      69 -> 71         0.19921
 This state for optimization and/or second-order correction.
 Total Energy, E(TD-HF/TD-DFT) =  -755.781263510
 Copying the excited state density for this state as the 1-particle RhoCI density.

 Excited state symmetry could not be determined.
 Excited State   2:      Triplet-?Sym    4.6030 eV  269.36 nm  f=0.0000  <S**2>=2.000
      67 -> 71         0.26681
      68 -> 70         0.47730
      68 -> 71         0.26849
      69 -> 70         0.30492
      69 -> 71         0.16036

 Excited state symmetry could not be determined.
 Excited State   3:      Singlet-?Sym    5.3031 eV  233.80 nm  f=0.0045  <S**2>=0.000
      67 -> 70         0.18406
      67 -> 71        -0.31761
      68 -> 70         0.27615
      68 -> 71         0.15661
      69 -> 70         0.48476
      69 -> 71         0.16898

 Excited state symmetry could not be determined.
 Excited State   4:      Singlet-?Sym    5.5117 eV  224.95 nm  f=0.0498  <S**2>=0.000
      67 -> 70         0.12798
      67 -> 71        -0.10390
      68 -> 70         0.23107
      69 -> 70        -0.42818
      69 -> 71         0.48321

 Alpha  occ. eigenvalues --  -19.14278 -14.31388 -10.22383 -10.22351 -10.20520
 Alpha  occ. eigenvalues --  -10.19970 -10.18505 -10.18236 -10.18122 -10.18063
 Alpha  occ. eigenvalues --  -10.18056 -10.17912 -10.17723 -10.17708 -10.17376
 Alpha  occ. eigenvalues --  -10.17059 -10.17050 -10.15783  -1.02581  -0.89802
 Alpha  occ. eigenvalues --   -0.84454  -0.80935  -0.76631  -0.74565  -0.73281
 Alpha  occ. eigenvalues --   -0.72771  -0.69915  -0.67055  -0.66010  -0.62566
 Alpha  occ. eigenvalues --   -0.60207  -0.59503  -0.58463  -0.57181  -0.53632
 Alpha  occ. eigenvalues --   -0.50168  -0.48357  -0.47977  -0.47780  -0.45874
 Alpha  occ. eigenvalues --   -0.45356  -0.44587  -0.44202  -0.43609  -0.42381
 Alpha  occ. eigenvalues --   -0.41786  -0.40885  -0.40530  -0.40247  -0.39255
 Alpha  occ. eigenvalues --   -0.38636  -0.37520  -0.36811  -0.36351  -0.35963
 Alpha  occ. eigenvalues --   -0.35088  -0.34611  -0.34169  -0.33870  -0.32821
 Alpha  occ. eigenvalues --   -0.32362  -0.31655  -0.30711  -0.30501  -0.29092
 Alpha  occ. eigenvalues --   -0.24897  -0.23949  -0.23081  -0.21274
 Alpha virt. eigenvalues --    0.00716   0.01084   0.08166   0.09007   0.09379
 Alpha virt. eigenvalues --    0.10163   0.11217   0.12200   0.12771   0.13395
 Alpha virt. eigenvalues --    0.13668   0.14632   0.15269   0.15510   0.15902

 Mulliken charges:
               1
     1  C   -0.451471
     2  C   -0.126501
     3  N   -0.545607
     4  C   -0.135240
     5  C   -0.089595
     6  C   -0.362810
     7  C    0.183338
     8  C   -0.195504
     9  C   -0.127018
    10  C   -0.133644
    11  C   -0.128772
    12  C   -0.183877
    13  C   -0.068831
    14  C   -0.464196
    15  C   -0.287593
    16  C   -0.015071
    17  O   -0.454662
    18  C   -0.189681
    19  H    0.150890
    20  H    0.142520
    21  H    0.136370
    22  H    0.140992
    23  H    0.138111
    24  H    0.286139
    25  H    0.115759
    26  H    0.138485
    27  H    0.112088
    28  H    0.175434
    29  H    0.135741
    30  H    0.122774
    31  H    0.125364
    32  H    0.123855
    33  H    0.123803
    34  H    0.121535
    35  H    0.110092
    36  H    0.138171
    37  H    0.132472
    38  H    0.173307
    39  H    0.157300
    40  H    0.135196
    41  H    0.117487
    42  H    0.110474
    43  H    0.156384
    44  H    0.127650
    45  H    0.128343
 Sum of Mulliken charges =  -0.00000

 Dipole moment (field-independent basis, Debye):
    X=              0.8787    Y=              0.9530    Z=              1.6020  Tot=              2.0608
 Quadrupole moment (field-independent basis, Debye-Ang):
   XX=           -110.4888   YY=           -106.5489   ZZ=           -109.0886
   XY=             -3.2619   XZ=             -0.7399   YZ=             -0.2179

 Normal termination of Gaussian 16 at Sat Nov  5 11:27:48 2022.
