 Gaussian 16, Revision B.01,
 Gaussian 16:  ES64L-G16RevB.01 20-Dec-2017

 -------------------------------------------------------------------
 #p b3lyp/6-31g(d) 6D 10F nosymm GFInput td=(50-50,nstate=2) SCF=XQC
 -------------------------------------------------------------------

 ------------------------------
 Gaussian input prepared by ASE
 ------------------------------
 Symbolic Z-matrix:
 Charge =  0 Multiplicity = 1

                          Input orientation:
 ---------------------------------------------------------------------
 Center     Atomic      Atomic             Coordinates (Angstroms)
 Number     Number       Type             X           Y           Z
 ---------------------------------------------------------------------
      1          6           0       -4.347045   -3.314540   -1.923677
      2          6           0       -3.499765   -2.072640   -1.633578
      3          6           0       -2.972326   -2.038487   -0.183755
      4          6           0       -2.089362   -0.838582    0.074424
      5          7           0       -0.810518   -0.968289   -0.314921
      6          6           0        0.007684    0.075244   -0.116389
      7          6           0        1.440897   -0.066089   -0.585378
      8          6           0        1.735164    0.873197   -1.775109
      9          6           0        3.128952    0.584279   -2.382069
     10          6           0        4.131181    0.043646   -1.335942
     11          6           0        3.852864    0.639950    0.053600
     12          6           0        4.971411    0.368270    1.082198
     13          6           0        5.342609   -1.104264    1.303926
     14          6           0        2.457603    0.191878    0.560373
     15          7           0       -0.345704    1.236878    0.449375
     16          6           0       -1.623464    1.371518    0.829589
     17          6           0       -2.567776    0.350119    0.649230
     18          6           0       -4.013175    0.540837    1.096998
     19          7           0       -4.392785    1.921547    1.401052
     20          6           0       -3.362226    2.601317    2.190336
     21          6           0       -2.012758    2.690340    1.461517
     22          1           0       -5.226201   -3.360273   -1.269086
     23          1           0       -4.702864   -3.317669   -2.960142
     24          1           0       -3.768400   -4.232725   -1.766338
     25          1           0       -2.639565   -2.036196   -2.313022
     26          1           0       -4.089789   -1.166875   -1.831266
     27          1           0       -3.815921   -2.062377    0.516335
     28          1           0       -2.372346   -2.938057   -0.005665
     29          1           0        1.540218   -1.099492   -0.935826
     30          1           0        1.673921    1.908039   -1.417090
     31          1           0        0.960420    0.765799   -2.543988
     32          1           0        3.035735   -0.138534   -3.202312
     33          1           0        3.521153    1.506717   -2.829276
     34          1           0        5.159365    0.264586   -1.651701
     35          1           0        4.056664   -1.050710   -1.283016
     36          1           0        3.818672    1.732729   -0.073668
     37          1           0        5.872449    0.911430    0.763724
     38          1           0        4.674899    0.812317    2.043268
     39          1           0        6.117599   -1.192184    2.074063
     40          1           0        4.485027   -1.701284    1.634755
     41          1           0        5.734188   -1.565264    0.390200
     42          1           0        2.053279    0.963991    1.224240
     43          1           0        2.546034   -0.724487    1.157857
     44          1           0       -4.704352    0.162108    0.335782
     45          1           0       -4.195401   -0.064450    1.998315
     46          1           0       -4.524073    2.429332    0.526463
     47          1           0       -3.722675    3.600564    2.458514
     48          1           0       -3.246158    2.042682    3.128713
     49          1           0       -1.206012    3.012185    2.130928
     50          1           0       -2.067326    3.451966    0.669022
 ---------------------------------------------------------------------

 SCF Done:  E(RB3LYP) =  -867.660457330     A.U. after   13 cycles

 Excitation energies and oscillator strengths:

 Excited state symmetry could not be determined.
 Excited State   1:      Triplet-?Sym    3.7627 eV  329.51 nm  f=0.0000  <S**2>=2.000
      78 -> 80         0.51537
      79 -> 80        -0.46668
 This state for optimization and/or second-order correction.
 Total Energy, E(TD-HF/TD-DFT) =  -867.522181897
 Copying the excited state density for this state as the 1-particle RhoCI density.

 Excited state symmetry could not be determined.
 Excited State   2:      Triplet-?Sym    3.9593 eV  313.15 nm  f=0.0000  <S**2>=2.000
      74 -> 80        -0.19541
      75 -> 80        -0.28065
      77 -> 80        -0.24964
      77 -> 81         0.53272

 Excited state symmetry could not be determined.
 Excited State   3:      Singlet-?Sym    4.2087 eV  294.59 nm  f=0.0032  <S**2>=0.000
      78 -> 80        -0.40749
      79 -> 80         0.57555

 Excited state symmetry could not be determined.
 Excited State   4:      Singlet-?Sym    4.6462 eV  266.85 nm  f=0.0055  <S**2>=0.000
      78 -> 80         0.49612
      78 -> 81         0.23415
      79 -> 80         0.34977
      79 -> 81        -0.26251

 Alpha  occ. eigenvalues --  -14.32503 -14.32052 -14.32014 -10.24336 -10.23381
 Alpha  occ. eigenvalues --  -10.23275 -10.22078 -10.21310 -10.19661 -10.18921
 Alpha  occ. eigenvalues --  -10.18782 -10.18715 -10.17757 -10.17727 -10.17502
 Alpha  occ. eigenvalues --  -10.17225 -10.17194 -10.17087 -10.16864 -10.16631
 Alpha  occ. eigenvalues --  -10.16615  -0.97396  -0.91675  -0.87964  -0.82938
 Alpha  occ. eigenvalues --   -0.80623  -0.77967  -0.76397  -0.76184  -0.73133
 Alpha  occ. eigenvalues --   -0.70601  -0.70333  -0.66206  -0.64934  -0.62911
 Alpha  occ. eigenvalues --   -0.61900  -0.60224  -0.58287  -0.57575  -0.56076
 Alpha  occ. eigenvalues --   -0.53246  -0.50964  -0.48740  -0.47690  -0.47121
 Alpha  occ. eigenvalues --   -0.46038  -0.45681  -0.44724  -0.44059  -0.43312
 Alpha  occ. eigenvalues --   -0.42831  -0.42522  -0.41759  -0.40805  -0.40455
 Alpha  occ. eigenvalues --   -0.39520  -0.39266  -0.38275  -0.37698  -0.37003
 Alpha  occ. eigenvalues --   -0.36778  -0.36092  -0.35930  -0.35045  -0.34855
 Alpha  occ. eigenvalues --   -0.34228  -0.33886  -0.33525  -0.33298  -0.32804
 Alpha  occ. eigenvalues --   -0.32234  -0.30179  -0.29026  -0.28668  -0.28468
 Alpha  occ. eigenvalues --   -0.27631  -0.24830  -0.23820  -0.22371
 Alpha virt. eigenvalues --   -0.02780  -0.01040   0.07449   0.08780   0.09008
 Alpha virt. eigenvalues --    0.10714   0.11201   0.11632   0.12168   0.12236
 Alpha virt. eigenvalues --    0.13258   0.13537   0.14243   0.14691   0.14798

 Mulliken charges:
               1
     1  C   -0.441956
     2  C   -0.255218
     3  C   -0.318714
     4  C    0.256236
     5  N   -0.505442
     6  C    0.418856
     7  C   -0.140373
     8  C   -0.272224
     9  C   -0.269607
    10  C   -0.267978
    11  C   -0.072495
    12  C   -0.258896
    13  C   -0.449612
    14  C   -0.284658
    15  N   -0.505085
    16  C    0.265204
    17  C    0.069063
    18  C   -0.234393
    19  N   -0.528680
    20  C   -0.159700
    21  C   -0.338151
    22  H    0.142196
    23  H    0.146580
    24  H    0.147966
    25  H    0.157649
    26  H    0.132136
    27  H    0.138469
    28  H    0.160522
    29  H    0.141064
    30  H    0.149186
    31  H    0.133054
    32  H    0.131579
    33  H    0.131222
    34  H    0.125648
    35  H    0.134006
    36  H    0.119798
    37  H    0.126116
    38  H    0.128069
    39  H    0.140381
    40  H    0.145634
    41  H    0.146057
    42  H    0.153153
    43  H    0.132272
    44  H    0.156927
    45  H    0.163371
    46  H    0.294180
    47  H    0.146936
    48  H    0.150408
    49  H    0.162561
    50  H    0.156683
 Sum of Mulliken charges =  -0.00000

 Dipole moment (field-independent basis, Debye):
    X=             -1.2984    Y=              0.4829    Z=             -0.2353  Tot=              1.4051
 Quadrupole moment (field-independent basis, Debye-Ang):
   XX=           -127.9484   YY=           -126.3571   ZZ=           -128.5448
   XY=              0.4845   XZ=              2.9124   YZ=             -0.3489

 Normal termination of Gaussian 16 at Sat Nov  5 11:27:48 2022.
