 Gaussian 16, Revision B.01,
 Gaussian 16:  ES64L-G16RevB.01 20-Dec-2017

 -----------------------------
 #p b3lyp/6-31g(d) opt SCF=XQC
 -----------------------------

 ------------------------------
 Gaussian input prepared by ASE
 ------------------------------
 Symbolic Z-matrix:
 Charge =  0 Multiplicity = 1

 SCF Done:  E(RB3LYP) =  -867.654723169     A.U. after   14 cycles
 SCF Done:  E(RB3LYP) =  -867.660037582     A.U. after   11 cycles
 SCF Done:  E(RB3LYP) =  -867.660364697     A.U. after   11 cycles
 SCF Done:  E(RB3LYP) =  -867.660420801     A.U. after   10 cycles
 SCF Done:  E(RB3LYP) =  -867.660439599     A.U. after    9 cycles
 SCF Done:  E(RB3LYP) =  -867.660452895     A.U. after   10 cycles
 SCF Done:  E(RB3LYP) =  -867.660457629     A.U. after    9 cycles
 SCF Done:  E(RB3LYP) =  -867.660460131     A.U. after    9 cycles
 SCF Done:  E(RB3LYP) =  -867.660461845     A.U. after    9 cycles
 SCF Done:  E(RB3LYP) =  -867.660462328     A.U. after    8 cycles
 SCF Done:  E(RB3LYP) =  -867.660462698     A.U. after    8 cycles
 SCF Done:  E(RB3LYP) =  -867.660462868     A.U. after    7 cycles
 SCF Done:  E(RB3LYP) =  -867.660462892     A.U. after    6 cycles
 Optimization completed.
    -- Stationary point found.

                         Standard orientation:
 ---------------------------------------------------------------------
 Center     Atomic      Atomic             Coordinates (Angstroms)
 Number     Number       Type             X           Y           Z
 ---------------------------------------------------------------------
      1          6           0       -4.159602    3.931004   -0.202030
      2          6           0       -3.289670    2.752814    0.244560
      3          6           0       -2.831073    1.871544   -0.936287
      4          6           0       -1.925274    0.745971   -0.490568
      5          7           0       -0.633884    1.075417   -0.324336
      6          6           0        0.205334    0.111637    0.081461
      7          6           0        1.654285    0.496771    0.296495
      8          6           0        2.033339    0.434796    1.792085
      9          6           0        3.445003    1.020550    2.034191
     10          6           0        4.379350    0.839991    0.815371
     11          6           0        4.053470   -0.458039    0.058547
     12          6           0        5.112973   -0.846315   -0.994859
     13          6           0        5.428176    0.213691   -2.058976
     14          6           0        2.622662   -0.388573   -0.535006
     15          7           0       -0.139054   -1.159563    0.326025
     16          6           0       -1.428776   -1.487639    0.170002
     17          6           0       -2.394096   -0.552027   -0.230370
     18          6           0       -3.852698   -0.964611   -0.398597
     19          7           0       -4.204132   -2.259221    0.187400
     20          6           0       -3.192104   -3.276473   -0.109430
     21          6           0       -1.807377   -2.924787    0.455383
     22          1           0       -5.069916    3.586332   -0.708020
     23          1           0       -4.465591    4.543719    0.653438
     24          1           0       -3.617335    4.579588   -0.900555
     25          1           0       -2.397381    3.119668    0.766244
     26          1           0       -3.841753    2.138025    0.969032
     27          1           0       -3.707385    1.482345   -1.468219
     28          1           0       -2.267928    2.492802   -1.641854
     29          1           0        1.738665    1.538548   -0.032415
     30          1           0        1.986661   -0.612721    2.113576
     31          1           0        1.293177    0.976058    2.393859
     32          1           0        3.368983    2.087688    2.277883
     33          1           0        3.885965    0.535597    2.914579
     34          1           0        5.427656    0.843307    1.142062
     35          1           0        4.269105    1.694661    0.134669
     36          1           0        4.058671   -1.267388    0.804509
     37          1           0        6.044278   -1.101709   -0.469727
     38          1           0        4.784693   -1.769326   -1.493893
     39          1           0        6.162576   -0.170266   -2.776390
     40          1           0        4.538030    0.505263   -2.628145
     41          1           0        5.848601    1.122285   -1.613497
     42          1           0        2.210885   -1.402057   -0.595379
     43          1           0        2.654593    0.001562   -1.560340
     44          1           0       -4.518054   -0.208580    0.033058
     45          1           0       -4.095985   -1.003809   -1.471548
     46          1           0       -4.278099   -2.155784    1.199239
     47          1           0       -3.534317   -4.241399    0.280628
     48          1           0       -3.137919   -3.376191   -1.201774
     49          1           0       -1.023997   -3.581236    0.057986
     50          1           0       -1.800926   -3.075243    1.545531
 ---------------------------------------------------------------------

 The electronic state is 1-A.
 Alpha  occ. eigenvalues --  -14.32503 -14.32052 -14.32014 -10.24336 -10.23381
 Alpha  occ. eigenvalues --  -10.23275 -10.22078 -10.21310 -10.19661 -10.18921
 Alpha  occ. eigenvalues --  -10.18782 -10.18715 -10.17757 -10.17727 -10.17502
 Alpha  occ. eigenvalues --  -10.17225 -10.17194 -10.17087 -10.16864 -10.16631
 Alpha  occ. eigenvalues --  -10.16615  -0.97396  -0.91675  -0.87964  -0.82938
 Alpha  occ. eigenvalues --   -0.80623  -0.77967  -0.76397  -0.76184  -0.73133
 Alpha  occ. eigenvalues --   -0.70601  -0.70333  -0.66206  -0.64934  -0.62911
 Alpha  occ. eigenvalues --   -0.61900  -0.60224  -0.58287  -0.57575  -0.56076
 Alpha  occ. eigenvalues --   -0.53246  -0.50964  -0.48740  -0.47690  -0.47121
 Alpha  occ. eigenvalues --   -0.46038  -0.45681  -0.44724  -0.44059  -0.43312
 Alpha  occ. eigenvalues --   -0.42831  -0.42522  -0.41759  -0.40805  -0.40455
 Alpha  occ. eigenvalues --   -0.39521  -0.39266  -0.38275  -0.37698  -0.37003
 Alpha  occ. eigenvalues --   -0.36778  -0.36092  -0.35930  -0.35045  -0.34855
 Alpha  occ. eigenvalues --   -0.34228  -0.33886  -0.33525  -0.33298  -0.32804
 Alpha  occ. eigenvalues --   -0.32234  -0.30179  -0.29026  -0.28668  -0.28468
 Alpha  occ. eigenvalues --   -0.27631  -0.24830  -0.23820  -0.22371
 Alpha virt. eigenvalues --   -0.02780  -0.01040   0.07449   0.08780   0.09008
 Alpha virt. eigenvalues --    0.10714   0.11201   0.11632   0.12168   0.12236
 Alpha virt. eigenvalues --    0.13258   0.13537   0.14243   0.14691   0.14798

 Mulliken charges:
               1
     1  C   -0.441956
     2  C   -0.255215
     3  C   -0.318700
     4  C    0.256197
     5  N   -0.505426
     6  C    0.418855
     7  C   -0.140367
     8  C   -0.272244
     9  C   -0.269571
    10  C   -0.267997
    11  C   -0.072502
    12  C   -0.258875
    13  C   -0.449640
    14  C   -0.284662
    15  N   -0.505086
    16  C    0.265204
    17  C    0.069073
    18  C   -0.234393
    19  N   -0.528683
    20  C   -0.159697
    21  C   -0.338154
    22  H    0.142196
    23  H    0.146579
    24  H    0.147965
    25  H    0.157648
    26  H    0.132135
    27  H    0.138468
    28  H    0.160520
    29  H    0.141066
    30  H    0.149188
    31  H    0.133056
    32  H    0.131574
    33  H    0.131218
    34  H    0.125650
    35  H    0.134010
    36  H    0.119801
    37  H    0.126114
    38  H    0.128068
    39  H    0.140386
    40  H    0.145639
    41  H    0.146062
    42  H    0.153152
    43  H    0.132273
    44  H    0.156929
    45  H    0.163372
    46  H    0.294181
    47  H    0.146936
    48  H    0.150407
    49  H    0.162563
    50  H    0.156682
 Sum of Mulliken charges =  -0.00000

 Dipole moment (field-independent basis, Debye):
    X=             -1.2703    Y=             -0.2482    Z=              0.5466  Tot=              1.4051
 Quadrupole moment (field-independent basis, Debye-Ang):
   XX=           -128.6765   YY=           -127.4819   ZZ=           -127.2869
   XY=             -2.3419   XZ=             -1.8591   YZ=             -0.9498

 1\1\GINC-NODE80\FOpt\RB3LYP\6-31G(d)\C18H29N3\WYKGROUP\04-Nov-2022\0\\
 #p b3lyp/6-31g(d) opt SCF=XQC\\Gaussian input prepared by ASE\\0,1\C,-
 4.3470453567,-3.3145398497,-1.9236769347\C,-3.4997654749,-2.0726403699
 ,-1.6335783791\C,-2.9723259292,-2.0384867618,-0.1837549911\C,-2.089361
 8927,-0.8385823653,0.0744236286\N,-0.8105175202,-0.9682889344,-0.31492
 07911\C,0.007683613,0.0752439134,-0.1163887695\C,1.440896796,-0.066088
 6468,-0.5853775\C,1.7351635098,0.873197185,-1.7751093429\C,3.128951708
 9,0.5842785701,-2.3820686835\C,4.1311805315,0.0436463819,-1.3359416498

 Normal termination of Gaussian 16 at Fri Nov  4 18:37:54 2022.
