 Gaussian 16, Revision B.01,
 Gaussian 16:  ES64L-G16RevB.01 20-Dec-2017

 -----------------------------
 #p b3lyp/6-31g(d) opt SCF=XQC
 -----------------------------

 ------------------------------
 Gaussian input prepared by ASE
 ------------------------------
 Symbolic Z-matrix:
 Charge =  0 Multiplicity = 1

 SCF Done:  E(RB3LYP) =  -1316.12710844     A.U. after   15 cycles
 SCF Done:  E(RB3LYP) =  -1316.13155954     A.U. after   13 cycles
 SCF Done:  E(RB3LYP) =  -1316.12940449     A.U. after   14 cycles
 SCF Done:  E(RB3LYP) =  -1316.13196865     A.U. after   12 cycles
 SCF Done:  E(RB3LYP) =  -1316.13236820     A.U. after   12 cycles
 SCF Done:  E(RB3LYP) =  -1316.13258786     A.U. after   12 cycles
 SCF Done:  E(RB3LYP) =  -1316.13297213     A.U. after   13 cycles
 SCF Done:  E(RB3LYP) =  -1316.13362351     A.U. after   13 cycles
 SCF Done:  E(RB3LYP) =  -1316.13479627     A.U. after   15 cycles
 SCF Done:  E(RB3LYP) =  -1316.13566121     A.U. after   12 cycles
 SCF Done:  E(RB3LYP) =  -1316.13685410     A.U. after   13 cycles
 SCF Done:  E(RB3LYP) =  -1316.13712145     A.U. after   12 cycles
 SCF Done:  E(RB3LYP) =  -1316.13692619     A.U. after   14 cycles
 SCF Done:  E(RB3LYP) =  -1316.13712606     A.U. after   14 cycles
 SCF Done:  E(RB3LYP) =  -1316.13736323     A.U. after   11 cycles
 SCF Done:  E(RB3LYP) =  -1316.13737891     A.U. after   10 cycles
 SCF Done:  E(RB3LYP) =  -1316.13738444     A.U. after   10 cycles
 SCF Done:  E(RB3LYP) =  -1316.13738647     A.U. after    9 cycles
 SCF Done:  E(RB3LYP) =  -1316.13738715     A.U. after    8 cycles
 SCF Done:  E(RB3LYP) =  -1316.13738741     A.U. after    8 cycles
 Optimization completed.
    -- Stationary point found.

                         Standard orientation:
 ---------------------------------------------------------------------
 Center     Atomic      Atomic             Coordinates (Angstroms)
 Number     Number       Type             X           Y           Z
 ---------------------------------------------------------------------
      1          6           0        1.528087    3.952908    0.567375
      2          6           0        1.819284    2.910624    0.030326
      3          6           0        2.193024    1.644135   -0.597405
      4          6           0        1.759906    0.367031    0.194738
      5          7           0        2.474994   -0.843164   -0.207386
      6          6           0        3.887675   -0.928912    0.156974
      7          6           0        4.459968   -2.289165   -0.236841
      8          6           0        0.274092    0.102789    0.092805
      9          6           0       -0.761029    0.975934   -0.116821
     10          6           0       -2.023246    0.315568   -0.077998
     11         16           0       -3.684407    0.817415   -0.278165
     12          6           0       -4.233590   -0.829003   -0.039935
     13          6           0       -3.211597   -1.709983    0.177628
     14          6           0       -1.946257   -1.051290    0.159101
     15         16           0       -0.284508   -1.558304    0.332978
     16          1           0        1.265578    4.871118    1.041751
     17          1           0        1.776858    1.586972   -1.612243
     18          1           0        3.285133    1.618503   -0.701913
     19          1           0        2.020471    0.536729    1.249317
     20          1           0        2.346453   -1.014972   -1.203996
     21          1           0        4.508316   -0.130181   -0.290094
     22          1           0        3.953780   -0.799669    1.244903
     23          1           0        5.508855   -2.370093    0.068172
     24          1           0        3.891942   -3.096459    0.235744
     25          1           0        4.418601   -2.436224   -1.323488
     26          1           0       -0.623132    2.039527   -0.267254
     27          1           0       -5.293800   -1.042130   -0.072285
     28          1           0       -3.359288   -2.770551    0.346395
 ---------------------------------------------------------------------

 The electronic state is 1-A.
 Alpha  occ. eigenvalues --  -88.90266 -88.89883 -14.33227 -10.24001 -10.21812
 Alpha  occ. eigenvalues --  -10.21658 -10.21630 -10.21280 -10.21090 -10.20844
 Alpha  occ. eigenvalues --  -10.19632 -10.19206 -10.19099 -10.18230 -10.18211
 Alpha  occ. eigenvalues --   -7.96330  -7.95856  -5.92758  -5.92402  -5.92292
 Alpha  occ. eigenvalues --   -5.91985  -5.91931  -5.91511  -0.92370  -0.89229
 Alpha  occ. eigenvalues --   -0.83245  -0.79812  -0.75500  -0.75095  -0.71579
 Alpha  occ. eigenvalues --   -0.69884  -0.69369  -0.64347  -0.61547  -0.56564
 Alpha  occ. eigenvalues --   -0.54841  -0.53469  -0.52178  -0.49189  -0.48312
 Alpha  occ. eigenvalues --   -0.47783  -0.46862  -0.45101  -0.43076  -0.42413
 Alpha  occ. eigenvalues --   -0.40388  -0.39986  -0.38475  -0.38101  -0.37392
 Alpha  occ. eigenvalues --   -0.36865  -0.35908  -0.35349  -0.35145  -0.32487
 Alpha  occ. eigenvalues --   -0.31940  -0.27596  -0.27114  -0.26687  -0.23190
 Alpha  occ. eigenvalues --   -0.22007  -0.20403
 Alpha virt. eigenvalues --   -0.02097   0.02892   0.03848   0.04088   0.04818
 Alpha virt. eigenvalues --    0.05290   0.08051   0.08576   0.08862   0.10865
 Alpha virt. eigenvalues --    0.11134   0.11604   0.12460   0.13044   0.14719

 Mulliken charges:
               1
     1  C   -0.499609
     2  C    0.348326
     3  C   -0.431297
     4  C    0.011756
     5  N   -0.558222
     6  C   -0.112879
     7  C   -0.451271
     8  C   -0.154118
     9  C   -0.134858
    10  C   -0.140136
    11  S    0.239616
    12  C   -0.347373
    13  C   -0.114156
    14  C   -0.121889
    15  S    0.246812
    16  H    0.191179
    17  H    0.172660
    18  H    0.177680
    19  H    0.167543
    20  H    0.301525
    21  H    0.118961
    22  H    0.149262
    23  H    0.148384
    24  H    0.166020
    25  H    0.142314
    26  H    0.162149
    27  H    0.172126
    28  H    0.149496
 Sum of Mulliken charges =  -0.00000

 Dipole moment (field-independent basis, Debye):
    X=              1.6783    Y=             -0.0666    Z=             -0.6207  Tot=              1.7906
 Quadrupole moment (field-independent basis, Debye-Ang):
   XX=            -90.7152   YY=            -98.2957   ZZ=           -103.4189
   XY=              2.0314   XZ=             -1.8655   YZ=              1.7078

 Normal termination of Gaussian 16 at Fri Nov  4 18:40:24 2022.
