 Gaussian 16, Revision B.01,
 Gaussian 16:  ES64L-G16RevB.01 20-Dec-2017

 -------------------------------------------------------------------
 #p b3lyp/6-31g(d) 6D 10F nosymm GFInput td=(50-50,nstate=2) SCF=XQC
 -------------------------------------------------------------------

 ------------------------------
 Gaussian input prepared by ASE
 ------------------------------
 Symbolic Z-matrix:
 Charge =  0 Multiplicity = 1

                          Input orientation:
 ---------------------------------------------------------------------
 Center     Atomic      Atomic             Coordinates (Angstroms)
 Number     Number       Type             X           Y           Z
 ---------------------------------------------------------------------
      1          6           0       -1.007728    3.948871    0.207534
      2          6           0       -1.223694    2.785374    0.450857
      3          6           0       -1.503422    1.375777    0.720132
      4          6           0       -0.849103    0.373733   -0.286769
      5          7           0       -1.451382   -0.958313   -0.263530
      6          6           0       -2.802881   -1.082979   -0.805458
      7          6           0       -3.245512   -2.544817   -0.807597
      8          6           0        0.640996    0.230566   -0.070056
      9          6           0        1.541105    1.118484    0.458345
     10          6           0        2.870362    0.606177    0.420917
     11         16           0        4.433994    1.195353    0.930131
     12          6           0        5.193855   -0.286761    0.386994
     13          6           0        4.308404   -1.179117   -0.149293
     14          6           0        2.978191   -0.663804   -0.132225
     15         16           0        1.412082   -1.264385   -0.617315
     16          1           0       -0.811443    4.974720   -0.007317
     17          1           0       -1.182011    1.113308    1.737070
     18          1           0       -2.589826    1.225231    0.683448
     19          1           0       -1.026212    0.768836   -1.297390
     20          1           0       -1.398998   -1.353578    0.674710
     21          1           0       -3.553212   -0.476763   -0.264588
     22          1           0       -2.779827   -0.700988   -1.834154
     23          1           0       -4.243650   -2.645709   -1.247241
     24          1           0       -2.543746   -3.157972   -1.381424
     25          1           0       -3.290793   -2.945984    0.212773
     26          1           0        1.264929    2.096732    0.832021
     27          1           0        6.263872   -0.402885    0.496973
     28          1           0        4.595649   -2.149106   -0.538795
 ---------------------------------------------------------------------

 SCF Done:  E(RB3LYP) =  -1316.13738850     A.U. after   15 cycles

 Excitation energies and oscillator strengths:

 Excited state symmetry could not be determined.
 Excited State   1:      Triplet-?Sym    2.8905 eV  428.94 nm  f=0.0000  <S**2>=2.000
      62 -> 63         0.68712
      62 <- 63         0.10117
 This state for optimization and/or second-order correction.
 Total Energy, E(TD-HF/TD-DFT) =  -1316.03116558
 Copying the excited state density for this state as the 1-particle RhoCI density.

 Excited state symmetry could not be determined.
 Excited State   2:      Triplet-?Sym    3.9143 eV  316.74 nm  f=0.0000  <S**2>=2.000
      60 -> 63        -0.13548
      61 -> 63         0.68198

 Excited state symmetry could not be determined.
 Excited State   3:      Singlet-?Sym    4.6986 eV  263.88 nm  f=0.3086  <S**2>=0.000
      60 -> 63         0.15847
      62 -> 63         0.67898

 Excited state symmetry could not be determined.
 Excited State   4:      Singlet-?Sym    4.8829 eV  253.92 nm  f=0.0808  <S**2>=0.000
      60 -> 63         0.24416
      61 -> 63         0.64179

 Alpha  occ. eigenvalues --  -88.90265 -88.89883 -14.33227 -10.24001 -10.21812
 Alpha  occ. eigenvalues --  -10.21658 -10.21630 -10.21280 -10.21090 -10.20844
 Alpha  occ. eigenvalues --  -10.19632 -10.19207 -10.19099 -10.18230 -10.18211
 Alpha  occ. eigenvalues --   -7.96330  -7.95856  -5.92758  -5.92402  -5.92292
 Alpha  occ. eigenvalues --   -5.91985  -5.91931  -5.91510  -0.92370  -0.89229
 Alpha  occ. eigenvalues --   -0.83245  -0.79812  -0.75500  -0.75095  -0.71579
 Alpha  occ. eigenvalues --   -0.69884  -0.69369  -0.64347  -0.61547  -0.56564
 Alpha  occ. eigenvalues --   -0.54841  -0.53469  -0.52178  -0.49189  -0.48312
 Alpha  occ. eigenvalues --   -0.47783  -0.46862  -0.45101  -0.43076  -0.42413
 Alpha  occ. eigenvalues --   -0.40388  -0.39986  -0.38475  -0.38101  -0.37392
 Alpha  occ. eigenvalues --   -0.36865  -0.35908  -0.35349  -0.35145  -0.32487
 Alpha  occ. eigenvalues --   -0.31940  -0.27596  -0.27114  -0.26687  -0.23190
 Alpha  occ. eigenvalues --   -0.22007  -0.20403
 Alpha virt. eigenvalues --   -0.02097   0.02892   0.03848   0.04088   0.04818
 Alpha virt. eigenvalues --    0.05290   0.08051   0.08576   0.08862   0.10865
 Alpha virt. eigenvalues --    0.11134   0.11604   0.12460   0.13044   0.14719

 Mulliken charges:
               1
     1  C   -0.499613
     2  C    0.348327
     3  C   -0.431290
     4  C    0.011749
     5  N   -0.558215
     6  C   -0.112896
     7  C   -0.451269
     8  C   -0.154127
     9  C   -0.134861
    10  C   -0.140133
    11  S    0.239617
    12  C   -0.347374
    13  C   -0.114159
    14  C   -0.121888
    15  S    0.246823
    16  H    0.191179
    17  H    0.172659
    18  H    0.177680
    19  H    0.167544
    20  H    0.301525
    21  H    0.118965
    22  H    0.149265
    23  H    0.148384
    24  H    0.166020
    25  H    0.142314
    26  H    0.162151
    27  H    0.172126
    28  H    0.149497
 Sum of Mulliken charges =  -0.00000

 Dipole moment (field-independent basis, Debye):
    X=             -1.7101    Y=             -0.3690    Z=              0.3816  Tot=              1.7906
 Quadrupole moment (field-independent basis, Debye-Ang):
   XX=            -93.2795   YY=            -98.1102   ZZ=           -104.2471
   XY=             -1.3420   XZ=             -0.2859   YZ=             -0.5670

 Normal termination of Gaussian 16 at Sat Nov  5 11:31:01 2022.
