 Gaussian 16, Revision B.01,
 Gaussian 16:  ES64L-G16RevB.01 20-Dec-2017

 -------------------------------------------------------------------
 #p b3lyp/6-31g(d) 6D 10F nosymm GFInput td=(50-50,nstate=2) SCF=XQC
 -------------------------------------------------------------------

 ------------------------------
 Gaussian input prepared by ASE
 ------------------------------
 Symbolic Z-matrix:
 Charge =  0 Multiplicity = 1

                          Input orientation:
 ---------------------------------------------------------------------
 Center     Atomic      Atomic             Coordinates (Angstroms)
 Number     Number       Type             X           Y           Z
 ---------------------------------------------------------------------
      1          6           0        0.899447    2.235929    0.796443
      2          6           0        1.526774    1.075860    0.055443
      3          6           0        2.832682    1.212255   -0.435466
      4          6           0        3.458566    0.158956   -1.099979
      5          6           0        2.796538   -1.049987   -1.282566
      6          6           0        1.485887   -1.210752   -0.809800
      7          7           0        0.818863   -2.428996   -0.934650
      8          6           0        0.835767   -0.135630   -0.149152
      9          7           0       -0.499815   -0.387371    0.295293
     10          6           0       -0.687058   -0.912644    1.661278
     11          6           0       -2.187402   -0.682241    1.965091
     12          6           0       -2.798684   -0.279475    0.610561
     13          6           0       -1.646300    0.442982   -0.102488
     14          6           0       -1.795386    0.535563   -1.618750
     15          1           0        0.334654    1.905858    1.674237
     16          1           0        0.206115    2.804834    0.163117
     17          1           0        1.671911    2.932725    1.137168
     18          1           0        3.362789    2.148484   -0.279364
     19          1           0        4.473403    0.277778   -1.471399
     20          1           0        3.287075   -1.877985   -1.789680
     21          1           0        1.094692   -2.986552   -1.733578
     22          1           0       -0.186767   -2.312687   -0.855657
     23          1           0       -0.406554   -1.973439    1.692867
     24          1           0       -0.050187   -0.393671    2.394032
     25          1           0       -2.303043    0.135313    2.685795
     26          1           0       -2.666418   -1.565184    2.399443
     27          1           0       -3.688329    0.351045    0.712846
     28          1           0       -3.079924   -1.169125    0.032557
     29          1           0       -1.583918    1.470149    0.299928
     30          1           0       -0.914809    0.999066   -2.076409
     31          1           0       -2.670697    1.141184   -1.880759
     32          1           0       -1.919871   -0.462241   -2.056401
 ---------------------------------------------------------------------

 SCF Done:  E(RB3LYP) =  -577.618810829     A.U. after   14 cycles

 Excitation energies and oscillator strengths:

 Excited state symmetry could not be determined.
 Excited State   1:      Triplet-?Sym    3.5628 eV  348.00 nm  f=0.0000  <S**2>=2.000
      50 -> 53         0.36275
      51 -> 53        -0.18774
      51 -> 54        -0.13270
      52 -> 53        -0.17081
      52 -> 54         0.52598
 This state for optimization and/or second-order correction.
 Total Energy, E(TD-HF/TD-DFT) =  -577.487881820
 Copying the excited state density for this state as the 1-particle RhoCI density.

 Excited state symmetry could not be determined.
 Excited State   2:      Triplet-?Sym    3.8484 eV  322.17 nm  f=0.0000  <S**2>=2.000
      51 -> 53        -0.15810
      52 -> 53         0.66962
      52 -> 54         0.10924

 Excited state symmetry could not be determined.
 Excited State   3:      Singlet-?Sym    4.6576 eV  266.20 nm  f=0.0644  <S**2>=0.000
      50 -> 54        -0.17783
      51 -> 53         0.15837
      51 -> 54         0.11927
      52 -> 53         0.65048

 Excited state symmetry could not be determined.
 Excited State   4:      Singlet-?Sym    4.8780 eV  254.17 nm  f=0.0033  <S**2>=0.000
      50 -> 53         0.10958
      51 -> 53         0.65594
      51 -> 54        -0.12889
      52 -> 53        -0.11695
      52 -> 54        -0.12616

 Alpha  occ. eigenvalues --  -14.32432 -14.31898 -10.21207 -10.21061 -10.20297
 Alpha  occ. eigenvalues --  -10.19778 -10.18442 -10.18254 -10.18016 -10.17611
 Alpha  occ. eigenvalues --  -10.17507 -10.17160 -10.16915 -10.16464  -0.93239
 Alpha  occ. eigenvalues --   -0.89516  -0.82597  -0.77752  -0.75275  -0.74732
 Alpha  occ. eigenvalues --   -0.70011  -0.67400  -0.66266  -0.60083  -0.58257
 Alpha  occ. eigenvalues --   -0.57355  -0.55076  -0.51217  -0.49514  -0.47976
 Alpha  occ. eigenvalues --   -0.47322  -0.44171  -0.43888  -0.43182  -0.42081
 Alpha  occ. eigenvalues --   -0.40600  -0.40088  -0.39314  -0.38148  -0.37495
 Alpha  occ. eigenvalues --   -0.36837  -0.36466  -0.35359  -0.34464  -0.33744
 Alpha  occ. eigenvalues --   -0.33013  -0.32482  -0.31734  -0.29062  -0.22954
 Alpha  occ. eigenvalues --   -0.20315  -0.18747
 Alpha virt. eigenvalues --    0.01104   0.02926   0.07238   0.09414   0.10771
 Alpha virt. eigenvalues --    0.11030   0.12269   0.13267   0.14066   0.14625
 Alpha virt. eigenvalues --    0.15464   0.16868   0.17125   0.17709   0.18012

 Mulliken charges:
               1
     1  C   -0.535477
     2  C    0.164000
     3  C   -0.215003
     4  C   -0.125103
     5  C   -0.192013
     6  C    0.295098
     7  N   -0.793145
     8  C    0.176404
     9  N   -0.560334
    10  C   -0.097163
    11  C   -0.305605
    12  C   -0.272715
    13  C    0.082986
    14  C   -0.451030
    15  H    0.158929
    16  H    0.161814
    17  H    0.152837
    18  H    0.109838
    19  H    0.119788
    20  H    0.111906
    21  H    0.312020
    22  H    0.326953
    23  H    0.146524
    24  H    0.129707
    25  H    0.141405
    26  H    0.143421
    27  H    0.135415
    28  H    0.133859
    29  H    0.109228
    30  H    0.158316
    31  H    0.140569
    32  H    0.136573
 Sum of Mulliken charges =  -0.00000

 Dipole moment (field-independent basis, Debye):
    X=             -1.5067    Y=             -0.0575    Z=             -0.4354  Tot=              1.5694
 Quadrupole moment (field-independent basis, Debye-Ang):
   XX=            -83.7940   YY=            -81.6551   ZZ=            -83.3013
   XY=              1.1952   XZ=             -2.5584   YZ=              4.9588

 Normal termination of Gaussian 16 at Sat Nov  5 11:32:35 2022.
