 Gaussian 16, Revision B.01,
 Gaussian 16:  ES64L-G16RevB.01 20-Dec-2017

 -----------------------------
 #p b3lyp/6-31g(d) opt SCF=XQC
 -----------------------------

 ------------------------------
 Gaussian input prepared by ASE
 ------------------------------
 Symbolic Z-matrix:
 Charge =  0 Multiplicity = 1

 SCF Done:  E(RB3LYP) =  -577.614425700     A.U. after   14 cycles
 SCF Done:  E(RB3LYP) =  -577.617686018     A.U. after   12 cycles
 SCF Done:  E(RB3LYP) =  -577.618041796     A.U. after   11 cycles
 SCF Done:  E(RB3LYP) =  -577.618336528     A.U. after   11 cycles
 SCF Done:  E(RB3LYP) =  -577.618453758     A.U. after   11 cycles
 SCF Done:  E(RB3LYP) =  -577.618538678     A.U. after   11 cycles
 SCF Done:  E(RB3LYP) =  -577.618590624     A.U. after   11 cycles
 SCF Done:  E(RB3LYP) =  -577.618710429     A.U. after   10 cycles
 SCF Done:  E(RB3LYP) =  -577.618763820     A.U. after   10 cycles
 SCF Done:  E(RB3LYP) =  -577.618784804     A.U. after   10 cycles
 SCF Done:  E(RB3LYP) =  -577.618805709     A.U. after   11 cycles
 SCF Done:  E(RB3LYP) =  -577.618810481     A.U. after   10 cycles
 SCF Done:  E(RB3LYP) =  -577.618812194     A.U. after    8 cycles
 SCF Done:  E(RB3LYP) =  -577.618813364     A.U. after    9 cycles
 SCF Done:  E(RB3LYP) =  -577.618813567     A.U. after    7 cycles
 SCF Done:  E(RB3LYP) =  -577.618813607     A.U. after    6 cycles
 Optimization completed.
    -- Stationary point found.

                         Standard orientation:
 ---------------------------------------------------------------------
 Center     Atomic      Atomic             Coordinates (Angstroms)
 Number     Number       Type             X           Y           Z
 ---------------------------------------------------------------------
      1          6           0       -0.475620    2.510932   -0.246086
      2          6           0       -1.241619    1.211153   -0.135617
      3          6           0       -2.640629    1.253769   -0.058504
      4          6           0       -3.386977    0.079020    0.016843
      5          6           0       -2.753197   -1.158501    0.011575
      6          6           0       -1.354072   -1.230121   -0.055328
      7          7           0       -0.697124   -2.458791   -0.113793
      8          6           0       -0.587046   -0.037076   -0.112892
      9          7           0        0.831620   -0.205101   -0.174835
     10          6           0        1.460972   -0.288888   -1.506670
     11          6           0        2.967477   -0.051202   -1.241399
     12          6           0        3.105845   -0.120259    0.290503
     13          6           0        1.753323    0.401961    0.796805
     14          6           0        1.418729    0.011460    2.233956
     15          1           0        0.350252    2.441855   -0.961365
     16          1           0       -0.043751    2.819434    0.715048
     17          1           0       -1.138693    3.316969   -0.576172
     18          1           0       -3.143402    2.217570   -0.073051
     19          1           0       -4.471695    0.127442    0.071703
     20          1           0       -3.333763   -2.077304    0.057557
     21          1           0       -1.178548   -3.222297    0.345040
     22          1           0        0.275853   -2.374374    0.164143
     23          1           0        1.259176   -1.271920   -1.951522
     24          1           0        1.057599    0.463293   -2.201926
     25          1           0        3.259173    0.942854   -1.599097
     26          1           0        3.602558   -0.778484   -1.756606
     27          1           0        3.949518    0.465322    0.671029
     28          1           0        3.238885   -1.158370    0.621087
     29          1           0        1.766335    1.505083    0.734704
     30          1           0        0.416885    0.353535    2.515019
     31          1           0        2.136840    0.460989    2.929539
     32          1           0        1.452192   -1.077852    2.356139
 ---------------------------------------------------------------------

 The electronic state is 1-A.
 Alpha  occ. eigenvalues --  -14.32432 -14.31898 -10.21207 -10.21061 -10.20297
 Alpha  occ. eigenvalues --  -10.19778 -10.18442 -10.18254 -10.18016 -10.17611
 Alpha  occ. eigenvalues --  -10.17507 -10.17160 -10.16915 -10.16464  -0.93239
 Alpha  occ. eigenvalues --   -0.89516  -0.82597  -0.77752  -0.75275  -0.74732
 Alpha  occ. eigenvalues --   -0.70011  -0.67400  -0.66266  -0.60083  -0.58257
 Alpha  occ. eigenvalues --   -0.57355  -0.55076  -0.51217  -0.49514  -0.47976
 Alpha  occ. eigenvalues --   -0.47322  -0.44171  -0.43888  -0.43182  -0.42081
 Alpha  occ. eigenvalues --   -0.40600  -0.40088  -0.39314  -0.38148  -0.37495
 Alpha  occ. eigenvalues --   -0.36837  -0.36466  -0.35359  -0.34464  -0.33744
 Alpha  occ. eigenvalues --   -0.33013  -0.32482  -0.31734  -0.29062  -0.22954
 Alpha  occ. eigenvalues --   -0.20315  -0.18747
 Alpha virt. eigenvalues --    0.01104   0.02926   0.07238   0.09414   0.10771
 Alpha virt. eigenvalues --    0.11030   0.12269   0.13267   0.14066   0.14625
 Alpha virt. eigenvalues --    0.15464   0.16868   0.17125   0.17709   0.18012

 Mulliken charges:
               1
     1  C   -0.535472
     2  C    0.163996
     3  C   -0.215001
     4  C   -0.125106
     5  C   -0.192019
     6  C    0.295100
     7  N   -0.793140
     8  C    0.176398
     9  N   -0.560318
    10  C   -0.097170
    11  C   -0.305600
    12  C   -0.272715
    13  C    0.082968
    14  C   -0.451023
    15  H    0.158929
    16  H    0.161813
    17  H    0.152837
    18  H    0.109839
    19  H    0.119789
    20  H    0.111907
    21  H    0.312020
    22  H    0.326951
    23  H    0.146525
    24  H    0.129705
    25  H    0.141405
    26  H    0.143421
    27  H    0.135415
    28  H    0.133860
    29  H    0.109229
    30  H    0.158317
    31  H    0.140569
    32  H    0.136572
 Sum of Mulliken charges =  -0.00000

 Dipole moment (field-independent basis, Debye):
    X=              1.2975    Y=             -0.2654    Z=              0.8420  Tot=              1.5694
 Quadrupole moment (field-independent basis, Debye-Ang):
   XX=            -81.6359   YY=            -78.9124   ZZ=            -87.5228
   XY=              1.0206   XZ=             -1.4524   YZ=             -3.1632

 Normal termination of Gaussian 16 at Fri Nov  4 18:48:31 2022.
