 Gaussian 16, Revision B.01,
 Gaussian 16:  ES64L-G16RevB.01 20-Dec-2017

 -------------------------------------------------------------------
 #p b3lyp/6-31g(d) 6D 10F nosymm GFInput td=(50-50,nstate=2) SCF=XQC
 -------------------------------------------------------------------

 ------------------------------
 Gaussian input prepared by ASE
 ------------------------------
 Symbolic Z-matrix:
 Charge =  0 Multiplicity = 1

                          Input orientation:
 ---------------------------------------------------------------------
 Center     Atomic      Atomic             Coordinates (Angstroms)
 Number     Number       Type             X           Y           Z
 ---------------------------------------------------------------------
      1          6           0        1.225536   -2.989108    0.575060
      2          6           0        0.092168   -1.999246    0.471219
      3          6           0       -1.221488   -2.378062    0.741912
      4          6           0       -2.289472   -1.485136    0.630977
      5          6           0       -2.040618   -0.164656    0.246689
      6          6           0       -3.103684    0.901174    0.202818
      7          8           0       -2.859740    2.024892    0.641120
      8          7           0       -4.351852    0.573296   -0.285330
      9          6           0       -4.620643   -0.493027   -1.240698
     10          6           0       -5.399379    1.581028   -0.186554
     11          6           0       -0.724137    0.246081    0.004982
     12          6           0        0.344904   -0.653447    0.097359
     13          7           0        1.656460   -0.271925   -0.206050
     14          6           0        2.005498    1.140130   -0.303321
     15          6           0        3.466814    1.306372   -0.554027
     16          6           0        4.193011    1.942933   -1.521685
     17          6           0        5.567076    1.758258   -1.191984
     18          6           0        5.587505    1.012553   -0.042986
     19          6           0        6.647270    0.508231    0.745624
     20          7           0        7.534139    0.100254    1.380397
     21          8           0        4.303308    0.734259    0.359442
     22          1           0        0.851406   -3.989617    0.809512
     23          1           0        1.792995   -3.051620   -0.362924
     24          1           0        1.941465   -2.719391    1.366106
     25          1           0       -1.413545   -3.403210    1.050598
     26          1           0       -3.296776   -1.810730    0.870425
     27          1           0       -3.726850   -1.088659   -1.416953
     28          1           0       -5.420060   -1.153358   -0.879068
     29          1           0       -4.945485   -0.063854   -2.199625
     30          1           0       -5.168780    2.255264    0.636925
     31          1           0       -5.478455    2.172305   -1.110641
     32          1           0       -6.361331    1.086537   -0.008762
     33          1           0       -0.560289    1.289783   -0.235373
     34          1           0        2.363053   -0.812767    0.276911
     35          1           0        1.470607    1.595267   -1.143776
     36          1           0        1.714574    1.702425    0.602211
     37          1           0        3.792242    2.477313   -2.371339
     38          1           0        6.432555    2.119459   -1.728866
 ---------------------------------------------------------------------

 SCF Done:  E(RB3LYP) =  -934.613617735     A.U. after   15 cycles

 Excitation energies and oscillator strengths:

 Excited state symmetry could not be determined.
 Excited State   1:      Triplet-?Sym    3.1286 eV  396.29 nm  f=0.0000  <S**2>=2.000
      69 -> 80         0.10149
      72 -> 76         0.69044
      72 <- 76         0.10191
 This state for optimization and/or second-order correction.
 Total Energy, E(TD-HF/TD-DFT) =  -934.498643535
 Copying the excited state density for this state as the 1-particle RhoCI density.

 Excited state symmetry could not be determined.
 Excited State   2:      Triplet-?Sym    3.3270 eV  372.66 nm  f=0.0000  <S**2>=2.000
      71 -> 77         0.13160
      73 -> 77        -0.18535
      74 -> 77        -0.20230
      75 -> 76        -0.13687
      75 -> 77         0.54268
      75 -> 79         0.23765
      75 -> 81        -0.10718

 Excited state symmetry could not be determined.
 Excited State   3:      Singlet-?Sym    3.6322 eV  341.34 nm  f=0.0016  <S**2>=0.000
      75 -> 76         0.70448

 Excited state symmetry could not be determined.
 Excited State   4:      Singlet-?Sym    4.4044 eV  281.50 nm  f=0.0420  <S**2>=0.000
      73 -> 77         0.10052
      73 -> 79         0.11402
      74 -> 76        -0.13007
      74 -> 77         0.15407
      75 -> 77         0.63625
      75 -> 79        -0.10361

 Alpha  occ. eigenvalues --  -19.24950 -19.10400 -14.36121 -14.35661 -14.34921
 Alpha  occ. eigenvalues --  -10.28930 -10.27993 -10.27689 -10.24968 -10.24248
 Alpha  occ. eigenvalues --  -10.23160 -10.22853 -10.22128 -10.21795 -10.20972
 Alpha  occ. eigenvalues --  -10.19966 -10.19709 -10.19263 -10.19091 -10.18693
 Alpha  occ. eigenvalues --  -10.18591  -1.14490  -1.02403  -0.94803  -0.92623
 Alpha  occ. eigenvalues --   -0.91380  -0.85306  -0.83535  -0.80993  -0.78148
 Alpha  occ. eigenvalues --   -0.74545  -0.72303  -0.71277  -0.70819  -0.67602
 Alpha  occ. eigenvalues --   -0.64352  -0.62252  -0.60215  -0.59484  -0.57909
 Alpha  occ. eigenvalues --   -0.55728  -0.52529  -0.51178  -0.49789  -0.48262
 Alpha  occ. eigenvalues --   -0.47502  -0.47162  -0.46656  -0.45798  -0.45334
 Alpha  occ. eigenvalues --   -0.44994  -0.43430  -0.42582  -0.42557  -0.41521
 Alpha  occ. eigenvalues --   -0.40573  -0.40513  -0.40344  -0.39952  -0.39282
 Alpha  occ. eigenvalues --   -0.38325  -0.37187  -0.37101  -0.36560  -0.35446
 Alpha  occ. eigenvalues --   -0.35248  -0.34647  -0.34564  -0.31128  -0.30169
 Alpha  occ. eigenvalues --   -0.25698  -0.25155  -0.23955  -0.23063  -0.20744
 Alpha virt. eigenvalues --   -0.05242  -0.02331   0.00250   0.00861   0.02748
 Alpha virt. eigenvalues --    0.05524   0.08168   0.08973   0.09212   0.10692
 Alpha virt. eigenvalues --    0.11207   0.12508   0.13640   0.13892   0.14128

 Mulliken charges:
               1
     1  C   -0.558592
     2  C    0.160910
     3  C   -0.203835
     4  C   -0.174560
     5  C    0.060172
     6  C    0.519161
     7  O   -0.520043
     8  N   -0.411496
     9  C   -0.323499
    10  C   -0.311863
    11  C   -0.221343
    12  C    0.291529
    13  N   -0.684492
    14  C   -0.189948
    15  C    0.353409
    16  C   -0.209583
    17  C   -0.158322
    18  C    0.368792
    19  C    0.243791
    20  N   -0.478310
    21  O   -0.465334
    22  H    0.163969
    23  H    0.170251
    24  H    0.160279
    25  H    0.123931
    26  H    0.134130
    27  H    0.182882
    28  H    0.154757
    29  H    0.153304
    30  H    0.197656
    31  H    0.150735
    32  H    0.147657
    33  H    0.151747
    34  H    0.334649
    35  H    0.176440
    36  H    0.175749
    37  H    0.161893
    38  H    0.173428
 Sum of Mulliken charges =  -0.00000

 Dipole moment (field-independent basis, Debye):
    X=             -2.9036    Y=             -0.7771    Z=             -3.9785  Tot=              4.9863
 Quadrupole moment (field-independent basis, Debye-Ang):
   XX=           -138.1970   YY=           -117.8493   ZZ=           -122.8880
   XY=             14.7088   XZ=            -12.5808   YZ=             -8.2353

 Normal termination of Gaussian 16 at Sat Nov  5 11:38:35 2022.
