 Gaussian 16, Revision B.01,
 Gaussian 16:  ES64L-G16RevB.01 20-Dec-2017

 -----------------------------
 #p b3lyp/6-31g(d) opt SCF=XQC
 -----------------------------

 ------------------------------
 Gaussian input prepared by ASE
 ------------------------------
 Symbolic Z-matrix:
 Charge =  0 Multiplicity = 1

 SCF Done:  E(RB3LYP) =  -934.607275755     A.U. after   15 cycles
 SCF Done:  E(RB3LYP) =  -934.611981048     A.U. after   13 cycles
 SCF Done:  E(RB3LYP) =  -934.612516521     A.U. after   13 cycles
 SCF Done:  E(RB3LYP) =  -934.613084709     A.U. after   12 cycles
 SCF Done:  E(RB3LYP) =  -934.613246883     A.U. after   12 cycles
 SCF Done:  E(RB3LYP) =  -934.613321672     A.U. after   12 cycles
 SCF Done:  E(RB3LYP) =  -934.613418539     A.U. after   11 cycles
 SCF Done:  E(RB3LYP) =  -934.613508960     A.U. after   12 cycles
 SCF Done:  E(RB3LYP) =  -934.613539960     A.U. after   11 cycles
 SCF Done:  E(RB3LYP) =  -934.613558707     A.U. after   10 cycles
 SCF Done:  E(RB3LYP) =  -934.613589691     A.U. after   10 cycles
 SCF Done:  E(RB3LYP) =  -934.613599279     A.U. after    9 cycles
 SCF Done:  E(RB3LYP) =  -934.613607467     A.U. after   10 cycles
 SCF Done:  E(RB3LYP) =  -934.613614909     A.U. after   10 cycles
 SCF Done:  E(RB3LYP) =  -934.613615844     A.U. after   10 cycles
 SCF Done:  E(RB3LYP) =  -934.613617222     A.U. after    9 cycles
 SCF Done:  E(RB3LYP) =  -934.613617778     A.U. after    8 cycles
 SCF Done:  E(RB3LYP) =  -934.613617815     A.U. after    7 cycles
 Optimization completed.
    -- Stationary point found.

                         Standard orientation:
 ---------------------------------------------------------------------
 Center     Atomic      Atomic             Coordinates (Angstroms)
 Number     Number       Type             X           Y           Z
 ---------------------------------------------------------------------
      1          6           0        0.461165    3.206484    0.337057
      2          6           0       -0.612823    2.168188    0.128197
      3          6           0       -1.942312    2.537241   -0.068592
      4          6           0       -2.956913    1.593429   -0.241846
      5          6           0       -2.635993    0.233238   -0.229099
      6          6           0       -3.634363   -0.857602   -0.514321
      7          8           0       -3.317261   -1.801275   -1.237707
      8          7           0       -4.907251   -0.744299    0.005906
      9          6           0       -5.253776   -0.000327    1.209421
     10          6           0       -5.891350   -1.739041   -0.399841
     11          6           0       -1.301336   -0.158255   -0.068874
     12          6           0       -0.286360    0.786802    0.124062
     13          7           0        1.040685    0.405973    0.351469
     14          6           0        1.471505   -0.957222    0.066365
     15          6           0        2.936048   -1.108998    0.307224
     16          6           0        3.683683   -1.949547    1.084044
     17          6           0        5.049294   -1.608396    0.861372
     18          6           0        5.043203   -0.573426   -0.036120
     19          6           0        6.083234    0.184983   -0.621354
     20          7           0        6.954034    0.799187   -1.090801
     21          8           0        3.751140   -0.262739   -0.386268
     22          1           0        0.031902    4.211556    0.376062
     23          1           0        1.009261    3.036437    1.273222
     24          1           0        1.204068    3.204819   -0.474823
     25          1           0       -2.190159    3.596147   -0.088391
     26          1           0       -3.977951    1.918947   -0.413683
     27          1           0       -4.399823    0.569464    1.571101
     28          1           0       -6.085322    0.691176    1.019064
     29          1           0       -5.567387   -0.695025    2.002072
     30          1           0       -5.608306   -2.145436   -1.369695
     31          1           0       -5.949482   -2.566614    0.322338
     32          1           0       -6.878121   -1.266184   -0.464434
     33          1           0       -1.079479   -1.217510   -0.120723
     34          1           0        1.721292    1.096038    0.058858
     35          1           0        0.951626   -1.655085    0.731447
     36          1           0        1.228631   -1.261032   -0.967807
     37          1           0        3.302241   -2.718899    1.740314
     38          1           0        5.926271   -2.058012    1.304678
 ---------------------------------------------------------------------

 The electronic state is 1-A.
 Alpha  occ. eigenvalues --  -19.24950 -19.10400 -14.36120 -14.35661 -14.34921
 Alpha  occ. eigenvalues --  -10.28930 -10.27993 -10.27689 -10.24968 -10.24248
 Alpha  occ. eigenvalues --  -10.23160 -10.22853 -10.22128 -10.21795 -10.20972
 Alpha  occ. eigenvalues --  -10.19966 -10.19709 -10.19263 -10.19091 -10.18693
 Alpha  occ. eigenvalues --  -10.18591  -1.14490  -1.02403  -0.94803  -0.92623
 Alpha  occ. eigenvalues --   -0.91380  -0.85306  -0.83535  -0.80993  -0.78148
 Alpha  occ. eigenvalues --   -0.74545  -0.72303  -0.71277  -0.70819  -0.67602
 Alpha  occ. eigenvalues --   -0.64352  -0.62252  -0.60215  -0.59484  -0.57909
 Alpha  occ. eigenvalues --   -0.55728  -0.52529  -0.51178  -0.49789  -0.48262
 Alpha  occ. eigenvalues --   -0.47502  -0.47162  -0.46656  -0.45798  -0.45334
 Alpha  occ. eigenvalues --   -0.44994  -0.43430  -0.42582  -0.42557  -0.41521
 Alpha  occ. eigenvalues --   -0.40573  -0.40513  -0.40344  -0.39952  -0.39282
 Alpha  occ. eigenvalues --   -0.38325  -0.37187  -0.37101  -0.36560  -0.35446
 Alpha  occ. eigenvalues --   -0.35247  -0.34647  -0.34564  -0.31128  -0.30169
 Alpha  occ. eigenvalues --   -0.25698  -0.25155  -0.23955  -0.23063  -0.20744
 Alpha virt. eigenvalues --   -0.05242  -0.02331   0.00250   0.00861   0.02748
 Alpha virt. eigenvalues --    0.05524   0.08167   0.08973   0.09212   0.10692
 Alpha virt. eigenvalues --    0.11207   0.12508   0.13640   0.13892   0.14128

 Mulliken charges:
               1
     1  C   -0.558590
     2  C    0.160919
     3  C   -0.203842
     4  C   -0.174549
     5  C    0.060157
     6  C    0.519174
     7  O   -0.520043
     8  N   -0.411496
     9  C   -0.323500
    10  C   -0.311872
    11  C   -0.221338
    12  C    0.291511
    13  N   -0.684482
    14  C   -0.189949
    15  C    0.353407
    16  C   -0.209581
    17  C   -0.158321
    18  C    0.368791
    19  C    0.243786
    20  N   -0.478307
    21  O   -0.465334
    22  H    0.163969
    23  H    0.170251
    24  H    0.160279
    25  H    0.123931
    26  H    0.134130
    27  H    0.182883
    28  H    0.154757
    29  H    0.153304
    30  H    0.197657
    31  H    0.150737
    32  H    0.147658
    33  H    0.151746
    34  H    0.334647
    35  H    0.176440
    36  H    0.175751
    37  H    0.161893
    38  H    0.173428
 Sum of Mulliken charges =  -0.00000

 Dipole moment (field-independent basis, Debye):
    X=             -3.0061    Y=             -0.5107    Z=              3.9453  Tot=              4.9863
 Quadrupole moment (field-independent basis, Debye-Ang):
   XX=           -133.2141   YY=           -115.8899   ZZ=           -126.1712
   XY=            -18.6785   XZ=              5.5581   YZ=             -5.3415

 Normal termination of Gaussian 16 at Fri Nov  4 18:46:29 2022.
