 Gaussian 16, Revision B.01,
 Gaussian 16:  ES64L-G16RevB.01 20-Dec-2017

 -------------------------------------------------------------------
 #p b3lyp/6-31g(d) 6D 10F nosymm GFInput td=(50-50,nstate=2) SCF=XQC
 -------------------------------------------------------------------

 ------------------------------
 Gaussian input prepared by ASE
 ------------------------------
 Symbolic Z-matrix:
 Charge =  0 Multiplicity = 1

                          Input orientation:
 ---------------------------------------------------------------------
 Center     Atomic      Atomic             Coordinates (Angstroms)
 Number     Number       Type             X           Y           Z
 ---------------------------------------------------------------------
      1          6           0       -3.597690    0.568389    1.669942
      2          6           0       -2.137294    0.132952    1.480690
      3          6           0       -1.542220    0.194750    0.046353
      4          6           0       -2.029567    1.415006   -0.758202
      5          8           0       -1.729586   -1.015842   -0.699522
      6          6           0       -3.044462   -1.500727   -0.891008
      7          6           0       -0.001064    0.348504    0.178218
      8          8           0        0.457269    1.252137    0.846505
      9          6           0        0.883718   -0.644765   -0.579300
     10          6           0        2.354237   -0.356199   -0.447385
     11          6           0        3.106240    0.180881   -1.496002
     12          6           0        4.462801    0.431188   -1.319797
     13          9           0        5.167826    0.948039   -2.350628
     14          6           0        5.114501    0.163833   -0.122716
     15          6           0        4.374630   -0.373364    0.932153
     16          6           0        3.020903   -0.618988    0.751157
     17          9           0        2.311288   -1.150297    1.774406
     18          1           0       -4.305157   -0.008382    1.066529
     19          1           0       -3.882214    0.438592    2.720302
     20          1           0       -3.736796    1.626790    1.425837
     21          1           0       -1.508947    0.774238    2.106802
     22          1           0       -1.998262   -0.893397    1.844933
     23          1           0       -3.112491    1.391013   -0.909290
     24          1           0       -1.549309    1.435248   -1.742431
     25          1           0       -1.775108    2.336654   -0.227424
     26          1           0       -2.958804   -2.340125   -1.586805
     27          1           0       -3.713652   -0.750000   -1.333396
     28          1           0       -3.492103   -1.868032    0.042133
     29          1           0        0.635091   -1.644365   -0.203129
     30          1           0        0.572595   -0.652862   -1.629547
     31          1           0        2.644901    0.407248   -2.452338
     32          1           0        6.174384    0.372335   -0.025131
     33          1           0        4.834344   -0.600452    1.888091
 ---------------------------------------------------------------------

 SCF Done:  E(RB3LYP) =  -855.121858241     A.U. after   14 cycles

 Excitation energies and oscillator strengths:

 Excited state symmetry could not be determined.
 Excited State   1:      Triplet-?Sym    3.7550 eV  330.19 nm  f=0.0000  <S**2>=2.000
      61 -> 65         0.12743
      61 -> 66         0.32164
      62 -> 66        -0.19735
      63 -> 65        -0.23332
      63 -> 66        -0.13242
      64 -> 66        -0.15576
      64 -> 67         0.47111
 This state for optimization and/or second-order correction.
 Total Energy, E(TD-HF/TD-DFT) =  -854.983866118
 Copying the excited state density for this state as the 1-particle RhoCI density.

 Excited state symmetry could not be determined.
 Excited State   2:      Triplet-?Sym    3.8039 eV  325.94 nm  f=0.0000  <S**2>=2.000
      61 -> 65         0.24722
      63 -> 65         0.54062
      63 -> 66        -0.29743
      64 -> 65         0.13439
      64 -> 67         0.10101

 Excited state symmetry could not be determined.
 Excited State   3:      Singlet-?Sym    4.3954 eV  282.08 nm  f=0.0012  <S**2>=0.000
      61 -> 65         0.19144
      63 -> 65         0.58725
      63 -> 66        -0.25267
      64 -> 65         0.17716

 Excited state symmetry could not be determined.
 Excited State   4:      Singlet-?Sym    5.0767 eV  244.22 nm  f=0.0167  <S**2>=0.000
      63 -> 65        -0.15688
      64 -> 65         0.66739

 Alpha  occ. eigenvalues --  -24.70191 -24.70035 -19.15556 -19.14321 -10.27755
 Alpha  occ. eigenvalues --  -10.26923 -10.26717 -10.25481 -10.23522 -10.20859
 Alpha  occ. eigenvalues --  -10.20108 -10.20095 -10.19987 -10.19938 -10.18830
 Alpha  occ. eigenvalues --  -10.18567 -10.18232  -1.21212  -1.21144  -1.04931
 Alpha  occ. eigenvalues --   -1.03380  -0.86842  -0.80461  -0.79100  -0.74947
 Alpha  occ. eigenvalues --   -0.74352  -0.71740  -0.69541  -0.65082  -0.63075
 Alpha  occ. eigenvalues --   -0.61239  -0.58491  -0.54243  -0.52946  -0.51884
 Alpha  occ. eigenvalues --   -0.51604  -0.49705  -0.48304  -0.47032  -0.45941
 Alpha  occ. eigenvalues --   -0.45025  -0.44918  -0.44861  -0.43525  -0.43044
 Alpha  occ. eigenvalues --   -0.42592  -0.42293  -0.41953  -0.40898  -0.40107
 Alpha  occ. eigenvalues --   -0.39365  -0.38956  -0.37350  -0.37084  -0.35955
 Alpha  occ. eigenvalues --   -0.35092  -0.34477  -0.34165  -0.33617  -0.31516
 Alpha  occ. eigenvalues --   -0.26331  -0.26181  -0.24398  -0.23160
 Alpha virt. eigenvalues --   -0.01853  -0.01152   0.00990   0.07390   0.08617
 Alpha virt. eigenvalues --    0.10679   0.11374   0.11959   0.12814   0.14059
 Alpha virt. eigenvalues --    0.14264   0.15041   0.15295   0.15497   0.15903

 Mulliken charges:
               1
     1  C   -0.461637
     2  C   -0.295178
     3  C    0.291741
     4  C   -0.475309
     5  O   -0.512589
     6  C   -0.201388
     7  C    0.426392
     8  O   -0.447747
     9  C   -0.454265
    10  C    0.129245
    11  C   -0.259349
    12  C    0.387254
    13  F   -0.301925
    14  C   -0.199242
    15  C   -0.195548
    16  C    0.344228
    17  F   -0.297880
    18  H    0.144760
    19  H    0.151874
    20  H    0.153499
    21  H    0.176364
    22  H    0.146793
    23  H    0.155157
    24  H    0.151667
    25  H    0.174957
    26  H    0.159407
    27  H    0.136370
    28  H    0.142911
    29  H    0.197938
    30  H    0.183136
    31  H    0.144617
    32  H    0.151370
    33  H    0.152377
 Sum of Mulliken charges =  -0.00000

 Dipole moment (field-independent basis, Debye):
    X=             -2.6851    Y=             -1.2782    Z=             -0.6392  Tot=              3.0417
 Quadrupole moment (field-independent basis, Debye-Ang):
   XX=            -90.6332   YY=           -101.1543   ZZ=            -99.2955
   XY=             -1.5851   XZ=              5.0561   YZ=             -0.5333

 Normal termination of Gaussian 16 at Sat Nov  5 11:35:55 2022.
