 Gaussian 16, Revision B.01,
 Gaussian 16:  ES64L-G16RevB.01 20-Dec-2017

 -------------------------------------------------------------------
 #p b3lyp/6-31g(d) 6D 10F nosymm GFInput td=(50-50,nstate=2) SCF=XQC
 -------------------------------------------------------------------

 ------------------------------
 Gaussian input prepared by ASE
 ------------------------------
 Symbolic Z-matrix:
 Charge =  0 Multiplicity = 1

                          Input orientation:
 ---------------------------------------------------------------------
 Center     Atomic      Atomic             Coordinates (Angstroms)
 Number     Number       Type             X           Y           Z
 ---------------------------------------------------------------------
      1          6           0       -2.603022    0.527811    1.606397
      2          6           0       -2.765124   -0.591694    0.893178
      3          6           0       -3.714287   -1.664682    1.408715
      4          6           0       -2.979262   -2.805681    2.136320
      5          6           0       -2.146540   -0.969662   -0.450414
      6          6           0       -0.789584   -0.498252   -1.046215
      7          7           0       -0.877282    0.791026   -1.747360
      8          6           0       -1.389703    2.018710   -1.155570
      9          6           0       -1.511677    3.105126   -2.230622
     10          6           0       -2.075181    4.421069   -1.686147
     11          6           0        0.500063   -0.771624   -0.177537
     12          8           0        0.372045   -2.133935    0.330334
     13          6           0        0.971503   -3.273792   -0.269574
     14          6           0        0.423666   -3.696550   -1.633878
     15          6           0        1.778321   -0.562352   -1.046555
     16          6           0        2.482354    0.777497   -0.777211
     17          6           0        3.030260    0.875986    0.675808
     18          6           0        4.444161    0.271912    0.755225
     19          6           0        3.095746    2.357497    1.089546
     20          6           0        2.073763    0.093499    1.622643
     21          6           0        0.630547    0.078457    1.105841
     22          1           0       -3.156404    0.673998    2.531948
     23          1           0       -1.922930    1.323355    1.333449
     24          1           0       -4.444741   -1.215192    2.091821
     25          1           0       -4.287403   -2.083440    0.568918
     26          1           0       -2.184706   -3.233781    1.515759
     27          1           0       -2.509911   -2.434615    3.053901
     28          1           0       -3.673447   -3.609763    2.407753
     29          1           0       -2.084917   -2.061529   -0.447592
     30          1           0       -2.895319   -0.730691   -1.221986
     31          1           0       -0.661617   -1.208330   -1.875018
     32          1           0       -0.015143    0.974731   -2.251692
     33          1           0       -0.781062    2.421621   -0.322088
     34          1           0       -2.382926    1.813173   -0.744038
     35          1           0       -0.520738    3.288562   -2.673226
     36          1           0       -2.145014    2.722697   -3.040446
     37          1           0       -2.145899    5.178526   -2.474599
     38          1           0       -1.441009    4.829064   -0.889449
     39          1           0       -3.079937    4.280046   -1.269516
     40          1           0        0.777249   -4.072347    0.455629
     41          1           0        2.064928   -3.171871   -0.328666
     42          1           0        0.862257   -4.661057   -1.919214
     43          1           0        0.668565   -2.976624   -2.421276
     44          1           0       -0.664533   -3.815674   -1.601151
     45          1           0        1.541206   -0.660274   -2.114145
     46          1           0        2.497566   -1.357754   -0.830763
     47          1           0        1.782841    1.603048   -0.959816
     48          1           0        3.304441    0.912878   -1.492426
     49          1           0        4.804276    0.255704    1.791468
     50          1           0        4.462421   -0.761130    0.385927
     51          1           0        5.160279    0.853354    0.160764
     52          1           0        3.556917    2.471855    2.078353
     53          1           0        3.688170    2.942363    0.374261
     54          1           0        2.094511    2.803967    1.133747
     55          1           0        2.411933   -0.945761    1.726059
     56          1           0        2.114088    0.528123    2.629691
     57          1           0        0.303337    1.104234    0.908889
     58          1           0       -0.048097   -0.331835    1.855147
 ---------------------------------------------------------------------

 SCF Done:  E(RB3LYP) =  -876.229393840     A.U. after   13 cycles

 Excitation energies and oscillator strengths:

 Excited state symmetry could not be determined.
 Excited State   1:      Triplet-?Sym    3.9791 eV  311.59 nm  f=0.0000  <S**2>=2.000
      82 -> 84         0.69452
      82 <- 84         0.11941
 This state for optimization and/or second-order correction.
 Total Energy, E(TD-HF/TD-DFT) =  -876.083164081
 Copying the excited state density for this state as the 1-particle RhoCI density.

 Excited state symmetry could not be determined.
 Excited State   2:      Triplet-?Sym    5.4358 eV  228.09 nm  f=0.0000  <S**2>=2.000
      83 -> 84         0.70306

 Excited state symmetry could not be determined.
 Excited State   3:      Singlet-?Sym    5.4466 eV  227.63 nm  f=0.0001  <S**2>=0.000
      83 -> 84         0.70635

 Excited state symmetry could not be determined.
 Excited State   4:      Singlet-?Sym    6.0949 eV  203.42 nm  f=0.0180  <S**2>=0.000
      83 -> 85         0.68374
      83 -> 87        -0.10967
      83 -> 88         0.12054

 Alpha  occ. eigenvalues --  -19.13420 -14.30787 -10.23379 -10.22868 -10.20814
 Alpha  occ. eigenvalues --  -10.19752 -10.19060 -10.18485 -10.18085 -10.17880
 Alpha  occ. eigenvalues --  -10.17759 -10.17716 -10.17640 -10.17615 -10.17166
 Alpha  occ. eigenvalues --  -10.16956 -10.16903 -10.16808 -10.16670 -10.16352
 Alpha  occ. eigenvalues --  -10.15895  -1.01047  -0.89265  -0.83329  -0.80387
 Alpha  occ. eigenvalues --   -0.78165  -0.76387  -0.74394  -0.73093  -0.72810
 Alpha  occ. eigenvalues --   -0.70813  -0.67985  -0.66990  -0.65845  -0.62489
 Alpha  occ. eigenvalues --   -0.61752  -0.61066  -0.59363  -0.57999  -0.54642
 Alpha  occ. eigenvalues --   -0.51306  -0.50756  -0.49697  -0.48212  -0.46891
 Alpha  occ. eigenvalues --   -0.46279  -0.45808  -0.45289  -0.44585  -0.43905
 Alpha  occ. eigenvalues --   -0.43378  -0.42722  -0.41500  -0.41403  -0.40471
 Alpha  occ. eigenvalues --   -0.40404  -0.40088  -0.39407  -0.39143  -0.38435
 Alpha  occ. eigenvalues --   -0.37531  -0.37066  -0.36828  -0.36575  -0.36547
 Alpha  occ. eigenvalues --   -0.35766  -0.35559  -0.35078  -0.34758  -0.34216
 Alpha  occ. eigenvalues --   -0.33733  -0.33105  -0.32749  -0.32374  -0.32156
 Alpha  occ. eigenvalues --   -0.30333  -0.30073  -0.29881  -0.29686  -0.27658
 Alpha  occ. eigenvalues --   -0.25319  -0.23033  -0.19714
 Alpha virt. eigenvalues --    0.03150   0.06163   0.07676   0.08193   0.09590
 Alpha virt. eigenvalues --    0.10490   0.11242   0.11509   0.12277   0.12350
 Alpha virt. eigenvalues --    0.13640   0.13945   0.14109   0.14628   0.15256

 Mulliken charges:
               1
     1  C   -0.419632
     2  C    0.249310
     3  C   -0.332839
     4  C   -0.441456
     5  C   -0.366324
     6  C    0.014624
     7  N   -0.589792
     8  C   -0.108081
     9  C   -0.260303
    10  C   -0.446362
    11  C    0.364259
    12  O   -0.526077
    13  C   -0.013557
    14  C   -0.470236
    15  C   -0.348014
    16  C   -0.283845
    17  C    0.133914
    18  C   -0.456320
    19  C   -0.457480
    20  C   -0.289346
    21  C   -0.291336
    22  H    0.125791
    23  H    0.140440
    24  H    0.137492
    25  H    0.134434
    26  H    0.160196
    27  H    0.149015
    28  H    0.136699
    29  H    0.156463
    30  H    0.157896
    31  H    0.127211
    32  H    0.296344
    33  H    0.107748
    34  H    0.153624
    35  H    0.122676
    36  H    0.145418
    37  H    0.144258
    38  H    0.141942
    39  H    0.145716
    40  H    0.144869
    41  H    0.123221
    42  H    0.142177
    43  H    0.153703
    44  H    0.157381
    45  H    0.132882
    46  H    0.148200
    47  H    0.131507
    48  H    0.129614
    49  H    0.141123
    50  H    0.137113
    51  H    0.135489
    52  H    0.138478
    53  H    0.136413
    54  H    0.140203
    55  H    0.137863
    56  H    0.128706
    57  H    0.133186
    58  H    0.163403
 Sum of Mulliken charges =  -0.00000

 Dipole moment (field-independent basis, Debye):
    X=              1.1347    Y=             -0.3587    Z=             -0.8165  Tot=              1.4433
 Quadrupole moment (field-independent basis, Debye-Ang):
   XX=           -134.8482   YY=           -131.1958   ZZ=           -136.2810
   XY=              0.0574   XZ=             -2.6510   YZ=              1.8323

 Normal termination of Gaussian 16 at Sat Nov  5 11:36:17 2022.
