 Gaussian 16, Revision B.01,
 Gaussian 16:  ES64L-G16RevB.01 20-Dec-2017

 -----------------------------
 #p b3lyp/6-31g(d) opt SCF=XQC
 -----------------------------

 ------------------------------
 Gaussian input prepared by ASE
 ------------------------------
 Symbolic Z-matrix:
 Charge =  0 Multiplicity = 1

 SCF Done:  E(RB3LYP) =  -855.118457797     A.U. after   14 cycles
 SCF Done:  E(RB3LYP) =  -855.121246105     A.U. after   12 cycles
 SCF Done:  E(RB3LYP) =  -855.121100046     A.U. after   12 cycles
 SCF Done:  E(RB3LYP) =  -855.121480472     A.U. after   12 cycles
 SCF Done:  E(RB3LYP) =  -855.121648154     A.U. after   11 cycles
 SCF Done:  E(RB3LYP) =  -855.121756709     A.U. after   11 cycles
 SCF Done:  E(RB3LYP) =  -855.121810774     A.U. after   11 cycles
 SCF Done:  E(RB3LYP) =  -855.121845519     A.U. after   10 cycles
 SCF Done:  E(RB3LYP) =  -855.121858140     A.U. after   11 cycles
 SCF Done:  E(RB3LYP) =  -855.121861686     A.U. after    9 cycles
 SCF Done:  E(RB3LYP) =  -855.121862152     A.U. after    8 cycles
 SCF Done:  E(RB3LYP) =  -855.121863340     A.U. after    9 cycles
 SCF Done:  E(RB3LYP) =  -855.121863514     A.U. after    8 cycles
 SCF Done:  E(RB3LYP) =  -855.121863578     A.U. after    8 cycles
 SCF Done:  E(RB3LYP) =  -855.121863596     A.U. after    7 cycles
 Optimization completed.
    -- Stationary point found.

                         Standard orientation:
 ---------------------------------------------------------------------
 Center     Atomic      Atomic             Coordinates (Angstroms)
 Number     Number       Type             X           Y           Z
 ---------------------------------------------------------------------
      1          6           0       -4.604636    0.942694   -0.872765
      2          6           0       -3.142272    1.046749   -0.415773
      3          6           0       -2.354001   -0.275188   -0.200448
      4          6           0       -2.698241   -1.360209   -1.238749
      5          8           0       -2.464019   -0.791967    1.132896
      6          6           0       -3.750552   -1.067780    1.651973
      7          6           0       -0.842647    0.038235   -0.384197
      8          8           0       -0.460537    0.576742   -1.402642
      9          6           0        0.115480   -0.382215    0.733153
     10          6           0        1.559918   -0.104632    0.417488
     11          6           0        2.461136   -1.121835    0.090892
     12          6           0        3.785768   -0.809750   -0.195311
     13          9           0        4.637562   -1.812328   -0.505300
     14          6           0        4.260122    0.495424   -0.168796
     15          6           0        3.370053    1.520414    0.156643
     16          6           0        2.048994    1.203168    0.439170
     17          9           0        1.193373    2.200534    0.764836
     18          1           0       -5.235019    0.369313   -0.186374
     19          1           0       -5.034023    1.948173   -0.948233
     20          1           0       -4.684913    0.481832   -1.862871
     21          1           0       -2.591910    1.618678   -1.169485
     22          1           0       -3.077901    1.618091    0.519545
     23          1           0       -3.750281   -1.653420   -1.180719
     24          1           0       -2.086617   -2.252996   -1.069595
     25          1           0       -2.498655   -0.987178   -2.247174
     26          1           0       -3.588763   -1.569503    2.610178
     27          1           0       -4.335328   -1.735770    1.004717
     28          1           0       -4.330654   -0.153042    1.833035
     29          1           0       -0.205052    0.141455    1.641751
     30          1           0       -0.048067   -1.444071    0.946685
     31          1           0        2.141183   -2.158719    0.056893
     32          1           0        5.300874    0.697829   -0.397308
     33          1           0        3.688435    2.556824    0.191434
 ---------------------------------------------------------------------

 The electronic state is 1-A.
 Alpha  occ. eigenvalues --  -24.70191 -24.70035 -19.15556 -19.14321 -10.27755
 Alpha  occ. eigenvalues --  -10.26923 -10.26717 -10.25481 -10.23522 -10.20859
 Alpha  occ. eigenvalues --  -10.20108 -10.20095 -10.19987 -10.19938 -10.18830
 Alpha  occ. eigenvalues --  -10.18567 -10.18232  -1.21212  -1.21144  -1.04931
 Alpha  occ. eigenvalues --   -1.03380  -0.86842  -0.80461  -0.79100  -0.74947
 Alpha  occ. eigenvalues --   -0.74352  -0.71740  -0.69541  -0.65082  -0.63075
 Alpha  occ. eigenvalues --   -0.61239  -0.58491  -0.54243  -0.52946  -0.51884
 Alpha  occ. eigenvalues --   -0.51604  -0.49705  -0.48304  -0.47032  -0.45941
 Alpha  occ. eigenvalues --   -0.45025  -0.44918  -0.44861  -0.43525  -0.43044
 Alpha  occ. eigenvalues --   -0.42592  -0.42293  -0.41953  -0.40898  -0.40107
 Alpha  occ. eigenvalues --   -0.39365  -0.38956  -0.37350  -0.37084  -0.35955
 Alpha  occ. eigenvalues --   -0.35092  -0.34477  -0.34165  -0.33617  -0.31516
 Alpha  occ. eigenvalues --   -0.26331  -0.26181  -0.24398  -0.23160
 Alpha virt. eigenvalues --   -0.01853  -0.01152   0.00990   0.07390   0.08617
 Alpha virt. eigenvalues --    0.10679   0.11374   0.11959   0.12814   0.14059
 Alpha virt. eigenvalues --    0.14264   0.15041   0.15295   0.15497   0.15903

 Mulliken charges:
               1
     1  C   -0.461626
     2  C   -0.295174
     3  C    0.291703
     4  C   -0.475291
     5  O   -0.512578
     6  C   -0.201401
     7  C    0.426400
     8  O   -0.447749
     9  C   -0.454266
    10  C    0.129251
    11  C   -0.259353
    12  C    0.387257
    13  F   -0.301926
    14  C   -0.199242
    15  C   -0.195549
    16  C    0.344228
    17  F   -0.297882
    18  H    0.144759
    19  H    0.151871
    20  H    0.153495
    21  H    0.176366
    22  H    0.146793
    23  H    0.155156
    24  H    0.151666
    25  H    0.174957
    26  H    0.159409
    27  H    0.136373
    28  H    0.142915
    29  H    0.197938
    30  H    0.183136
    31  H    0.144617
    32  H    0.151370
    33  H    0.152377
 Sum of Mulliken charges =  -0.00000

 Dipole moment (field-independent basis, Debye):
    X=             -2.5995    Y=             -0.7487    Z=              1.3907  Tot=              3.0417
 Quadrupole moment (field-independent basis, Debye-Ang):
   XX=            -87.9616   YY=            -97.4395   ZZ=           -101.3140
   XY=              7.0353   XZ=             -0.6266   YZ=              0.0974

 Normal termination of Gaussian 16 at Fri Nov  4 18:40:55 2022.
