 Gaussian 16, Revision B.01,
 Gaussian 16:  ES64L-G16RevB.01 20-Dec-2017

 -----------------------------
 #p b3lyp/6-31g(d) opt SCF=XQC
 -----------------------------

 ------------------------------
 Gaussian input prepared by ASE
 ------------------------------
 Symbolic Z-matrix:
 Charge =  0 Multiplicity = 1

 SCF Done:  E(RB3LYP) =  -876.221880274     A.U. after   13 cycles
 SCF Done:  E(RB3LYP) =  -876.224138005     A.U. after   12 cycles
 SCF Done:  E(RB3LYP) =  -876.226123775     A.U. after   12 cycles
 SCF Done:  E(RB3LYP) =  -876.227798852     A.U. after   12 cycles
 SCF Done:  E(RB3LYP) =  -876.228744288     A.U. after   11 cycles
 SCF Done:  E(RB3LYP) =  -876.228318405     A.U. after   11 cycles
 SCF Done:  E(RB3LYP) =  -876.228999022     A.U. after   10 cycles
 SCF Done:  E(RB3LYP) =  -876.229226081     A.U. after   11 cycles
 SCF Done:  E(RB3LYP) =  -876.229328967     A.U. after   10 cycles
 SCF Done:  E(RB3LYP) =  -876.229357868     A.U. after    9 cycles
 SCF Done:  E(RB3LYP) =  -876.229364141     A.U. after    9 cycles
 SCF Done:  E(RB3LYP) =  -876.229367237     A.U. after    9 cycles
 SCF Done:  E(RB3LYP) =  -876.229367591     A.U. after    7 cycles
 SCF Done:  E(RB3LYP) =  -876.229367716     A.U. after    7 cycles
 SCF Done:  E(RB3LYP) =  -876.229367693     A.U. after    6 cycles
 SCF Done:  E(RB3LYP) =  -876.229367701     A.U. after    6 cycles
 Optimization completed.
    -- Stationary point found.

                         Standard orientation:
 ---------------------------------------------------------------------
 Center     Atomic      Atomic             Coordinates (Angstroms)
 Number     Number       Type             X           Y           Z
 ---------------------------------------------------------------------
      1          6           0        2.300252    0.976757   -1.851940
      2          6           0        2.792036    0.202350   -0.878959
      3          6           0        4.069479   -0.584947   -1.136445
      4          6           0        3.795001   -2.053603   -1.509619
      5          6           0        2.270115    0.001359    0.541585
      6          6           0        0.806066    0.127933    1.050579
      7          7           0        0.423028    1.506955    1.386896
      8          6           0        0.523934    2.637026    0.474341
      9          6           0        0.222585    3.940869    1.222738
     10          6           0        0.339730    5.180280    0.330643
     11          6           0       -0.273555   -0.777544    0.338501
     12          8           0        0.327417   -2.100214    0.198529
     13          6           0        0.114829   -3.177820    1.099685
     14          6           0        0.704656   -3.022889    2.502639
     15          6           0       -1.589333   -0.791073    1.176044
     16          6           0       -2.686675    0.116383    0.596589
     17          6           0       -3.163779   -0.355272   -0.807361
     18          6           0       -4.288606   -1.397058   -0.666731
     19          6           0       -3.700407    0.857113   -1.589983
     20          6           0       -1.955344   -0.988961   -1.556889
     21          6           0       -0.617444   -0.384524   -1.115458
     22          1           0        2.817736    1.054477   -2.806098
     23          1           0        1.380751    1.540045   -1.767435
     24          1           0        4.640275   -0.110240   -1.943342
     25          1           0        4.707566   -0.554052   -0.241476
     26          1           0        3.159799   -2.546666   -0.765917
     27          1           0        3.274347   -2.113085   -2.471553
     28          1           0        4.730547   -2.619504   -1.591032
     29          1           0        2.577328   -1.008885    0.826201
     30          1           0        2.856971    0.669118    1.191814
     31          1           0        0.882266   -0.342940    2.040515
     32          1           0       -0.474622    1.515145    1.861806
     33          1           0       -0.142601    2.581507   -0.408904
     34          1           0        1.547688    2.677104    0.089093
     35          1           0       -0.793159    3.889606    1.643620
     36          1           0        0.906679    4.017077    2.076782
     37          1           0        0.114232    6.094627    0.890571
     38          1           0       -0.354343    5.130352   -0.517372
     39          1           0        1.353020    5.281329   -0.076833
     40          1           0        0.600338   -4.024124    0.600290
     41          1           0       -0.951246   -3.436814    1.176265
     42          1           0        0.600320   -3.969398    3.047878
     43          1           0        0.194712   -2.248634    3.084663
     44          1           0        1.770267   -2.774385    2.456194
     45          1           0       -1.385957   -0.523154    2.221232
     46          1           0       -1.989693   -1.808606    1.205708
     47          1           0       -2.313332    1.145991    0.527887
     48          1           0       -3.540848    0.148973    1.285801
     49          1           0       -4.571126   -1.801445   -1.646730
     50          1           0       -3.978559   -2.242903   -0.040386
     51          1           0       -5.186247   -0.956303   -0.214780
     52          1           0       -4.124027    0.549399   -2.554014
     53          1           0       -4.488721    1.373805   -1.027617
     54          1           0       -2.905188    1.585709   -1.791317
     55          1           0       -1.921046   -2.070400   -1.371336
     56          1           0       -2.089066   -0.870247   -2.639799
     57          1           0       -0.662152    0.705305   -1.206820
     58          1           0        0.195322   -0.723033   -1.759803
 ---------------------------------------------------------------------

 The electronic state is 1-A.
 Alpha  occ. eigenvalues --  -19.13420 -14.30787 -10.23378 -10.22868 -10.20814
 Alpha  occ. eigenvalues --  -10.19752 -10.19060 -10.18485 -10.18084 -10.17880
 Alpha  occ. eigenvalues --  -10.17759 -10.17716 -10.17640 -10.17615 -10.17166
 Alpha  occ. eigenvalues --  -10.16956 -10.16903 -10.16808 -10.16670 -10.16352
 Alpha  occ. eigenvalues --  -10.15895  -1.01047  -0.89265  -0.83329  -0.80387
 Alpha  occ. eigenvalues --   -0.78165  -0.76387  -0.74394  -0.73093  -0.72810
 Alpha  occ. eigenvalues --   -0.70813  -0.67985  -0.66990  -0.65845  -0.62489
 Alpha  occ. eigenvalues --   -0.61752  -0.61066  -0.59363  -0.57999  -0.54643
 Alpha  occ. eigenvalues --   -0.51306  -0.50756  -0.49697  -0.48212  -0.46891
 Alpha  occ. eigenvalues --   -0.46279  -0.45808  -0.45289  -0.44585  -0.43905
 Alpha  occ. eigenvalues --   -0.43378  -0.42722  -0.41500  -0.41403  -0.40471
 Alpha  occ. eigenvalues --   -0.40404  -0.40088  -0.39407  -0.39143  -0.38435
 Alpha  occ. eigenvalues --   -0.37531  -0.37066  -0.36828  -0.36575  -0.36547
 Alpha  occ. eigenvalues --   -0.35766  -0.35559  -0.35078  -0.34758  -0.34216
 Alpha  occ. eigenvalues --   -0.33733  -0.33105  -0.32749  -0.32374  -0.32156
 Alpha  occ. eigenvalues --   -0.30333  -0.30073  -0.29881  -0.29686  -0.27658
 Alpha  occ. eigenvalues --   -0.25318  -0.23033  -0.19714
 Alpha virt. eigenvalues --    0.03150   0.06163   0.07676   0.08194   0.09590
 Alpha virt. eigenvalues --    0.10490   0.11242   0.11509   0.12277   0.12350
 Alpha virt. eigenvalues --    0.13640   0.13945   0.14109   0.14628   0.15256

 Mulliken charges:
               1
     1  C   -0.419647
     2  C    0.249348
     3  C   -0.332841
     4  C   -0.441461
     5  C   -0.366285
     6  C    0.014519
     7  N   -0.589783
     8  C   -0.108070
     9  C   -0.260301
    10  C   -0.446364
    11  C    0.364356
    12  O   -0.526120
    13  C   -0.013523
    14  C   -0.470245
    15  C   -0.348028
    16  C   -0.283822
    17  C    0.133911
    18  C   -0.456317
    19  C   -0.457483
    20  C   -0.289337
    21  C   -0.291366
    22  H    0.125789
    23  H    0.140436
    24  H    0.137489
    25  H    0.134432
    26  H    0.160195
    27  H    0.149016
    28  H    0.136700
    29  H    0.156460
    30  H    0.157888
    31  H    0.127218
    32  H    0.296341
    33  H    0.107749
    34  H    0.153619
    35  H    0.122675
    36  H    0.145419
    37  H    0.144257
    38  H    0.141942
    39  H    0.145716
    40  H    0.144866
    41  H    0.123217
    42  H    0.142176
    43  H    0.153702
    44  H    0.157381
    45  H    0.132880
    46  H    0.148198
    47  H    0.131498
    48  H    0.129610
    49  H    0.141120
    50  H    0.137111
    51  H    0.135488
    52  H    0.138478
    53  H    0.136414
    54  H    0.140204
    55  H    0.137865
    56  H    0.128704
    57  H    0.133189
    58  H    0.163416
 Sum of Mulliken charges =  -0.00000

 Dipole moment (field-independent basis, Debye):
    X=             -0.9882    Y=             -0.4936    Z=              0.9289  Tot=              1.4433
 Quadrupole moment (field-independent basis, Debye-Ang):
   XX=           -134.1192   YY=           -133.3494   ZZ=           -134.8987
   XY=             -1.5103   XZ=             -1.4388   YZ=             -3.4517

 Normal termination of Gaussian 16 at Fri Nov  4 18:56:51 2022.
