 Gaussian 16, Revision B.01,
 Gaussian 16:  ES64L-G16RevB.01 20-Dec-2017

 -----------------------------
 #p b3lyp/6-31g(d) opt SCF=XQC
 -----------------------------

 ------------------------------
 Gaussian input prepared by ASE
 ------------------------------
 Symbolic Z-matrix:
 Charge =  0 Multiplicity = 1

 SCF Done:  E(RB3LYP) =  -825.273427821     A.U. after   14 cycles
 SCF Done:  E(RB3LYP) =  -825.277558839     A.U. after   12 cycles
 SCF Done:  E(RB3LYP) =  -825.278000587     A.U. after   11 cycles
 SCF Done:  E(RB3LYP) =  -825.278009143     A.U. after   11 cycles
 SCF Done:  E(RB3LYP) =  -825.278144817     A.U. after   10 cycles
 SCF Done:  E(RB3LYP) =  -825.278197925     A.U. after   10 cycles
 SCF Done:  E(RB3LYP) =  -825.278225692     A.U. after   10 cycles
 SCF Done:  E(RB3LYP) =  -825.278255787     A.U. after    9 cycles
 SCF Done:  E(RB3LYP) =  -825.278271492     A.U. after   10 cycles
 SCF Done:  E(RB3LYP) =  -825.278277514     A.U. after    9 cycles
 SCF Done:  E(RB3LYP) =  -825.278352320     A.U. after    9 cycles
 SCF Done:  E(RB3LYP) =  -825.278317375     A.U. after   11 cycles
 SCF Done:  E(RB3LYP) =  -825.278336983     A.U. after   11 cycles
 SCF Done:  E(RB3LYP) =  -825.278351780     A.U. after   10 cycles
 SCF Done:  E(RB3LYP) =  -825.278352893     A.U. after    8 cycles
 SCF Done:  E(RB3LYP) =  -825.278353180     A.U. after    8 cycles
 SCF Done:  E(RB3LYP) =  -825.278354082     A.U. after    9 cycles
 SCF Done:  E(RB3LYP) =  -825.278353909     A.U. after    8 cycles
 SCF Done:  E(RB3LYP) =  -825.278354085     A.U. after    9 cycles
 SCF Done:  E(RB3LYP) =  -825.278354129     A.U. after    7 cycles
 Optimization completed.
    -- Stationary point found.

                         Standard orientation:
 ---------------------------------------------------------------------
 Center     Atomic      Atomic             Coordinates (Angstroms)
 Number     Number       Type             X           Y           Z
 ---------------------------------------------------------------------
      1          6           0        0.232354   -1.087202    2.574060
      2          6           0       -0.592927   -0.630511    1.387023
      3          6           0       -1.931116   -0.251293    1.636707
      4          6           0       -2.714242    0.146150    0.574659
      5          6           0       -2.209992    0.186682   -0.717837
      6          6           0       -0.909389   -0.175182   -0.994839
      7          6           0       -0.081334   -0.598916    0.071226
      8          6           0        1.358968   -0.969931   -0.250131
      9          6           0        2.358114    0.179184    0.031111
     10          6           0        2.117019    1.469130   -0.761889
     11          6           0        3.129811    2.573086   -0.433024
     12          7           0        3.035544    2.970743    0.978246
     13          6           0        1.910269   -2.325230    0.282400
     14          8           0        2.422907   -2.676413   -1.018603
     15          6           0        1.639122   -1.632900   -1.631470
     16          8           0       -3.177859    0.652359   -1.580671
     17          6           0       -4.378068    0.712882   -0.802001
     18          8           0       -4.020740    0.581025    0.578779
     19          1           0       -0.224312   -0.750055    3.509860
     20          1           0        0.301792   -2.181381    2.627004
     21          1           0        1.254276   -0.698780    2.551693
     22          1           0       -2.332607   -0.272064    2.644936
     23          1           0       -0.535252   -0.128639   -2.011900
     24          1           0        2.354136    0.425570    1.097975
     25          1           0        3.365829   -0.197359   -0.196553
     26          1           0        2.164773    1.269793   -1.841652
     27          1           0        1.103720    1.845300   -0.565491
     28          1           0        4.147030    2.195708   -0.601517
     29          1           0        2.983446    3.409466   -1.140461
     30          1           0        3.761578    3.651462    1.195240
     31          1           0        2.147310    3.446183    1.136829
     32          1           0        2.702703   -2.280701    1.039524
     33          1           0        1.130555   -3.028084    0.606624
     34          1           0        0.745756   -2.041198   -2.123973
     35          1           0        2.223560   -1.056094   -2.358858
     36          1           0       -4.865680    1.678807   -0.960468
     37          1           0       -5.043421   -0.114586   -1.088531
 ---------------------------------------------------------------------

 The electronic state is 1-A.
 Alpha  occ. eigenvalues --  -19.19096 -19.19084 -19.13276 -14.31186 -10.30558
 Alpha  occ. eigenvalues --  -10.24475 -10.24417 -10.22590 -10.22550 -10.20631
 Alpha  occ. eigenvalues --  -10.20164 -10.19828 -10.19470 -10.19254 -10.19135
 Alpha  occ. eigenvalues --  -10.18280 -10.17838 -10.17684  -1.12347  -1.03248
 Alpha  occ. eigenvalues --   -1.03218  -0.87818  -0.86296  -0.80180  -0.77459
 Alpha  occ. eigenvalues --   -0.75364  -0.72093  -0.70489  -0.68486  -0.65904
 Alpha  occ. eigenvalues --   -0.64647  -0.62042  -0.60131  -0.58244  -0.54591
 Alpha  occ. eigenvalues --   -0.52069  -0.51899  -0.51155  -0.49149  -0.48582
 Alpha  occ. eigenvalues --   -0.48246  -0.45499  -0.44966  -0.44595  -0.44343
 Alpha  occ. eigenvalues --   -0.43050  -0.42275  -0.41253  -0.40513  -0.38736
 Alpha  occ. eigenvalues --   -0.38581  -0.38355  -0.38094  -0.37846  -0.36755
 Alpha  occ. eigenvalues --   -0.36092  -0.35247  -0.34592  -0.33640  -0.32790
 Alpha  occ. eigenvalues --   -0.30905  -0.30224  -0.28746  -0.24238  -0.23918
 Alpha  occ. eigenvalues --   -0.23273  -0.20060
 Alpha virt. eigenvalues --    0.00172   0.00974   0.07639   0.08417   0.09532
 Alpha virt. eigenvalues --    0.10126   0.10477   0.11187   0.11903   0.12831
 Alpha virt. eigenvalues --    0.12936   0.13611   0.14568   0.14643   0.15203

 Mulliken charges:
               1
     1  C   -0.543588
     2  C    0.120649
     3  C   -0.247194
     4  C    0.341396
     5  C    0.334537
     6  C   -0.250163
     7  C    0.079244
     8  C   -0.061869
     9  C   -0.271809
    10  C   -0.268400
    11  C   -0.137941
    12  N   -0.713572
    13  C   -0.020025
    14  O   -0.501573
    15  C   -0.023943
    16  O   -0.535594
    17  C    0.191326
    18  O   -0.534696
    19  H    0.156941
    20  H    0.164127
    21  H    0.168266
    22  H    0.137466
    23  H    0.142676
    24  H    0.170847
    25  H    0.138072
    26  H    0.126375
    27  H    0.140730
    28  H    0.138655
    29  H    0.114340
    30  H    0.297496
    31  H    0.293643
    32  H    0.137390
    33  H    0.131577
    34  H    0.132108
    35  H    0.136367
    36  H    0.163830
    37  H    0.152307
 Sum of Mulliken charges =  -0.00000

 Dipole moment (field-independent basis, Debye):
    X=             -1.1716    Y=              2.5930    Z=              0.3012  Tot=              2.8613
 Quadrupole moment (field-independent basis, Debye-Ang):
   XX=           -102.7484   YY=           -105.3925   ZZ=           -105.5809
   XY=              8.3896   XZ=              3.1714   YZ=             -4.0243

 Normal termination of Gaussian 16 at Fri Nov  4 19:07:24 2022.
