 Gaussian 16, Revision B.01,
 Gaussian 16:  ES64L-G16RevB.01 20-Dec-2017

 -------------------------------------------------------------------
 #p b3lyp/6-31g(d) 6D 10F nosymm GFInput td=(50-50,nstate=2) SCF=XQC
 -------------------------------------------------------------------

 ------------------------------
 Gaussian input prepared by ASE
 ------------------------------
 Symbolic Z-matrix:
 Charge =  0 Multiplicity = 1

                          Input orientation:
 ---------------------------------------------------------------------
 Center     Atomic      Atomic             Coordinates (Angstroms)
 Number     Number       Type             X           Y           Z
 ---------------------------------------------------------------------
      1          6           0        2.177803   -1.118565   -1.282502
      2          6           0        1.788492   -0.205901   -0.136119
      3          6           0        2.713059    0.795793    0.236285
      4          6           0        2.398508    1.626272    1.290114
      5          6           0        1.198142    1.499036    1.975235
      6          6           0        0.274631    0.533873    1.636364
      7          6           0        0.571037   -0.342724    0.566111
      8          6           0       -0.471667   -1.385177    0.190009
      9          6           0       -1.355713   -0.954190   -1.006054
     10          6           0       -2.167452    0.329351   -0.795009
     11          6           0       -3.013498    0.711117   -2.016107
     12          7           0       -2.162007    0.986643   -3.181332
     13          6           0       -0.015318   -2.865799    0.035529
     14          8           0       -1.089811   -3.329258    0.877793
     15          6           0       -1.334710   -1.985440    1.339336
     16          8           0        1.113970    2.468290    2.950717
     17          6           0        2.405696    3.085615    2.979777
     18          8           0        3.121023    2.678012    1.807689
     19          1           0        2.979779   -0.667475   -1.875197
     20          1           0        2.549123   -2.087835   -0.925446
     21          1           0        1.345146   -1.321255   -1.961689
     22          1           0        3.651060    0.908510   -0.298132
     23          1           0       -0.659937    0.458028    2.181696
     24          1           0       -0.737952   -0.827103   -1.901119
     25          1           0       -2.046177   -1.782607   -1.220733
     26          1           0       -2.839371    0.220338    0.067861
     27          1           0       -1.493683    1.162837   -0.553788
     28          1           0       -3.671117   -0.127644   -2.279841
     29          1           0       -3.673510    1.553382   -1.739709
     30          1           0       -2.742115    1.167856   -3.998784
     31          1           0       -1.631302    1.842005   -3.017442
     32          1           0       -0.062073   -3.301924   -0.969847
     33          1           0        0.964138   -3.080426    0.484615
     34          1           0       -0.919355   -1.826213    2.344073
     35          1           0       -2.404758   -1.743941    1.345916
     36          1           0        2.288980    4.172923    2.974427
     37          1           0        2.950942    2.753599    3.875304
 ---------------------------------------------------------------------

 SCF Done:  E(RB3LYP) =  -825.278343187     A.U. after   14 cycles

 Excitation energies and oscillator strengths:

 Excited state symmetry could not be determined.
 Excited State   1:      Triplet-?Sym    3.4889 eV  355.36 nm  f=0.0000  <S**2>=2.000
      64 -> 68         0.21013
      65 -> 68        -0.23684
      67 -> 69         0.61981
 This state for optimization and/or second-order correction.
 Total Energy, E(TD-HF/TD-DFT) =  -825.150127135
 Copying the excited state density for this state as the 1-particle RhoCI density.

 Excited state symmetry could not be determined.
 Excited State   2:      Triplet-?Sym    3.8839 eV  319.23 nm  f=0.0000  <S**2>=2.000
      67 -> 68         0.69866

 Excited state symmetry could not be determined.
 Excited State   3:      Singlet-?Sym    4.8308 eV  256.65 nm  f=0.0822  <S**2>=0.000
      64 -> 69        -0.19464
      65 -> 69         0.22850
      67 -> 68         0.63850

 Excited state symmetry could not be determined.
 Excited State   4:      Singlet-?Sym    5.3041 eV  233.75 nm  f=0.0677  <S**2>=0.000
      64 -> 68         0.12194
      65 -> 68        -0.14022
      67 -> 69         0.67594

 Alpha  occ. eigenvalues --  -19.19096 -19.19084 -19.13276 -14.31186 -10.30559
 Alpha  occ. eigenvalues --  -10.24475 -10.24417 -10.22590 -10.22550 -10.20631
 Alpha  occ. eigenvalues --  -10.20164 -10.19828 -10.19470 -10.19254 -10.19135
 Alpha  occ. eigenvalues --  -10.18280 -10.17838 -10.17684  -1.12347  -1.03248
 Alpha  occ. eigenvalues --   -1.03218  -0.87818  -0.86296  -0.80180  -0.77459
 Alpha  occ. eigenvalues --   -0.75364  -0.72093  -0.70489  -0.68486  -0.65904
 Alpha  occ. eigenvalues --   -0.64647  -0.62042  -0.60131  -0.58244  -0.54591
 Alpha  occ. eigenvalues --   -0.52069  -0.51899  -0.51155  -0.49149  -0.48582
 Alpha  occ. eigenvalues --   -0.48246  -0.45499  -0.44966  -0.44595  -0.44343
 Alpha  occ. eigenvalues --   -0.43050  -0.42275  -0.41253  -0.40513  -0.38736
 Alpha  occ. eigenvalues --   -0.38581  -0.38355  -0.38094  -0.37846  -0.36755
 Alpha  occ. eigenvalues --   -0.36092  -0.35247  -0.34592  -0.33640  -0.32790
 Alpha  occ. eigenvalues --   -0.30905  -0.30224  -0.28746  -0.24238  -0.23918
 Alpha  occ. eigenvalues --   -0.23273  -0.20060
 Alpha virt. eigenvalues --    0.00172   0.00974   0.07639   0.08417   0.09532
 Alpha virt. eigenvalues --    0.10126   0.10476   0.11187   0.11903   0.12831
 Alpha virt. eigenvalues --    0.12936   0.13611   0.14568   0.14643   0.15204

 Mulliken charges:
               1
     1  C   -0.543576
     2  C    0.120676
     3  C   -0.247189
     4  C    0.341390
     5  C    0.334533
     6  C   -0.250166
     7  C    0.079193
     8  C   -0.061806
     9  C   -0.271818
    10  C   -0.268409
    11  C   -0.137929
    12  N   -0.713576
    13  C   -0.020038
    14  O   -0.501572
    15  C   -0.023955
    16  O   -0.535587
    17  C    0.191331
    18  O   -0.534703
    19  H    0.156938
    20  H    0.164123
    21  H    0.168259
    22  H    0.137466
    23  H    0.142677
    24  H    0.170847
    25  H    0.138070
    26  H    0.126375
    27  H    0.140733
    28  H    0.138654
    29  H    0.114339
    30  H    0.297496
    31  H    0.293642
    32  H    0.137391
    33  H    0.131578
    34  H    0.132108
    35  H    0.136366
    36  H    0.163830
    37  H    0.152308
 Sum of Mulliken charges =  -0.00000

 Dipole moment (field-independent basis, Debye):
    X=              0.0726    Y=              2.7898    Z=             -0.6318  Tot=              2.8613
 Quadrupole moment (field-independent basis, Debye-Ang):
   XX=           -101.2714   YY=           -110.5975   ZZ=           -101.5252
   XY=             -4.8301   XZ=              5.1383   YZ=              3.3562

 Normal termination of Gaussian 16 at Sat Nov  5 11:32:32 2022.
