 Gaussian 16, Revision B.01,
 Gaussian 16:  ES64L-G16RevB.01 20-Dec-2017

 -------------------------------------------------------------------
 #p b3lyp/6-31g(d) 6D 10F nosymm GFInput td=(50-50,nstate=2) SCF=XQC
 -------------------------------------------------------------------

 ------------------------------
 Gaussian input prepared by ASE
 ------------------------------
 Symbolic Z-matrix:
 Charge =  0 Multiplicity = 1

                          Input orientation:
 ---------------------------------------------------------------------
 Center     Atomic      Atomic             Coordinates (Angstroms)
 Number     Number       Type             X           Y           Z
 ---------------------------------------------------------------------
      1          6           0       -7.627594    0.391212    4.530194
      2          6           0       -7.934864   -0.075198    3.104524
      3          7           0       -8.281369    1.056447    2.227493
      4          6           0       -7.105321    1.758463    1.699922
      5          6           0       -7.352902    3.239223    1.398588
      6          6           0       -9.324428    0.829363    1.229087
      7          6           0       -8.924315   -0.142196    0.090742
      8          8           0       -8.129602   -1.073409    0.297234
      9          7           0       -9.480196    0.056276   -1.131658
     10          6           0      -10.449831    1.103444   -1.508904
     11          6           0      -10.662233    0.875721   -3.012814
     12          6           0      -10.436396   -0.633249   -3.188806
     13          6           0       -9.282205   -0.941142   -2.222043
     14          6           0       -7.925238   -0.816374   -2.865983
     15          7           0       -7.668894   -0.490306   -4.122352
     16          6           0       -6.301539   -0.524056   -4.228444
     17          6           0       -5.710365   -0.871744   -3.023269
     18          6           0       -4.315015   -1.019272   -2.623367
     19          6           0       -3.297102   -1.060710   -3.624742
     20          6           0       -1.973793   -1.190840   -3.288393
     21          6           0       -1.565170   -1.293807   -1.929371
     22          6           0       -0.208175   -1.435015   -1.552226
     23          6           0        0.176158   -1.540360   -0.223479
     24          6           0        1.600567   -1.685999    0.158328
     25          6           0        1.987527   -2.486507    1.248688
     26          6           0        3.322896   -2.635091    1.600223
     27          6           0        4.341535   -1.979244    0.884589
     28          6           0        5.739511   -2.136856    1.272932
     29          6           0        6.337990   -2.622537    2.424835
     30          7           0        7.704592   -2.560711    2.340506
     31          6           0        7.955755   -2.038429    1.151634
     32          6           0        9.317990   -1.840091    0.536058
     33          6           0       10.458299   -2.148565    1.519545
     34          6           0       10.894393   -0.775656    2.064996
     35          6           0       12.276536   -0.763671    2.782308
     36          8           0       11.995756   -0.367904    4.119254
     37          6           0       10.616041   -0.611899    4.303693
     38          8           0        9.999714   -0.299385    3.076644
     39          6           0       10.744084    0.141126    0.849365
     40          7           0        9.600903   -0.430511    0.119682
     41          6           0        9.022779    0.097422   -0.983407
     42          8           0        8.149868   -0.508728   -1.626644
     43          6           0        9.443904    1.510437   -1.415707
     44          7           0        9.225455    1.617271   -2.848178
     45          6           0       10.244451    1.975752   -3.685866
     46          8           0       11.313635    2.451663   -3.342236
     47          8           0        9.884567    1.750925   -4.976567
     48          6           0       10.865385    2.135684   -5.947930
     49          6           0        8.672907    2.600580   -0.605677
     50          6           0        7.156751    2.547510   -0.838992
     51          6           0        9.235391    3.992706   -0.924590
     52          7           0        6.805595   -1.771049    0.471739
     53          6           0        3.956990   -1.173450   -0.202285
     54          6           0        2.619548   -1.033170   -0.555797
     55          6           0       -0.841847   -1.506078    0.775068
     56          6           0       -2.167967   -1.370926    0.441086
     57          6           0       -2.575740   -1.262075   -0.916140
     58          6           0       -3.933540   -1.119091   -1.292861
     59          7           0       -6.780955   -1.056805   -2.167961
     60          6           0      -10.650627    0.414355    1.871312
     61          6           0      -11.166950   -0.883383    1.776222
     62          6           0      -12.383277   -1.210752    2.382297
     63          6           0      -13.095636   -0.245743    3.092857
     64          6           0      -12.583545    1.050347    3.200762
     65          6           0      -11.371356    1.374938    2.595324
     66          1           0       -8.496327    0.898216    4.962981
     67          1           0       -7.370927   -0.466062    5.164380
     68          1           0       -6.782203    1.088780    4.562461
     69          1           0       -8.785154   -0.759998    3.133546
     70          1           0       -7.093076   -0.653224    2.696418
     71          1           0       -6.326123    1.694588    2.465702
     72          1           0       -6.695653    1.253540    0.806340
     73          1           0       -7.737164    3.751187    2.287182
     74          1           0       -6.416713    3.721682    1.095254
     75          1           0       -8.069520    3.391700    0.583120
     76          1           0       -9.504108    1.805598    0.767245
     77          1           0      -10.054349    2.101900   -1.295147
     78          1           0      -11.382315    0.978986   -0.943669
     79          1           0       -9.910450    1.424759   -3.588530
     80          1           0      -11.652981    1.205154   -3.339077
     81          1           0      -10.179909   -0.904237   -4.213848
     82          1           0      -11.326450   -1.194351   -2.882208
     83          1           0       -9.369069   -1.937274   -1.774075
     84          1           0       -5.810878   -0.282108   -5.161538
     85          1           0       -3.583091   -1.001525   -4.670472
     86          1           0       -1.215373   -1.223107   -4.067177
     87          1           0        0.542005   -1.488840   -2.337377
     88          1           0        1.231528   -3.030737    1.807715
     89          1           0        3.585650   -3.287201    2.428137
     90          1           0        5.851381   -2.993685    3.316736
     91          1           0        9.383456   -2.458539   -0.367245
     92          1           0       10.125714   -2.818092    2.314451
     93          1           0       11.297387   -2.612142    0.987830
     94          1           0       12.739328   -1.760644    2.755385
     95          1           0       12.977924   -0.041166    2.352314
     96          1           0       10.434003   -1.665695    4.576036
     97          1           0       10.231360    0.055642    5.077664
     98          1           0       10.556122    1.167069    1.171220
     99          1           0       11.651179    0.120170    0.229663
    100          1           0       10.514706    1.659089   -1.250306
    101          1           0        8.494420    1.023933   -3.223317
    102          1           0       10.423732    1.895921   -6.916097
    103          1           0       11.795219    1.578423   -5.804403
    104          1           0       11.079783    3.205829   -5.880701
    105          1           0        8.857417    2.392127    0.457826
    106          1           0        6.729050    1.580151   -0.557334
    107          1           0        6.657391    3.320002   -0.244047
    108          1           0        6.918469    2.732175   -1.892645
    109          1           0        8.737844    4.753872   -0.312968
    110          1           0        9.072656    4.246537   -1.977433
    111          1           0       10.312471    4.049141   -0.732672
    112          1           0        6.806586   -1.400719   -0.474503
    113          1           0        4.706638   -0.624331   -0.766309
    114          1           0        2.356987   -0.378319   -1.381808
    115          1           0       -0.555431   -1.560179    1.821411
    116          1           0       -2.925717   -1.336730    1.220530
    117          1           0       -4.677538   -1.073725   -0.500702
    118          1           0       -6.792550   -1.297413   -1.179945
    119          1           0      -10.610566   -1.648255    1.241755
    120          1           0      -12.768365   -2.223776    2.300693
    121          1           0      -14.041870   -0.500121    3.562834
    122          1           0      -13.130461    1.808227    3.755596
    123          1           0      -10.965561    2.378927    2.689890
 ---------------------------------------------------------------------

 SCF Done:  E(RB3LYP) =  -2867.79383957     A.U. after   14 cycles

 Excitation energies and oscillator strengths:

 Excited state symmetry could not be determined.
 Excited State   1:      Triplet-?Sym    2.3352 eV  530.93 nm  f=0.0000  <S**2>=2.000
     231 -> 235       -0.17546
     231 -> 236        0.16279
     232 -> 235        0.10822
     234 -> 235        0.60915
 This state for optimization and/or second-order correction.
 Total Energy, E(TD-HF/TD-DFT) =  -2867.70802162
 Copying the excited state density for this state as the 1-particle RhoCI density.

 Excited state symmetry could not be determined.
 Excited State   2:      Triplet-?Sym    2.8406 eV  436.48 nm  f=0.0000  <S**2>=2.000
     228 -> 241        0.12156
     232 -> 235       -0.25940
     233 -> 235        0.37820
     233 -> 236        0.14240
     234 -> 235        0.11502
     234 -> 236        0.33378
     234 -> 238       -0.23134

 Excited state symmetry could not be determined.
 Excited State   3:      Singlet-?Sym    3.3867 eV  366.09 nm  f=1.2161  <S**2>=0.000
     234 -> 235        0.69777

 Excited state symmetry could not be determined.
 Excited State   4:      Singlet-?Sym    3.7750 eV  328.44 nm  f=0.1959  <S**2>=0.000
     231 -> 235       -0.32754
     234 -> 236        0.57831
     234 -> 238        0.12274

 Alpha  occ. eigenvalues --  -19.18569 -19.16355 -19.16236 -19.13720 -19.12343
 Alpha  occ. eigenvalues --  -19.11864 -14.38618 -14.37541 -14.37256 -14.37244
 Alpha  occ. eigenvalues --  -14.35716 -14.32247 -14.30890 -14.30724 -10.32997
 Alpha  occ. eigenvalues --  -10.30468 -10.28970 -10.28337 -10.26729 -10.25067
 Alpha  occ. eigenvalues --  -10.25054 -10.24474 -10.23991 -10.23955 -10.23935
 Alpha  occ. eigenvalues --  -10.23781 -10.23604 -10.23366 -10.23053 -10.21558
 Alpha  occ. eigenvalues --  -10.21423 -10.20612 -10.20412 -10.20408 -10.20390
 Alpha  occ. eigenvalues --  -10.20282 -10.20233 -10.19738 -10.19663 -10.19579
 Alpha  occ. eigenvalues --  -10.19542 -10.19508 -10.19493 -10.19477 -10.19432
 Alpha  occ. eigenvalues --  -10.19430 -10.19380 -10.19341 -10.19316 -10.19266
 Alpha  occ. eigenvalues --  -10.19254 -10.19108 -10.18994 -10.18942 -10.18920
 Alpha  occ. eigenvalues --  -10.18917 -10.18874 -10.18868 -10.18861 -10.18797
 Alpha  occ. eigenvalues --  -10.18733 -10.17655 -10.17603 -10.17445 -10.16503
 Alpha  occ. eigenvalues --   -1.10030  -1.09946  -1.05511  -1.04083  -1.00887
 Alpha  occ. eigenvalues --   -1.00657  -1.00566  -1.00551  -0.95929  -0.94795
 Alpha  occ. eigenvalues --   -0.92962  -0.91801  -0.87537  -0.86786  -0.86219
 Alpha  occ. eigenvalues --   -0.85727  -0.85443  -0.82623  -0.82389  -0.80640
 Alpha  occ. eigenvalues --   -0.80589  -0.79431  -0.78157  -0.77660  -0.77478
 Alpha  occ. eigenvalues --   -0.76420  -0.75456  -0.74830  -0.74683  -0.74420
 Alpha  occ. eigenvalues --   -0.73697  -0.72487  -0.72270  -0.72144  -0.71526
 Alpha  occ. eigenvalues --   -0.69752  -0.69461  -0.68542  -0.68473  -0.66005
 Alpha  occ. eigenvalues --   -0.65144  -0.64311  -0.63560  -0.62470  -0.61827
 Alpha  occ. eigenvalues --   -0.61471  -0.61248  -0.60889  -0.60487  -0.60025
 Alpha  occ. eigenvalues --   -0.59766  -0.59611  -0.59575  -0.59222  -0.58695
 Alpha  occ. eigenvalues --   -0.58383  -0.58200  -0.57078  -0.56161  -0.55793
 Alpha  occ. eigenvalues --   -0.55176  -0.54895  -0.54369  -0.53400  -0.52224
 Alpha  occ. eigenvalues --   -0.52200  -0.51872  -0.51047  -0.50490  -0.50212
 Alpha  occ. eigenvalues --   -0.50106  -0.49851  -0.48965  -0.48652  -0.48089
 Alpha  occ. eigenvalues --   -0.47913  -0.47666  -0.47506  -0.47125  -0.46897
 Alpha  occ. eigenvalues --   -0.46414  -0.46101  -0.46012  -0.45694  -0.45507
 Alpha  occ. eigenvalues --   -0.45116  -0.45030  -0.44483  -0.44445  -0.44160
 Alpha  occ. eigenvalues --   -0.44038  -0.43685  -0.43357  -0.43193  -0.42996
 Alpha  occ. eigenvalues --   -0.42790  -0.42674  -0.42618  -0.42401  -0.42353
 Alpha  occ. eigenvalues --   -0.42052  -0.41821  -0.41528  -0.41489  -0.41419
 Alpha  occ. eigenvalues --   -0.41251  -0.41037  -0.40749  -0.40714  -0.40418
 Alpha  occ. eigenvalues --   -0.40026  -0.39969  -0.39628  -0.39378  -0.39230
 Alpha  occ. eigenvalues --   -0.38609  -0.38541  -0.38444  -0.38345  -0.37708
 Alpha  occ. eigenvalues --   -0.37531  -0.37428  -0.37306  -0.36793  -0.36550
 Alpha  occ. eigenvalues --   -0.36491  -0.36381  -0.36013  -0.35894  -0.35876
 Alpha  occ. eigenvalues --   -0.35437  -0.34964  -0.34799  -0.34714  -0.34532
 Alpha  occ. eigenvalues --   -0.34393  -0.34222  -0.34079  -0.33955  -0.33802
 Alpha  occ. eigenvalues --   -0.33683  -0.33646  -0.33348  -0.32986  -0.32494
 Alpha  occ. eigenvalues --   -0.32431  -0.29524  -0.28893  -0.28547  -0.28224
 Alpha  occ. eigenvalues --   -0.28136  -0.27373  -0.27242  -0.27040  -0.26870
 Alpha  occ. eigenvalues --   -0.26675  -0.26656  -0.26498  -0.25931  -0.25593
 Alpha  occ. eigenvalues --   -0.25279  -0.25227  -0.25103  -0.24924  -0.24568
 Alpha  occ. eigenvalues --   -0.22099  -0.20563  -0.20185  -0.18585
 Alpha virt. eigenvalues --   -0.04875  -0.02486  -0.01303  -0.00871  -0.00539
 Alpha virt. eigenvalues --   -0.00396  -0.00108   0.01096   0.02822   0.04191
 Alpha virt. eigenvalues --    0.04570   0.05145   0.06290   0.06634   0.06733

 Mulliken charges:
               1
     1  C   -0.440024
     2  C   -0.122207
     3  N   -0.373827
     4  C   -0.123493
     5  C   -0.449743
     6  C   -0.130017
     7  C    0.596089
     8  O   -0.574510
     9  N   -0.429665
    10  C   -0.128938
    11  C   -0.305740
    12  C   -0.291345
    13  C   -0.065243
    14  C    0.513906
    15  N   -0.502767
    16  C   -0.081370
    17  C    0.269200
    18  C    0.134502
    19  C   -0.178147
    20  C   -0.201016
    21  C    0.145210
    22  C   -0.262778
    23  C    0.093560
    24  C    0.094406
    25  C   -0.186619
    26  C   -0.183247
    27  C    0.134853
    28  C    0.269200
    29  C   -0.076098
    30  N   -0.496238
    31  C    0.527479
    32  C   -0.059729
    33  C   -0.329070
    34  C    0.256978
    35  C   -0.059091
    36  O   -0.475267
    37  C    0.186108
    38  O   -0.484186
    39  C   -0.149609
    40  N   -0.452744
    41  C    0.617483
    42  O   -0.576959
    43  C   -0.061355
    44  N   -0.617464
    45  C    0.787814
    46  O   -0.525562
    47  O   -0.478759
    48  C   -0.208447
    49  C   -0.077594
    50  C   -0.461013
    51  C   -0.446568
    52  N   -0.700525
    53  C   -0.200140
    54  C   -0.177885
    55  C   -0.179827
    56  C   -0.200276
    57  C    0.150269
    58  C   -0.283676
    59  N   -0.695504
    60  C    0.135247
    61  C   -0.178384
    62  C   -0.138116
    63  C   -0.124772
    64  C   -0.133760
    65  C   -0.162088
    66  H    0.149863
    67  H    0.136406
    68  H    0.139112
    69  H    0.149808
    70  H    0.136547
    71  H    0.144437
    72  H    0.127726
    73  H    0.154033
    74  H    0.147199
    75  H    0.139544
    76  H    0.143411
    77  H    0.162215
    78  H    0.165612
    79  H    0.178724
    80  H    0.151028
    81  H    0.188574
    82  H    0.143107
    83  H    0.171690
    84  H    0.133720
    85  H    0.134686
    86  H    0.131020
    87  H    0.131550
    88  H    0.134438
    89  H    0.134772
    90  H    0.133674
    91  H    0.176699
    92  H    0.205930
    93  H    0.145928
    94  H    0.144834
    95  H    0.155809
    96  H    0.135054
    97  H    0.161287
    98  H    0.189053
    99  H    0.165342
   100  H    0.178635
   101  H    0.353825
   102  H    0.162462
   103  H    0.166603
   104  H    0.168402
   105  H    0.139068
   106  H    0.154278
   107  H    0.149334
   108  H    0.153201
   109  H    0.144068
   110  H    0.160160
   111  H    0.151966
   112  H    0.378043
   113  H    0.132810
   114  H    0.133870
   115  H    0.132278
   116  H    0.131481
   117  H    0.132787
   118  H    0.378930
   119  H    0.150430
   120  H    0.133382
   121  H    0.131871
   122  H    0.132658
   123  H    0.135728
 Sum of Mulliken charges =  -0.00000

 Dipole moment (field-independent basis, Debye):
    X=             -1.5532    Y=              1.0643    Z=             -0.1151  Tot=              1.8864
 Quadrupole moment (field-independent basis, Debye-Ang):
   XX=           -302.1711   YY=           -380.3743   ZZ=           -378.2734
   XY=            -20.4604   XZ=            -22.7030   YZ=             -2.5278

 Normal termination of Gaussian 16 at Sat Nov  5 12:31:33 2022.
