 Gaussian 16, Revision B.01,
 Gaussian 16:  ES64L-G16RevB.01 20-Dec-2017

 -----------------------------
 #p b3lyp/6-31g(d) opt SCF=XQC
 -----------------------------

 ------------------------------
 Gaussian input prepared by ASE
 ------------------------------
 Symbolic Z-matrix:
 Charge =  0 Multiplicity = 1

 SCF Done:  E(RB3LYP) =  -2867.77510050     A.U. after   14 cycles
 SCF Done:  E(RB3LYP) =  -2867.79030006     A.U. after   13 cycles
 SCF Done:  E(RB3LYP) =  -2867.78963068     A.U. after   12 cycles
 SCF Done:  E(RB3LYP) =  -2867.79276937     A.U. after   12 cycles
 SCF Done:  E(RB3LYP) =  -2867.79318680     A.U. after   12 cycles
 SCF Done:  E(RB3LYP) =  -2867.79328162     A.U. after   11 cycles
 SCF Done:  E(RB3LYP) =  -2867.79361022     A.U. after   11 cycles
 SCF Done:  E(RB3LYP) =  -2867.79370834     A.U. after   11 cycles
 SCF Done:  E(RB3LYP) =  -2867.79376007     A.U. after   10 cycles
 SCF Done:  E(RB3LYP) =  -2867.79378427     A.U. after    9 cycles
 SCF Done:  E(RB3LYP) =  -2867.79384000     A.U. after    7 cycles
 SCF Done:  E(RB3LYP) =  -2867.79384050     A.U. after    9 cycles
 SCF Done:  E(RB3LYP) =  -2867.79384084     A.U. after    7 cycles
 SCF Done:  E(RB3LYP) =  -2867.79384125     A.U. after    7 cycles
 SCF Done:  E(RB3LYP) =  -2867.79384142     A.U. after    7 cycles
 SCF Done:  E(RB3LYP) =  -2867.79384155     A.U. after    7 cycles
 SCF Done:  E(RB3LYP) =  -2867.79384170     A.U. after    7 cycles
 SCF Done:  E(RB3LYP) =  -2867.79384176     A.U. after    7 cycles
 SCF Done:  E(RB3LYP) =  -2867.79384180     A.U. after    6 cycles
 SCF Done:  E(RB3LYP) =  -2867.79384182     A.U. after    6 cycles
 Optimization completed.
    -- Stationary point found.

                         Standard orientation:
 ---------------------------------------------------------------------
 Center     Atomic      Atomic             Coordinates (Angstroms)
 Number     Number       Type             X           Y           Z
 ---------------------------------------------------------------------
      1          6           0       -7.971992   -4.332179    1.586611
      2          6           0       -8.265418   -3.035355    0.827245
      3          7           0       -8.597060   -1.932974    1.746288
      4          6           0       -7.412077   -1.281713    2.317181
      5          6           0       -7.649665   -0.668390    3.699981
      6          6           0       -9.629919   -0.993743    1.313391
      7          6           0       -9.221474   -0.093794    0.120448
      8          8           0       -8.433281   -0.503670   -0.746800
      9          7           0       -9.762791    1.149300    0.054521
     10          6           0      -10.723472    1.752803    0.998950
     11          6           0      -10.920098    3.175875    0.455882
     12          6           0      -10.699052    3.023084   -1.056322
     13          6           0       -9.557104    1.999274   -1.153047
     14          6           0       -8.192495    2.638877   -1.171295
     15          7           0       -7.920697    3.932760   -1.121427
     16          6           0       -6.552407    4.012992   -1.179754
     17          6           0       -5.976275    2.754460   -1.263350
     18          6           0       -4.586145    2.315778   -1.324882
     19          6           0       -3.557319    3.273102   -1.581129
     20          6           0       -2.238439    2.901071   -1.639086
     21          6           0       -1.845467    1.546639   -1.450401
     22          6           0       -0.493407    1.131990   -1.510541
     23          6           0       -0.124397   -0.193086   -1.330594
     24          6           0        1.295000   -0.614034   -1.394199
     25          6           0        1.666193   -1.854623   -1.944282
     26          6           0        2.996880   -2.245571   -2.017050
     27          6           0        4.026358   -1.418580   -1.531093
     28          6           0        5.419197   -1.848154   -1.604949
     29          6           0        6.002613   -3.084182   -1.834744
     30          7           0        7.370333   -3.004805   -1.795051
     31          6           0        7.637074   -1.734921   -1.539074
     32          6           0        9.006963   -1.107388   -1.479404
     33          6           0       10.134841   -2.147495   -1.573098
     34          6           0       10.570949   -2.392507   -0.116268
     35          6           0       11.945043   -3.107066    0.045815
     36          8           0       11.651136   -4.325323    0.718393
     37          6           0       10.268373   -4.541220    0.522125
     38          8           0        9.667176   -3.268528    0.566738
     39          6           0       10.438307   -1.007532    0.520199
     40          7           0        9.300796   -0.403161   -0.191751
     41          6           0        8.737377    0.793957    0.089702
     42          8           0        7.868999    1.303312   -0.638049
     43          6           0        9.169604    1.512836    1.377037
     44          7           0        8.967629    2.937591    1.176076
     45          6           0        9.997497    3.820347    1.345467
     46          8           0       11.064896    3.573554    1.881639
     47          8           0        9.651035    5.037503    0.851030
     48          6           0       10.644337    6.056907    1.017636
     49          6           0        8.394495    0.963318    2.616486
     50          6           0        6.880814    1.197885    2.517841
     51          6           0        8.966713    1.565296    3.907338
     52          7           0        6.495776   -1.000044   -1.420704
     53          6           0        3.657564   -0.180297   -0.975108
     54          6           0        2.324789    0.210835   -0.910869
     55          6           0       -1.153315   -1.149175   -1.081940
     56          6           0       -2.475009   -0.778350   -1.018565
     57          6           0       -2.867126    0.575573   -1.201120
     58          6           0       -4.219987    0.990196   -1.139154
     59          7           0       -7.057155    1.892112   -1.259456
     60          6           0      -10.965041   -1.693976    1.047662
     61          6           0      -11.486061   -1.871924   -0.239439
     62          6           0      -12.710523   -2.519442   -0.427483
     63          6           0      -13.426449   -2.999188    0.668366
     64          6           0      -12.909811   -2.834062    1.956601
     65          6           0      -11.689505   -2.187711    2.142076
     66          1           0       -8.843227   -4.636465    2.176030
     67          1           0       -7.726247   -5.137708    0.883957
     68          1           0       -7.123907   -4.224848    2.273313
     69          1           0       -9.119028   -3.199776    0.166108
     70          1           0       -7.421719   -2.770017    0.173763
     71          1           0       -6.641763   -2.052662    2.416694
     72          1           0       -6.994724   -0.521396    1.632346
     73          1           0       -8.041527   -1.422632    4.390580
     74          1           0       -6.708006   -0.280198    4.104717
     75          1           0       -8.356453    0.169267    3.676298
     76          1           0       -9.800075   -0.332100    2.168899
     77          1           0      -10.325945    1.752386    2.019236
     78          1           0      -11.662750    1.185122    0.999860
     79          1           0      -10.159495    3.846549    0.867886
     80          1           0      -11.905663    3.576647    0.710042
     81          1           0      -10.432359    3.963563   -1.540372
     82          1           0      -11.594968    2.614373   -1.537283
     83          1           0       -9.653408    1.350098   -2.030426
     84          1           0       -6.050292    4.970342   -1.143527
     85          1           0       -3.831357    4.310685   -1.745957
     86          1           0       -1.471530    3.645981   -1.838348
     87          1           0        0.265237    1.878617   -1.732205
     88          1           0        0.901582   -2.507917   -2.355143
     89          1           0        3.247467   -3.196637   -2.477929
     90          1           0        5.504432   -4.028912   -2.005993
     91          1           0        9.079741   -0.357724   -2.276540
     92          1           0        9.790422   -3.062976   -2.056858
     93          1           0       10.977729   -1.736948   -2.141149
     94          1           0       12.403650   -3.299020   -0.934843
     95          1           0       12.654404   -2.541127    0.658494
     96          1           0       10.078605   -5.030008   -0.448890
     97          1           0        9.878066   -5.150280    1.340248
     98          1           0       10.251348   -1.100769    1.591570
     99          1           0       11.352156   -0.417376    0.365651
    100          1           0       10.239148    1.370290    1.555447
    101          1           0        8.238182    3.186096    0.517787
    102          1           0       10.212446    6.956764    0.577615
    103          1           0       11.570014    5.786747    0.502014
    104          1           0       10.862748    6.217077    2.077041
    105          1           0        8.566196   -0.122281    2.639481
    106          1           0        6.445681    0.721356    1.633747
    107          1           0        6.378302    0.787470    3.400511
    108          1           0        6.655128    2.269422    2.473816
    109          1           0        8.465776    1.136152    4.782498
    110          1           0        8.816868    2.649909    3.930907
    111          1           0       10.041825    1.377093    4.001303
    112          1           0        6.508977    0.003353   -1.260891
    113          1           0        4.415903    0.478998   -0.560524
    114          1           0        2.074387    1.160623   -0.446907
    115          1           0       -0.878834   -2.186277   -0.912016
    116          1           0       -3.241248   -1.523502   -0.817281
    117          1           0       -4.972566    0.234844   -0.924270
    118          1           0       -7.080846    0.875718   -1.283599
    119          1           0      -10.927170   -1.519638   -1.101868
    120          1           0      -13.099197   -2.651355   -1.433814
    121          1           0      -14.378993   -3.501378    0.522045
    122          1           0      -13.459493   -3.207847    2.816528
    123          1           0      -11.280311   -2.070633    3.142305
 ---------------------------------------------------------------------

 The electronic state is 1-A.
 Alpha  occ. eigenvalues --  -19.18569 -19.16355 -19.16236 -19.13720 -19.12343
 Alpha  occ. eigenvalues --  -19.11864 -14.38618 -14.37541 -14.37256 -14.37243
 Alpha  occ. eigenvalues --  -14.35716 -14.32248 -14.30890 -14.30724 -10.32997
 Alpha  occ. eigenvalues --  -10.30468 -10.28970 -10.28337 -10.26729 -10.25067
 Alpha  occ. eigenvalues --  -10.25054 -10.24474 -10.23991 -10.23955 -10.23935
 Alpha  occ. eigenvalues --  -10.23781 -10.23604 -10.23366 -10.23053 -10.21558
 Alpha  occ. eigenvalues --  -10.21423 -10.20612 -10.20412 -10.20408 -10.20390
 Alpha  occ. eigenvalues --  -10.20282 -10.20233 -10.19738 -10.19663 -10.19579
 Alpha  occ. eigenvalues --  -10.19542 -10.19507 -10.19493 -10.19477 -10.19432
 Alpha  occ. eigenvalues --  -10.19430 -10.19380 -10.19341 -10.19316 -10.19266
 Alpha  occ. eigenvalues --  -10.19254 -10.19108 -10.18994 -10.18942 -10.18920
 Alpha  occ. eigenvalues --  -10.18917 -10.18874 -10.18868 -10.18861 -10.18797
 Alpha  occ. eigenvalues --  -10.18734 -10.17655 -10.17603 -10.17445 -10.16503
 Alpha  occ. eigenvalues --   -1.10030  -1.09946  -1.05511  -1.04083  -1.00887
 Alpha  occ. eigenvalues --   -1.00657  -1.00566  -1.00551  -0.95929  -0.94795
 Alpha  occ. eigenvalues --   -0.92962  -0.91801  -0.87537  -0.86786  -0.86219
 Alpha  occ. eigenvalues --   -0.85727  -0.85443  -0.82623  -0.82389  -0.80640
 Alpha  occ. eigenvalues --   -0.80589  -0.79431  -0.78157  -0.77660  -0.77478
 Alpha  occ. eigenvalues --   -0.76420  -0.75456  -0.74830  -0.74683  -0.74420
 Alpha  occ. eigenvalues --   -0.73697  -0.72487  -0.72270  -0.72144  -0.71526
 Alpha  occ. eigenvalues --   -0.69752  -0.69461  -0.68542  -0.68473  -0.66005
 Alpha  occ. eigenvalues --   -0.65144  -0.64311  -0.63560  -0.62470  -0.61827
 Alpha  occ. eigenvalues --   -0.61471  -0.61248  -0.60889  -0.60487  -0.60025
 Alpha  occ. eigenvalues --   -0.59766  -0.59611  -0.59575  -0.59222  -0.58695
 Alpha  occ. eigenvalues --   -0.58383  -0.58200  -0.57078  -0.56161  -0.55793
 Alpha  occ. eigenvalues --   -0.55176  -0.54895  -0.54369  -0.53400  -0.52224
 Alpha  occ. eigenvalues --   -0.52200  -0.51872  -0.51047  -0.50490  -0.50212
 Alpha  occ. eigenvalues --   -0.50106  -0.49851  -0.48965  -0.48652  -0.48089
 Alpha  occ. eigenvalues --   -0.47913  -0.47666  -0.47506  -0.47125  -0.46897
 Alpha  occ. eigenvalues --   -0.46414  -0.46101  -0.46012  -0.45694  -0.45507
 Alpha  occ. eigenvalues --   -0.45116  -0.45030  -0.44483  -0.44446  -0.44160
 Alpha  occ. eigenvalues --   -0.44038  -0.43685  -0.43357  -0.43193  -0.42996
 Alpha  occ. eigenvalues --   -0.42790  -0.42674  -0.42618  -0.42401  -0.42353
 Alpha  occ. eigenvalues --   -0.42052  -0.41821  -0.41528  -0.41489  -0.41419
 Alpha  occ. eigenvalues --   -0.41251  -0.41037  -0.40749  -0.40714  -0.40418
 Alpha  occ. eigenvalues --   -0.40026  -0.39969  -0.39628  -0.39378  -0.39230
 Alpha  occ. eigenvalues --   -0.38609  -0.38541  -0.38444  -0.38345  -0.37708
 Alpha  occ. eigenvalues --   -0.37531  -0.37428  -0.37306  -0.36793  -0.36550
 Alpha  occ. eigenvalues --   -0.36491  -0.36381  -0.36013  -0.35894  -0.35876
 Alpha  occ. eigenvalues --   -0.35437  -0.34964  -0.34799  -0.34714  -0.34532
 Alpha  occ. eigenvalues --   -0.34393  -0.34222  -0.34079  -0.33955  -0.33802
 Alpha  occ. eigenvalues --   -0.33683  -0.33646  -0.33348  -0.32986  -0.32494
 Alpha  occ. eigenvalues --   -0.32431  -0.29524  -0.28893  -0.28547  -0.28223
 Alpha  occ. eigenvalues --   -0.28136  -0.27373  -0.27242  -0.27040  -0.26870
 Alpha  occ. eigenvalues --   -0.26675  -0.26656  -0.26498  -0.25931  -0.25593
 Alpha  occ. eigenvalues --   -0.25279  -0.25227  -0.25103  -0.24924  -0.24568
 Alpha  occ. eigenvalues --   -0.22099  -0.20563  -0.20185  -0.18585
 Alpha virt. eigenvalues --   -0.04875  -0.02486  -0.01303  -0.00871  -0.00539
 Alpha virt. eigenvalues --   -0.00396  -0.00108   0.01096   0.02822   0.04190
 Alpha virt. eigenvalues --    0.04570   0.05145   0.06290   0.06634   0.06733

 Mulliken charges:
               1
     1  C   -0.440027
     2  C   -0.122200
     3  N   -0.373843
     4  C   -0.123485
     5  C   -0.449742
     6  C   -0.130045
     7  C    0.596102
     8  O   -0.574506
     9  N   -0.429641
    10  C   -0.128960
    11  C   -0.305735
    12  C   -0.291333
    13  C   -0.065264
    14  C    0.513903
    15  N   -0.502753
    16  C   -0.081374
    17  C    0.269183
    18  C    0.134507
    19  C   -0.178136
    20  C   -0.201026
    21  C    0.145216
    22  C   -0.262783
    23  C    0.093558
    24  C    0.094415
    25  C   -0.186627
    26  C   -0.183257
    27  C    0.134856
    28  C    0.269220
    29  C   -0.076096
    30  N   -0.496240
    31  C    0.527454
    32  C   -0.059727
    33  C   -0.329043
    34  C    0.256979
    35  C   -0.059119
    36  O   -0.475257
    37  C    0.186095
    38  O   -0.484187
    39  C   -0.149601
    40  N   -0.452788
    41  C    0.617556
    42  O   -0.576988
    43  C   -0.061357
    44  N   -0.617463
    45  C    0.787817
    46  O   -0.525563
    47  O   -0.478762
    48  C   -0.208447
    49  C   -0.077584
    50  C   -0.461019
    51  C   -0.446581
    52  N   -0.700529
    53  C   -0.200139
    54  C   -0.177889
    55  C   -0.179822
    56  C   -0.200274
    57  C    0.150276
    58  C   -0.283687
    59  N   -0.695501
    60  C    0.135267
    61  C   -0.178389
    62  C   -0.138121
    63  C   -0.124764
    64  C   -0.133758
    65  C   -0.162091
    66  H    0.149864
    67  H    0.136408
    68  H    0.139113
    69  H    0.149809
    70  H    0.136544
    71  H    0.144438
    72  H    0.127726
    73  H    0.154032
    74  H    0.147198
    75  H    0.139545
    76  H    0.143411
    77  H    0.162214
    78  H    0.165615
    79  H    0.178727
    80  H    0.151029
    81  H    0.188574
    82  H    0.143101
    83  H    0.171690
    84  H    0.133721
    85  H    0.134686
    86  H    0.131021
    87  H    0.131551
    88  H    0.134438
    89  H    0.134772
    90  H    0.133675
    91  H    0.176697
    92  H    0.205927
    93  H    0.145927
    94  H    0.144836
    95  H    0.155814
    96  H    0.135057
    97  H    0.161289
    98  H    0.189057
    99  H    0.165340
   100  H    0.178635
   101  H    0.353825
   102  H    0.162462
   103  H    0.166602
   104  H    0.168402
   105  H    0.139067
   106  H    0.154276
   107  H    0.149335
   108  H    0.153204
   109  H    0.144071
   110  H    0.160161
   111  H    0.151971
   112  H    0.378046
   113  H    0.132806
   114  H    0.133870
   115  H    0.132278
   116  H    0.131474
   117  H    0.132793
   118  H    0.378934
   119  H    0.150429
   120  H    0.133382
   121  H    0.131871
   122  H    0.132658
   123  H    0.135728
 Sum of Mulliken charges =  -0.00000

 Dipole moment (field-independent basis, Debye):
    X=             -1.5471    Y=              0.3578    Z=              1.0184  Tot=              1.8864
 Quadrupole moment (field-independent basis, Debye-Ang):
   XX=           -300.9424   YY=           -377.7839   ZZ=           -380.7813
   XY=             16.9404   XZ=            -25.6139   YZ=              2.1178

 Normal termination of Gaussian 16 at Fri Nov  4 21:17:31 2022.
