 Gaussian 16, Revision B.01,
 Gaussian 16:  ES64L-G16RevB.01 20-Dec-2017

 -----------------------------
 #p b3lyp/6-31g(d) opt SCF=XQC
 -----------------------------

 ------------------------------
 Gaussian input prepared by ASE
 ------------------------------
 Symbolic Z-matrix:
 Charge =  0 Multiplicity = 1

 SCF Done:  E(RB3LYP) =  -2276.09552549     A.U. after   14 cycles
 SCF Done:  E(RB3LYP) =  -2276.10596557     A.U. after   14 cycles
 SCF Done:  E(RB3LYP) =  -2276.09908195     A.U. after   14 cycles
 SCF Done:  E(RB3LYP) =  -2276.11267837     A.U. after   13 cycles
 SCF Done:  E(RB3LYP) =  -2276.11399824     A.U. after   12 cycles
 SCF Done:  E(RB3LYP) =  -2276.11448488     A.U. after   14 cycles
 SCF Done:  E(RB3LYP) =  -2276.11522269     A.U. after   12 cycles
 SCF Done:  E(RB3LYP) =  -2276.11533284     A.U. after   12 cycles
 SCF Done:  E(RB3LYP) =  -2276.11577847     A.U. after   11 cycles
 SCF Done:  E(RB3LYP) =  -2276.11600466     A.U. after   11 cycles
 SCF Done:  E(RB3LYP) =  -2276.12040498     A.U. after    9 cycles
 SCF Done:  E(RB3LYP) =  -2276.12040758     A.U. after   10 cycles
 SCF Done:  E(RB3LYP) =  -2276.12040774     A.U. after    9 cycles
 SCF Done:  E(RB3LYP) =  -2276.12040830     A.U. after    9 cycles
 SCF Done:  E(RB3LYP) =  -2276.12040855     A.U. after   10 cycles
 SCF Done:  E(RB3LYP) =  -2276.12040880     A.U. after    8 cycles
 SCF Done:  E(RB3LYP) =  -2276.12040892     A.U. after    8 cycles
 SCF Done:  E(RB3LYP) =  -2276.12040893     A.U. after    7 cycles
 SCF Done:  E(RB3LYP) =  -2276.12040894     A.U. after    6 cycles
 SCF Done:  E(RB3LYP) =  -2276.12040895     A.U. after    6 cycles
 Optimization completed.
    -- Stationary point found.

                         Standard orientation:
 ---------------------------------------------------------------------
 Center     Atomic      Atomic             Coordinates (Angstroms)
 Number     Number       Type             X           Y           Z
 ---------------------------------------------------------------------
      1          6           0        7.729292    5.811540   -3.262174
      2          8           0        6.391180    5.342573   -3.319609
      3          6           0        6.132131    4.070958   -2.901107
      4          6           0        4.790619    3.665495   -2.981659
      5          6           0        4.421994    2.388801   -2.581540
      6          6           0        5.377764    1.481673   -2.092941
      7          6           0        4.980756    0.100950   -1.647834
      8          8           0        4.678191    0.049318   -0.215839
      9          6           0        3.408546    0.304859    0.144727
     10          8           0        2.506628    0.560625   -0.624561
     11          6           0        3.248007    0.291444    1.676275
     12          6           0        3.922267   -0.925645    2.346315
     13          6           0        3.739190   -0.988908    3.870976
     14          6           0        4.279178    0.209302    4.669433
     15          6           0        5.799978    0.441735    4.567646
     16          7           0        6.668463   -0.641195    5.042535
     17          7           0        1.845943    0.486670    2.031477
     18          6           0        0.880231   -0.472149    1.781108
     19          8           0        1.100288   -1.679747    1.796981
     20          7           0       -0.397689    0.069868    1.613316
     21          6           0       -1.530362   -0.850690    1.418420
     22          6           0       -1.813045   -1.624466    2.714376
     23          6           0       -2.753585   -0.004517    0.975140
     24          6           0       -3.235862    1.022038    2.019021
     25          6           0       -4.301392    1.940231    1.456355
     26          8           0       -4.190615    3.131166    1.296223
     27          8           0       -5.421158    1.217045    1.143119
     28          6           0       -6.530978    1.846873    0.564515
     29          6           0       -7.062965    1.257562   -0.574401
     30          6           0       -8.218403    1.780287   -1.162094
     31          6           0       -8.834078    2.902930   -0.597799
     32          8           0       -9.961719    3.499478   -1.085459
     33          6           0      -10.553809    2.957306   -2.254399
     34          6           0       -8.287509    3.487649    0.554908
     35          6           0       -7.141896    2.963846    1.139605
     36          6           0       -1.212978   -1.772036    0.215909
     37          8           0       -0.737533   -1.366869   -0.815715
     38          8           0       -1.606373   -3.056408    0.436431
     39          6           0       -1.279289   -4.028539   -0.518712
     40          6           0       -2.316402   -4.731842   -1.127092
     41          6           0       -2.018241   -5.758731   -2.015418
     42          6           0       -0.683322   -6.079816   -2.300151
     43          8           0       -0.497853   -7.102236   -3.188622
     44          6           0        0.831050   -7.467873   -3.520075
     45          6           0        0.350501   -5.366221   -1.680412
     46          6           0        0.048632   -4.338976   -0.783629
     47          6           0        6.709180    1.898384   -2.019688
     48          6           0        7.097451    3.179794   -2.416596
     49          1           0        8.395160    5.211087   -3.895981
     50          1           0        8.113543    5.811047   -2.233598
     51          1           0        7.703091    6.836410   -3.636601
     52          1           0        4.058899    4.370454   -3.363790
     53          1           0        3.381040    2.084703   -2.636431
     54          1           0        4.107466   -0.264684   -2.190594
     55          1           0        5.806131   -0.605253   -1.758551
     56          1           0        3.768438    1.192163    2.027375
     57          1           0        3.517526   -1.839901    1.908054
     58          1           0        4.984244   -0.880257    2.082946
     59          1           0        4.229824   -1.906112    4.226028
     60          1           0        2.674022   -1.117504    4.089344
     61          1           0        3.757763    1.127918    4.363379
     62          1           0        4.020645    0.063563    5.728789
     63          1           0        6.083489    0.653455    3.528402
     64          1           0        6.057491    1.343041    5.138664
     65          1           0        6.507025   -1.484516    4.494029
     66          1           0        6.421659   -0.881530    6.002651
     67          1           0        1.525546    1.440772    1.923965
     68          1           0       -0.406412    0.851389    0.965030
     69          1           0       -2.721226   -2.224818    2.613531
     70          1           0       -0.982793   -2.291057    2.948742
     71          1           0       -1.940935   -0.921763    3.542796
     72          1           0       -3.575638   -0.686427    0.734436
     73          1           0       -2.487886    0.508262    0.041590
     74          1           0       -3.652836    0.502485    2.888595
     75          1           0       -2.412495    1.652947    2.360178
     76          1           0       -6.574725    0.386307   -0.999701
     77          1           0       -8.619920    1.306243   -2.050004
     78          1           0      -10.881443    1.920631   -2.098463
     79          1           0      -11.423859    3.581331   -2.466628
     80          1           0       -9.865661    2.992370   -3.109592
     81          1           0       -8.780299    4.357181    0.977843
     82          1           0       -6.721214    3.421736    2.026531
     83          1           0       -3.345838   -4.474407   -0.898202
     84          1           0       -2.805018   -6.325558   -2.502731
     85          1           0        1.387867   -7.814113   -2.638849
     86          1           0        0.746674   -8.287219   -4.236556
     87          1           0        1.376083   -6.635287   -3.984852
     88          1           0        1.389438   -5.599116   -1.882726
     89          1           0        0.836904   -3.780730   -0.289857
     90          1           0        7.466435    1.211784   -1.647319
     91          1           0        8.140558    3.466534   -2.348804
 ---------------------------------------------------------------------

 The electronic state is 1-A.
 Alpha  occ. eigenvalues --  -19.19969 -19.19324 -19.19245 -19.18248 -19.17874
 Alpha  occ. eigenvalues --  -19.17429 -19.14049 -19.13933 -19.12966 -19.11486
 Alpha  occ. eigenvalues --  -14.35909 -14.35336 -14.30818 -10.32085 -10.31520
 Alpha  occ. eigenvalues --  -10.31235 -10.30982 -10.25225 -10.24860 -10.24703
 Alpha  occ. eigenvalues --  -10.24629 -10.24516 -10.24462 -10.24349 -10.24326
 Alpha  occ. eigenvalues --  -10.24247 -10.23891 -10.23712 -10.20543 -10.20429
 Alpha  occ. eigenvalues --  -10.20164 -10.19671 -10.19523 -10.19376 -10.19287
 Alpha  occ. eigenvalues --  -10.19284 -10.19207 -10.19107 -10.18947 -10.18845
 Alpha  occ. eigenvalues --  -10.18707 -10.18655 -10.18652 -10.18413 -10.18263
 Alpha  occ. eigenvalues --  -10.17686 -10.17665 -10.17318  -1.10574  -1.10137
 Alpha  occ. eigenvalues --   -1.10034  -1.06844  -1.06471  -1.06004  -1.04658
 Alpha  occ. eigenvalues --   -1.02343  -1.01607  -1.01512  -0.93577  -0.91487
 Alpha  occ. eigenvalues --   -0.87446  -0.85655  -0.85473  -0.84851  -0.81507
 Alpha  occ. eigenvalues --   -0.79468  -0.77908  -0.77145  -0.75800  -0.75298
 Alpha  occ. eigenvalues --   -0.75168  -0.74792  -0.74558  -0.73805  -0.72056
 Alpha  occ. eigenvalues --   -0.70466  -0.69684  -0.69054  -0.67932  -0.67109
 Alpha  occ. eigenvalues --   -0.64302  -0.63101  -0.62384  -0.61940  -0.61660
 Alpha  occ. eigenvalues --   -0.61238  -0.60641  -0.58847  -0.57964  -0.56606
 Alpha  occ. eigenvalues --   -0.56300  -0.56080  -0.55317  -0.54929  -0.53562
 Alpha  occ. eigenvalues --   -0.53280  -0.52849  -0.52215  -0.51405  -0.50518
 Alpha  occ. eigenvalues --   -0.49679  -0.49245  -0.49119  -0.48989  -0.48554
 Alpha  occ. eigenvalues --   -0.48148  -0.47352  -0.47239  -0.47153  -0.46959
 Alpha  occ. eigenvalues --   -0.46758  -0.46537  -0.46417  -0.45296  -0.45175
 Alpha  occ. eigenvalues --   -0.44939  -0.44816  -0.44545  -0.43989  -0.43843
 Alpha  occ. eigenvalues --   -0.43409  -0.43172  -0.42910  -0.42599  -0.42463
 Alpha  occ. eigenvalues --   -0.42357  -0.42310  -0.41992  -0.41529  -0.41271
 Alpha  occ. eigenvalues --   -0.40960  -0.40737  -0.40305  -0.39428  -0.39135
 Alpha  occ. eigenvalues --   -0.39004  -0.38561  -0.38267  -0.38150  -0.37849
 Alpha  occ. eigenvalues --   -0.37805  -0.37151  -0.37027  -0.36743  -0.36704
 Alpha  occ. eigenvalues --   -0.36668  -0.36475  -0.35977  -0.35768  -0.35211
 Alpha  occ. eigenvalues --   -0.34986  -0.34646  -0.33300  -0.33166  -0.32810
 Alpha  occ. eigenvalues --   -0.32718  -0.32544  -0.32472  -0.32072  -0.31735
 Alpha  occ. eigenvalues --   -0.31596  -0.30347  -0.30181  -0.29706  -0.27789
 Alpha  occ. eigenvalues --   -0.27708  -0.27516  -0.26502  -0.26184  -0.25391
 Alpha  occ. eigenvalues --   -0.25310  -0.24929  -0.24655  -0.22847  -0.22219
 Alpha  occ. eigenvalues --   -0.21503  -0.20994
 Alpha virt. eigenvalues --   -0.00665  -0.00543  -0.00336  -0.00145   0.00144
 Alpha virt. eigenvalues --    0.00823   0.01099   0.02278   0.02999   0.03854
 Alpha virt. eigenvalues --    0.05925   0.07742   0.08733   0.08854   0.09031

 Mulliken charges:
               1
     1  C   -0.216475
     2  O   -0.503829
     3  C    0.378471
     4  C   -0.174411
     5  C   -0.182771
     6  C    0.143500
     7  C   -0.149441
     8  O   -0.459929
     9  C    0.647551
    10  O   -0.483910
    11  C   -0.081500
    12  C   -0.270593
    13  C   -0.259716
    14  C   -0.269551
    15  C   -0.148118
    16  N   -0.707184
    17  N   -0.609662
    18  C    0.804808
    19  O   -0.543213
    20  N   -0.646220
    21  C    0.127511
    22  C   -0.458584
    23  C   -0.320631
    24  C   -0.345697
    25  C    0.595282
    26  O   -0.454231
    27  O   -0.523694
    28  C    0.342155
    29  C   -0.170824
    30  C   -0.204937
    31  C    0.383539
    32  O   -0.507841
    33  C   -0.215700
    34  C   -0.187614
    35  C   -0.138701
    36  C    0.657605
    37  O   -0.472861
    38  O   -0.538110
    39  C    0.342183
    40  C   -0.161283
    41  C   -0.186371
    42  C    0.384695
    43  O   -0.510006
    44  C   -0.214567
    45  C   -0.210006
    46  C   -0.149768
    47  C   -0.182989
    48  C   -0.195522
    49  H    0.153403
    50  H    0.153563
    51  H    0.172224
    52  H    0.142794
    53  H    0.162860
    54  H    0.183849
    55  H    0.157722
    56  H    0.172773
    57  H    0.176681
    58  H    0.150112
    59  H    0.118520
    60  H    0.159585
    61  H    0.126002
    62  H    0.124975
    63  H    0.141552
    64  H    0.140061
    65  H    0.297458
    66  H    0.290950
    67  H    0.324190
    68  H    0.336879
    69  H    0.153795
    70  H    0.192923
    71  H    0.148997
    72  H    0.173088
    73  H    0.169404
    74  H    0.175657
    75  H    0.176596
    76  H    0.141663
    77  H    0.136784
    78  H    0.151560
    79  H    0.171072
    80  H    0.153195
    81  H    0.145049
    82  H    0.152662
    83  H    0.136159
    84  H    0.140420
    85  H    0.151054
    86  H    0.168664
    87  H    0.152654
    88  H    0.135288
    89  H    0.171608
    90  H    0.130984
    91  H    0.133736
 Sum of Mulliken charges =  -0.00000

 Dipole moment (field-independent basis, Debye):
    X=              1.6524    Y=             -0.0423    Z=             -1.2762  Tot=              2.0883
 Quadrupole moment (field-independent basis, Debye-Ang):
   XX=           -230.1393   YY=           -269.5799   ZZ=           -268.1483
   XY=             11.2532   XZ=             -3.7439   YZ=              2.4398

 Normal termination of Gaussian 16 at Fri Nov  4 21:25:13 2022.
