 Gaussian 16, Revision B.01,
 Gaussian 16:  ES64L-G16RevB.01 20-Dec-2017

 -------------------------------------------------------------------
 #p b3lyp/6-31g(d) 6D 10F nosymm GFInput td=(50-50,nstate=2) SCF=XQC
 -------------------------------------------------------------------

 ------------------------------
 Gaussian input prepared by ASE
 ------------------------------
 Symbolic Z-matrix:
 Charge =  0 Multiplicity = 1

                          Input orientation:
 ---------------------------------------------------------------------
 Center     Atomic      Atomic             Coordinates (Angstroms)
 Number     Number       Type             X           Y           Z
 ---------------------------------------------------------------------
      1          6           0       -9.284871   -3.024107   -2.362811
      2          8           0       -7.880238   -3.044589   -2.563703
      3          6           0       -7.165011   -1.926543   -2.251169
      4          6           0       -5.781038   -2.008533   -2.471261
      5          6           0       -4.963457   -0.923876   -2.186642
      6          6           0       -5.500882    0.270848   -1.677805
      7          6           0       -4.616968    1.444841   -1.357540
      8          8           0       -4.170711    1.434305    0.037295
      9          6           0       -3.032749    0.770193    0.304326
     10          8           0       -2.353857    0.196674   -0.520816
     11          6           0       -2.722155    0.775603    1.812668
     12          6           0       -2.872879    2.170441    2.458110
     13          6           0       -2.525034    2.214704    3.954490
     14          6           0       -3.354382    1.299977    4.871161
     15          6           0       -4.866082    1.600204    4.914084
     16          7           0       -5.263760    2.929608    5.390594
     17          7           0       -1.440453    0.122530    2.059245
     18          6           0       -0.238072    0.683628    1.666732
     19          8           0       -0.033682    1.893316    1.623741
     20          7           0        0.756919   -0.268789    1.426083
     21          6           0        2.108188    0.200856    1.076996
     22          6           0        2.766364    0.870848    2.291926
     23          6           0        2.921051   -1.026960    0.586586
     24          6           0        3.131083   -2.123491    1.649411
     25          6           0        3.759905   -3.368565    1.058313
     26          8           0        3.236981   -4.453647    0.984906
     27          8           0        5.020269   -3.083489    0.605317
     28          6           0        5.786479   -4.073531   -0.023892
     29          6           0        6.367649   -3.738348   -1.239343
     30          6           0        7.211853   -4.643769   -1.888337
     31          6           0        7.465352   -5.891257   -1.307541
     32          8           0        8.268752   -6.853324   -1.849972
     33          6           0        8.887140   -6.583950   -3.097360
     34          6           0        6.873499   -6.216696   -0.077432
     35          6           0        6.038547   -5.313726    0.567679
     36          6           0        2.000666    1.137099   -0.150820
     37          8           0        1.313798    0.887543   -1.110189
     38          8           0        2.825739    2.214853   -0.047374
     39          6           0        2.751503    3.209834   -1.031662
     40          6           0        3.897780    3.495367   -1.769825
     41          6           0        3.875930    4.533924   -2.693647
     42          6           0        2.706802    5.284329   -2.883934
     43          8           0        2.788848    6.280034   -3.817188
     44          6           0        1.635669    7.068741   -4.057300
     45          6           0        1.561276    4.988361   -2.134095
     46          6           0        1.587335    3.948462   -1.202158
     47          6           0       -6.879958    0.338588   -1.465107
     48          6           0       -7.717188   -0.743658   -1.744561
     49          1           0       -9.769103   -2.251818   -2.974958
     50          1           0       -9.539483   -2.859694   -1.307463
     51          1           0       -9.645269   -4.006965   -2.671587
     52          1           0       -5.373962   -2.933281   -2.868167
     53          1           0       -3.892341   -0.997138   -2.349178
     54          1           0       -3.731529    1.471605   -1.994873
     55          1           0       -5.161395    2.387472   -1.442801
     56          1           0       -3.478070    0.119472    2.263777
     57          1           0       -2.229481    2.876237    1.929297
     58          1           0       -3.908508    2.483846    2.289385
     59          1           0       -2.637512    3.255176    4.290371
     60          1           0       -1.462843    1.976915    4.072862
     61          1           0       -3.208600    0.249154    4.581475
     62          1           0       -2.955396    1.381242    5.893179
     63          1           0       -5.308714    1.466190    3.918419
     64          1           0       -5.353857    0.860218    5.561558
     65          1           0       -4.883192    3.648814    4.777386
     66          1           0       -4.853836    3.100603    6.308863
     67          1           0       -1.474523   -0.886454    1.986329
     68          1           0        0.434645   -1.025755    0.830878
     69          1           0        3.808844    1.119818    2.075973
     70          1           0        2.239092    1.788752    2.552741
     71          1           0        2.732531    0.193171    3.149853
     72          1           0        3.896322   -0.676253    0.233654
     73          1           0        2.403965   -1.446419   -0.286186
     74          1           0        3.785467   -1.751559    2.445282
     75          1           0        2.182063   -2.422726    2.099065
     76          1           0        6.162443   -2.766231   -1.676635
     77          1           0        7.657511   -4.364204   -2.835728
     78          1           0        9.560305   -5.718201   -3.036655
     79          1           0        9.468300   -7.474851   -3.342276
     80          1           0        8.144485   -6.407575   -3.886971
     81          1           0        7.083304   -7.188830    0.357011
     82          1           0        5.580326   -5.571583    1.514683
     83          1           0        4.796987    2.907750   -1.613191
     84          1           0        4.754161    4.780979   -3.281405
     85          1           0        1.321622    7.612331   -3.155982
     86          1           0        1.918937    7.786619   -4.829441
     87          1           0        0.796760    6.459506   -4.419711
     88          1           0        0.647582    5.557029   -2.261924
     89          1           0        0.711267    3.710178   -0.608400
     90          1           0       -7.318128    1.254554   -1.074559
     91          1           0       -8.783130   -0.652958   -1.570128
 ---------------------------------------------------------------------

 SCF Done:  E(RB3LYP) =  -2276.12039049     A.U. after   15 cycles

 Excitation energies and oscillator strengths:

 Excited state symmetry could not be determined.
 Excited State   1:      Triplet-?Sym    3.6714 eV  337.70 nm  f=0.0000  <S**2>=2.000
     171 ->178        -0.14349
     171 ->180         0.34889
     176 ->178         0.40937
     176 ->183         0.22022
     176 ->185        -0.31512
     176 ->186        -0.13604
 This state for optimization and/or second-order correction.
 Total Energy, E(TD-HF/TD-DFT) =  -2275.98546864
 Copying the excited state density for this state as the 1-particle RhoCI density.

 Excited state symmetry could not be determined.
 Excited State   2:      Triplet-?Sym    3.6788 eV  337.02 nm  f=0.0000  <S**2>=2.000
     172 ->182        -0.29669
     173 ->182         0.25550
     177 ->182         0.24427
     177 ->183        -0.33969
     177 ->184        -0.12611
     177 ->185        -0.26426
     177 ->186         0.24153

 Excited state symmetry could not be determined.
 Excited State   3:      Singlet-?Sym    5.0311 eV  246.43 nm  f=0.0245  <S**2>=0.000
     171 ->178        -0.19796
     171 ->183        -0.11742
     171 ->185         0.15711
     176 ->178        -0.28128
     176 ->180         0.56501

 Excited state symmetry could not be determined.
 Excited State   4:      Singlet-?Sym    5.0420 eV  245.90 nm  f=0.0385  <S**2>=0.000
     172 ->183        -0.13646
     172 ->185        -0.10254
     173 ->183         0.11738
     177 ->178        -0.14245
     177 ->182         0.61292
     177 ->183         0.10092

 Alpha  occ. eigenvalues --  -19.19969 -19.19324 -19.19245 -19.18248 -19.17874
 Alpha  occ. eigenvalues --  -19.17429 -19.14049 -19.13933 -19.12966 -19.11486
 Alpha  occ. eigenvalues --  -14.35909 -14.35336 -14.30818 -10.32085 -10.31520
 Alpha  occ. eigenvalues --  -10.31235 -10.30981 -10.25224 -10.24860 -10.24703
 Alpha  occ. eigenvalues --  -10.24629 -10.24516 -10.24462 -10.24349 -10.24326
 Alpha  occ. eigenvalues --  -10.24247 -10.23891 -10.23712 -10.20543 -10.20429
 Alpha  occ. eigenvalues --  -10.20164 -10.19671 -10.19523 -10.19376 -10.19287
 Alpha  occ. eigenvalues --  -10.19284 -10.19207 -10.19107 -10.18947 -10.18845
 Alpha  occ. eigenvalues --  -10.18707 -10.18655 -10.18652 -10.18413 -10.18263
 Alpha  occ. eigenvalues --  -10.17686 -10.17665 -10.17318  -1.10575  -1.10137
 Alpha  occ. eigenvalues --   -1.10034  -1.06843  -1.06471  -1.06004  -1.04658
 Alpha  occ. eigenvalues --   -1.02344  -1.01607  -1.01512  -0.93577  -0.91487
 Alpha  occ. eigenvalues --   -0.87446  -0.85654  -0.85473  -0.84851  -0.81507
 Alpha  occ. eigenvalues --   -0.79468  -0.77908  -0.77145  -0.75800  -0.75297
 Alpha  occ. eigenvalues --   -0.75168  -0.74792  -0.74558  -0.73805  -0.72056
 Alpha  occ. eigenvalues --   -0.70466  -0.69684  -0.69054  -0.67932  -0.67109
 Alpha  occ. eigenvalues --   -0.64302  -0.63101  -0.62384  -0.61940  -0.61660
 Alpha  occ. eigenvalues --   -0.61238  -0.60641  -0.58846  -0.57964  -0.56606
 Alpha  occ. eigenvalues --   -0.56300  -0.56080  -0.55316  -0.54929  -0.53562
 Alpha  occ. eigenvalues --   -0.53280  -0.52849  -0.52215  -0.51405  -0.50518
 Alpha  occ. eigenvalues --   -0.49679  -0.49245  -0.49119  -0.48988  -0.48554
 Alpha  occ. eigenvalues --   -0.48148  -0.47352  -0.47239  -0.47153  -0.46959
 Alpha  occ. eigenvalues --   -0.46758  -0.46537  -0.46417  -0.45296  -0.45175
 Alpha  occ. eigenvalues --   -0.44939  -0.44816  -0.44545  -0.43989  -0.43843
 Alpha  occ. eigenvalues --   -0.43409  -0.43172  -0.42909  -0.42599  -0.42463
 Alpha  occ. eigenvalues --   -0.42357  -0.42310  -0.41992  -0.41529  -0.41270
 Alpha  occ. eigenvalues --   -0.40960  -0.40737  -0.40305  -0.39428  -0.39135
 Alpha  occ. eigenvalues --   -0.39004  -0.38561  -0.38267  -0.38150  -0.37849
 Alpha  occ. eigenvalues --   -0.37805  -0.37151  -0.37027  -0.36743  -0.36704
 Alpha  occ. eigenvalues --   -0.36668  -0.36475  -0.35977  -0.35768  -0.35211
 Alpha  occ. eigenvalues --   -0.34986  -0.34646  -0.33300  -0.33166  -0.32810
 Alpha  occ. eigenvalues --   -0.32718  -0.32544  -0.32472  -0.32072  -0.31735
 Alpha  occ. eigenvalues --   -0.31596  -0.30347  -0.30181  -0.29706  -0.27789
 Alpha  occ. eigenvalues --   -0.27708  -0.27516  -0.26501  -0.26184  -0.25391
 Alpha  occ. eigenvalues --   -0.25310  -0.24929  -0.24655  -0.22847  -0.22218
 Alpha  occ. eigenvalues --   -0.21503  -0.20994
 Alpha virt. eigenvalues --   -0.00665  -0.00543  -0.00335  -0.00145   0.00144
 Alpha virt. eigenvalues --    0.00823   0.01099   0.02278   0.02999   0.03854
 Alpha virt. eigenvalues --    0.05925   0.07742   0.08733   0.08854   0.09031

 Mulliken charges:
               1
     1  C   -0.216475
     2  O   -0.503828
     3  C    0.378473
     4  C   -0.174416
     5  C   -0.182779
     6  C    0.143545
     7  C   -0.149482
     8  O   -0.459940
     9  C    0.647597
    10  O   -0.483924
    11  C   -0.081517
    12  C   -0.270567
    13  C   -0.259716
    14  C   -0.269563
    15  C   -0.148113
    16  N   -0.707185
    17  N   -0.609661
    18  C    0.804812
    19  O   -0.543219
    20  N   -0.646227
    21  C    0.127538
    22  C   -0.458600
    23  C   -0.320632
    24  C   -0.345721
    25  C    0.595276
    26  O   -0.454224
    27  O   -0.523700
    28  C    0.342163
    29  C   -0.170833
    30  C   -0.204953
    31  C    0.383567
    32  O   -0.507856
    33  C   -0.215700
    34  C   -0.187604
    35  C   -0.138700
    36  C    0.657585
    37  O   -0.472850
    38  O   -0.538102
    39  C    0.342182
    40  C   -0.161283
    41  C   -0.186368
    42  C    0.384697
    43  O   -0.510006
    44  C   -0.214572
    45  C   -0.210006
    46  C   -0.149777
    47  C   -0.183002
    48  C   -0.195523
    49  H    0.153402
    50  H    0.153563
    51  H    0.172224
    52  H    0.142794
    53  H    0.162862
    54  H    0.183854
    55  H    0.157724
    56  H    0.172772
    57  H    0.176678
    58  H    0.150106
    59  H    0.118519
    60  H    0.159585
    61  H    0.126001
    62  H    0.124976
    63  H    0.141555
    64  H    0.140060
    65  H    0.297458
    66  H    0.290949
    67  H    0.324190
    68  H    0.336881
    69  H    0.153794
    70  H    0.192925
    71  H    0.148998
    72  H    0.173086
    73  H    0.169407
    74  H    0.175661
    75  H    0.176601
    76  H    0.141673
    77  H    0.136783
    78  H    0.151558
    79  H    0.171073
    80  H    0.153196
    81  H    0.145047
    82  H    0.152659
    83  H    0.136158
    84  H    0.140419
    85  H    0.151056
    86  H    0.168665
    87  H    0.152654
    88  H    0.135288
    89  H    0.171616
    90  H    0.130986
    91  H    0.133736
 Sum of Mulliken charges =  -0.00000

 Dipole moment (field-independent basis, Debye):
    X=             -1.6613    Y=              0.5666    Z=             -1.1313  Tot=              2.0882
 Quadrupole moment (field-independent basis, Debye-Ang):
   XX=           -228.1924   YY=           -272.5422   ZZ=           -267.7420
   XY=             -4.0206   XZ=             -1.3736   YZ=             -2.9671

 Normal termination of Gaussian 16 at Sat Nov  5 11:57:03 2022.
