 Gaussian 16, Revision B.01,
 Gaussian 16:  ES64L-G16RevB.01 20-Dec-2017

 -------------------------------------------------------------------
 #p b3lyp/6-31g(d) 6D 10F nosymm GFInput td=(50-50,nstate=2) SCF=XQC
 -------------------------------------------------------------------

 ------------------------------
 Gaussian input prepared by ASE
 ------------------------------
 Symbolic Z-matrix:
 Charge =  0 Multiplicity = 1

                          Input orientation:
 ---------------------------------------------------------------------
 Center     Atomic      Atomic             Coordinates (Angstroms)
 Number     Number       Type             X           Y           Z
 ---------------------------------------------------------------------
      1          6           0        4.549413    1.942737    0.181101
      2          6           0        3.803716    0.675965   -0.254364
      3          6           0        4.754607   -0.526571   -0.389847
      4          6           0        4.009549   -1.805945   -0.796409
      5          6           0        2.852274   -2.116885    0.164138
      6          6           0        1.883129   -0.927453    0.299206
      7          6           0        0.737075   -1.268384    1.286019
      8          6           0       -0.346567   -0.189539    1.338551
      9          8           0       -0.247945    0.708660    2.166243
     10          7           0       -1.376999   -0.252832    0.398606
     11          6           0       -1.516716   -1.486753   -0.410899
     12          6           0       -2.675885   -1.425048   -1.394184
     13          6           0       -3.945934   -0.977146   -0.670048
     14          6           0       -3.696745    0.396203   -0.093621
     15          6           0       -4.718584    1.367872   -0.100601
     16          7           0       -6.008328    1.020819   -0.555079
     17          6           0       -4.436607    2.685586    0.276884
     18          6           0       -3.141616    3.031865    0.647822
     19          6           0       -2.124950    2.083626    0.692071
     20          6           0       -2.403115    0.750739    0.344978
     21          6           0        2.651410    0.342581    0.711010
     22          1           0        5.007522    1.808164    1.169531
     23          1           0        5.349633    2.196463   -0.524818
     24          1           0        3.871306    2.802026    0.244419
     25          1           0        3.364366    0.865979   -1.247528
     26          1           0        5.259023   -0.690687    0.575072
     27          1           0        5.544763   -0.301124   -1.118605
     28          1           0        3.610534   -1.684754   -1.814488
     29          1           0        4.703836   -2.655159   -0.835088
     30          1           0        2.308225   -3.008940   -0.175771
     31          1           0        3.257567   -2.359026    1.158469
     32          1           0        1.442688   -0.744392   -0.694423
     33          1           0        0.339493   -2.260271    1.051021
     34          1           0        1.143599   -1.313094    2.301089
     35          1           0       -0.583727   -1.667199   -0.953590
     36          1           0       -1.678508   -2.341180    0.259761
     37          1           0       -2.454559   -0.720304   -2.204534
     38          1           0       -2.795189   -2.417187   -1.845187
     39          1           0       -4.785598   -0.937321   -1.371962
     40          1           0       -4.208752   -1.715882    0.104452
     41          1           0       -6.345404    0.130479   -0.206415
     42          1           0       -6.695076    1.741767   -0.363062
     43          1           0       -5.229349    3.430572    0.270344
     44          1           0       -2.919003    4.058651    0.925901
     45          1           0       -1.136190    2.364392    1.017522
     46          1           0        1.965511    1.193668    0.787632
     47          1           0        3.062112    0.194259    1.722063
 ---------------------------------------------------------------------

 SCF Done:  E(RB3LYP) =  -886.335954696     A.U. after   15 cycles

 Excitation energies and oscillator strengths:

 Excited state symmetry could not be determined.
 Excited State   1:      Triplet-?Sym    3.4267 eV  361.82 nm  f=0.0000  <S**2>=2.000
      77 -> 79         0.35377
      77 -> 80        -0.20618
      78 -> 79         0.42069
      78 -> 80         0.29361
      78 -> 81         0.20910
 This state for optimization and/or second-order correction.
 Total Energy, E(TD-HF/TD-DFT) =  -886.210025283
 Copying the excited state density for this state as the 1-particle RhoCI density.

 Excited state symmetry could not be determined.
 Excited State   2:      Triplet-?Sym    3.9197 eV  316.31 nm  f=0.0000  <S**2>=2.000
      77 -> 79        -0.19413
      77 -> 80         0.24346
      78 -> 79         0.52616
      78 -> 80        -0.33416

 Excited state symmetry could not be determined.
 Excited State   3:      Singlet-?Sym    4.5530 eV  272.32 nm  f=0.0449  <S**2>=0.000
      76 -> 79         0.14323
      77 -> 79        -0.15569
      77 -> 80        -0.17890
      78 -> 79         0.62188
      78 -> 80        -0.13313

 Excited state symmetry could not be determined.
 Excited State   4:      Singlet-?Sym    4.9268 eV  251.65 nm  f=0.0025  <S**2>=0.000
      76 -> 79         0.50739
      76 -> 80         0.14404
      76 -> 81        -0.14898
      77 -> 79         0.21665
      77 -> 80         0.11311
      78 -> 80         0.34274

 Alpha  occ. eigenvalues --  -19.10491 -14.36797 -14.33666 -10.27966 -10.22916
 Alpha  occ. eigenvalues --  -10.22123 -10.21815 -10.19545 -10.19191 -10.19112
 Alpha  occ. eigenvalues --  -10.18565 -10.18285 -10.18025 -10.17975 -10.17817
 Alpha  occ. eigenvalues --  -10.17543 -10.17359 -10.17160 -10.16890 -10.16651
 Alpha  occ. eigenvalues --  -10.16356  -1.02526  -0.93724  -0.91128  -0.83535
 Alpha  occ. eigenvalues --   -0.82426  -0.80267  -0.77655  -0.75151  -0.74592
 Alpha  occ. eigenvalues --   -0.71607  -0.69259  -0.67095  -0.66843  -0.62877
 Alpha  occ. eigenvalues --   -0.61148  -0.59710  -0.57515  -0.56432  -0.55048
 Alpha  occ. eigenvalues --   -0.54371  -0.51382  -0.49570  -0.48838  -0.47627
 Alpha  occ. eigenvalues --   -0.46680  -0.45953  -0.45516  -0.44379  -0.43793
 Alpha  occ. eigenvalues --   -0.43115  -0.42797  -0.42283  -0.41516  -0.40450
 Alpha  occ. eigenvalues --   -0.40260  -0.38779  -0.37996  -0.37946  -0.37725
 Alpha  occ. eigenvalues --   -0.37210  -0.36191  -0.36070  -0.35171  -0.34801
 Alpha  occ. eigenvalues --   -0.34013  -0.33840  -0.33270  -0.32659  -0.32346
 Alpha  occ. eigenvalues --   -0.31108  -0.30260  -0.29399  -0.29218  -0.26748
 Alpha  occ. eigenvalues --   -0.23535  -0.20980  -0.19378
 Alpha virt. eigenvalues --   -0.00078   0.01970   0.04508   0.07191   0.08228
 Alpha virt. eigenvalues --    0.09425   0.10278   0.10833   0.11268   0.11778
 Alpha virt. eigenvalues --    0.12395   0.13639   0.14085   0.15037   0.15849

 Mulliken charges:
               1
     1  C   -0.444922
     2  C   -0.075719
     3  C   -0.252455
     4  C   -0.264508
     5  C   -0.259391
     6  C   -0.094577
     7  C   -0.354074
     8  C    0.579109
     9  O   -0.504297
    10  N   -0.559816
    11  C   -0.133001
    12  C   -0.295128
    13  C   -0.356415
    14  C    0.094103
    15  C    0.215527
    16  N   -0.791577
    17  C   -0.167943
    18  C   -0.153899
    19  C   -0.144882
    20  C    0.266548
    21  C   -0.258775
    22  H    0.139631
    23  H    0.137235
    24  H    0.143494
    25  H    0.114771
    26  H    0.124657
    27  H    0.127078
    28  H    0.126387
    29  H    0.130800
    30  H    0.123605
    31  H    0.130251
    32  H    0.122642
    33  H    0.138167
    34  H    0.165024
    35  H    0.161864
    36  H    0.152707
    37  H    0.160712
    38  H    0.142346
    39  H    0.162079
    40  H    0.142199
    41  H    0.318860
    42  H    0.317309
    43  H    0.109741
    44  H    0.125379
    45  H    0.159667
    46  H    0.152645
    47  H    0.126846
 Sum of Mulliken charges =  -0.00000

 Dipole moment (field-independent basis, Debye):
    X=             -1.6651    Y=             -2.6929    Z=             -1.8383  Tot=              3.6611
 Quadrupole moment (field-independent basis, Debye-Ang):
   XX=           -106.3127   YY=           -121.8852   ZZ=           -136.3440
   XY=              0.6401   XZ=             -2.1677   YZ=             -1.3042

 Normal termination of Gaussian 16 at Sat Nov  5 11:35:12 2022.
