 Gaussian 16, Revision B.01,
 Gaussian 16:  ES64L-G16RevB.01 20-Dec-2017

 -----------------------------
 #p b3lyp/6-31g(d) opt SCF=XQC
 -----------------------------

 ------------------------------
 Gaussian input prepared by ASE
 ------------------------------
 Symbolic Z-matrix:
 Charge =  0 Multiplicity = 1

 SCF Done:  E(RB3LYP) =  -886.329498604     A.U. after   15 cycles
 SCF Done:  E(RB3LYP) =  -886.334880882     A.U. after   12 cycles
 SCF Done:  E(RB3LYP) =  -886.335424474     A.U. after   12 cycles
 SCF Done:  E(RB3LYP) =  -886.335636036     A.U. after   12 cycles
 SCF Done:  E(RB3LYP) =  -886.335815236     A.U. after   11 cycles
 SCF Done:  E(RB3LYP) =  -886.335886191     A.U. after   10 cycles
 SCF Done:  E(RB3LYP) =  -886.335931709     A.U. after   10 cycles
 SCF Done:  E(RB3LYP) =  -886.335949015     A.U. after   10 cycles
 SCF Done:  E(RB3LYP) =  -886.335960949     A.U. after   10 cycles
 SCF Done:  E(RB3LYP) =  -886.335964132     A.U. after    9 cycles
 SCF Done:  E(RB3LYP) =  -886.335966557     A.U. after    9 cycles
 SCF Done:  E(RB3LYP) =  -886.335967626     A.U. after    8 cycles
 SCF Done:  E(RB3LYP) =  -886.335967885     A.U. after    8 cycles
 SCF Done:  E(RB3LYP) =  -886.335967906     A.U. after    6 cycles
 Optimization completed.
    -- Stationary point found.

                         Standard orientation:
 ---------------------------------------------------------------------
 Center     Atomic      Atomic             Coordinates (Angstroms)
 Number     Number       Type             X           Y           Z
 ---------------------------------------------------------------------
      1          6           0        4.595818    2.479572   -0.789248
      2          6           0        4.063563    1.042064   -0.815264
      3          6           0        5.198747    0.011800   -0.679046
      4          6           0        4.669752   -1.429497   -0.673924
      5          6           0        3.598282   -1.635690    0.406843
      6          6           0        2.447275   -0.620789    0.274955
      7          6           0        1.392345   -0.846347    1.388383
      8          6           0        0.145353    0.023002    1.214630
      9          8           0        0.108265    1.120295    1.758811
     10          7           0       -0.877280   -0.458566    0.395115
     11          6           0       -0.824474   -1.875351   -0.037680
     12          6           0       -1.995636   -2.270463   -0.924582
     13          6           0       -3.308986   -1.840788   -0.269981
     14          6           0       -3.281373   -0.339867   -0.105892
     15          6           0       -4.450685    0.420883   -0.311588
     16          7           0       -5.672785   -0.234472   -0.571236
     17          6           0       -4.385146    1.818699   -0.325487
     18          6           0       -3.159283    2.450848   -0.146178
     19          6           0       -1.998285    1.721892    0.089262
     20          6           0       -2.056980    0.318757    0.136225
     21          6           0        3.000818    0.816714    0.275924
     22          1           0        5.088054    2.698483    0.167177
     23          1           0        5.329492    2.647216   -1.587164
     24          1           0        3.785386    3.206638   -0.918832
     25          1           0        3.580503    0.877285   -1.792510
     26          1           0        5.741121    0.203328    0.259882
     27          1           0        5.926787    0.144715   -1.490559
     28          1           0        4.237458   -1.660204   -1.658952
     29          1           0        5.494912   -2.137640   -0.524454
     30          1           0        3.204192   -2.660179    0.357799
     31          1           0        4.056467   -1.525267    1.401560
     32          1           0        1.964289   -0.792456   -0.700776
     33          1           0        1.161206   -1.913532    1.457869
     34          1           0        1.819253   -0.542828    2.349243
     35          1           0        0.115386   -2.053156   -0.569272
     36          1           0       -0.829372   -2.523293    0.848972
     37          1           0       -1.909694   -1.794107   -1.908460
     38          1           0       -1.956363   -3.354999   -1.080204
     39          1           0       -4.156336   -2.128728   -0.901165
     40          1           0       -3.430834   -2.365781    0.691368
     41          1           0       -5.850438   -1.033351    0.027199
     42          1           0       -6.466334    0.396009   -0.539070
     43          1           0       -5.290848    2.400203   -0.483742
     44          1           0       -3.105658    3.536020   -0.172616
     45          1           0       -1.064255    2.231843    0.262266
     46          1           0        2.184314    1.538507    0.161842
     47          1           0        3.449022    1.021558    1.260838
 ---------------------------------------------------------------------

 The electronic state is 1-A.
 Alpha  occ. eigenvalues --  -19.10491 -14.36797 -14.33666 -10.27966 -10.22917
 Alpha  occ. eigenvalues --  -10.22123 -10.21815 -10.19545 -10.19191 -10.19113
 Alpha  occ. eigenvalues --  -10.18565 -10.18285 -10.18025 -10.17975 -10.17817
 Alpha  occ. eigenvalues --  -10.17543 -10.17359 -10.17160 -10.16890 -10.16651
 Alpha  occ. eigenvalues --  -10.16356  -1.02526  -0.93724  -0.91127  -0.83536
 Alpha  occ. eigenvalues --   -0.82426  -0.80268  -0.77655  -0.75151  -0.74592
 Alpha  occ. eigenvalues --   -0.71607  -0.69259  -0.67095  -0.66843  -0.62877
 Alpha  occ. eigenvalues --   -0.61148  -0.59710  -0.57515  -0.56432  -0.55048
 Alpha  occ. eigenvalues --   -0.54371  -0.51382  -0.49570  -0.48838  -0.47627
 Alpha  occ. eigenvalues --   -0.46680  -0.45953  -0.45516  -0.44379  -0.43793
 Alpha  occ. eigenvalues --   -0.43115  -0.42797  -0.42283  -0.41516  -0.40450
 Alpha  occ. eigenvalues --   -0.40260  -0.38779  -0.37996  -0.37946  -0.37725
 Alpha  occ. eigenvalues --   -0.37210  -0.36191  -0.36070  -0.35171  -0.34802
 Alpha  occ. eigenvalues --   -0.34013  -0.33840  -0.33270  -0.32659  -0.32346
 Alpha  occ. eigenvalues --   -0.31108  -0.30260  -0.29399  -0.29218  -0.26748
 Alpha  occ. eigenvalues --   -0.23535  -0.20980  -0.19378
 Alpha virt. eigenvalues --   -0.00078   0.01970   0.04508   0.07191   0.08228
 Alpha virt. eigenvalues --    0.09425   0.10278   0.10833   0.11268   0.11778
 Alpha virt. eigenvalues --    0.12395   0.13639   0.14085   0.15037   0.15849

 Mulliken charges:
               1
     1  C   -0.444927
     2  C   -0.075741
     3  C   -0.252446
     4  C   -0.264499
     5  C   -0.259421
     6  C   -0.094550
     7  C   -0.354063
     8  C    0.579077
     9  O   -0.504293
    10  N   -0.559845
    11  C   -0.132978
    12  C   -0.295138
    13  C   -0.356412
    14  C    0.094111
    15  C    0.215524
    16  N   -0.791572
    17  C   -0.167944
    18  C   -0.153898
    19  C   -0.144894
    20  C    0.266573
    21  C   -0.258766
    22  H    0.139632
    23  H    0.137237
    24  H    0.143497
    25  H    0.114774
    26  H    0.124656
    27  H    0.127076
    28  H    0.126387
    29  H    0.130800
    30  H    0.123608
    31  H    0.130254
    32  H    0.122639
    33  H    0.138165
    34  H    0.165027
    35  H    0.161863
    36  H    0.152707
    37  H    0.160713
    38  H    0.142346
    39  H    0.162080
    40  H    0.142199
    41  H    0.318859
    42  H    0.317309
    43  H    0.109741
    44  H    0.125378
    45  H    0.159665
    46  H    0.152643
    47  H    0.126846
 Sum of Mulliken charges =  -0.00000

 Dipole moment (field-independent basis, Debye):
    X=             -1.2270    Y=             -3.3226    Z=             -0.9264  Tot=              3.6611
 Quadrupole moment (field-independent basis, Debye-Ang):
   XX=           -108.0927   YY=           -122.5471   ZZ=           -133.9156
   XY=              1.0328   XZ=             -3.4573   YZ=             -4.8736

 Normal termination of Gaussian 16 at Fri Nov  4 18:49:03 2022.
