 Gaussian 16, Revision B.01,
 Gaussian 16:  ES64L-G16RevB.01 20-Dec-2017

 -------------------------------------------------------------------
 #p b3lyp/6-31g(d) 6D 10F nosymm GFInput td=(50-50,nstate=2) SCF=XQC
 -------------------------------------------------------------------

 ------------------------------
 Gaussian input prepared by ASE
 ------------------------------
 Symbolic Z-matrix:
 Charge =  0 Multiplicity = 1

                          Input orientation:
 ---------------------------------------------------------------------
 Center     Atomic      Atomic             Coordinates (Angstroms)
 Number     Number       Type             X           Y           Z
 ---------------------------------------------------------------------
      1          7           0       -4.177516    1.778047    1.854024
      2          6           0       -3.243854    1.265792    1.387112
      3          6           0       -2.082550    0.675261    0.825314
      4          6           0       -0.805266    1.178863    0.672269
      5          6           0       -0.065237    0.140675    0.047437
      6          6           0        1.351496    0.133438   -0.350429
      7          6           0        2.179735    1.241946   -0.134446
      8          6           0        3.514254    1.176634   -0.532805
      9          7           0        4.068676    0.108699   -1.117882
     10          6           0        3.269516   -0.948035   -1.321100
     11          6           0        1.924770   -0.989845   -0.963075
     12          7           0       -0.840539   -0.928233   -0.167338
     13          7           0       -2.054704   -0.599222    0.303774
     14          6           0       -3.124788   -1.556990    0.215956
     15          9           0       -3.598002   -1.829211    1.453381
     16          9           0       -4.144297   -1.039170   -0.506346
     17          1           0       -0.472040    2.159896    0.974862
     18          1           0        1.803717    2.145885    0.334784
     19          1           0        4.171147    2.029795   -0.371994
     20          1           0        3.731842   -1.810664   -1.797738
     21          1           0        1.327587   -1.874717   -1.153315
     22          1           0       -2.733946   -2.458842   -0.256566
 ---------------------------------------------------------------------

 SCF Done:  E(RB3LYP) =  -803.318152883     A.U. after   15 cycles

 Excitation energies and oscillator strengths:

 Excited state symmetry could not be determined.
 Excited State   1:      Triplet-?Sym    3.2183 eV  385.25 nm  f=0.0000  <S**2>=2.000
      53 -> 57        -0.27049
      53 -> 58         0.15288
      54 -> 59         0.16373
      55 -> 57         0.55884
      55 -> 58         0.21733
 This state for optimization and/or second-order correction.
 Total Energy, E(TD-HF/TD-DFT) =  -803.199881867
 Copying the excited state density for this state as the 1-particle RhoCI density.

 Excited state symmetry could not be determined.
 Excited State   2:      Triplet-?Sym    3.7691 eV  328.95 nm  f=0.0000  <S**2>=2.000
      56 -> 57         0.44653
      56 -> 58         0.52070
      56 -> 61         0.15625

 Excited state symmetry could not be determined.
 Excited State   3:      Singlet-?Sym    4.3488 eV  285.10 nm  f=0.0019  <S**2>=0.000
      56 -> 57         0.57154
      56 -> 58         0.40892

 Excited state symmetry could not be determined.
 Excited State   4:      Singlet-?Sym    4.8926 eV  253.41 nm  f=0.0006  <S**2>=0.000
      56 -> 57        -0.38678
      56 -> 58         0.55140
      56 -> 59        -0.20870

 Alpha  occ. eigenvalues --  -24.74133 -24.74132 -14.46465 -14.40130 -14.36412
 Alpha  occ. eigenvalues --  -14.33981 -10.41971 -10.29574 -10.26021 -10.25706
 Alpha  occ. eigenvalues --  -10.23734 -10.23626 -10.23444 -10.23292 -10.21506
 Alpha  occ. eigenvalues --  -10.21021  -1.29318  -1.22924  -1.10315  -0.95086
 Alpha  occ. eigenvalues --   -0.93019  -0.89653  -0.84911  -0.82397  -0.77309
 Alpha  occ. eigenvalues --   -0.73721  -0.68528  -0.67149  -0.64215  -0.63152
 Alpha  occ. eigenvalues --   -0.61002  -0.58563  -0.57625  -0.54142  -0.51478
 Alpha  occ. eigenvalues --   -0.49597  -0.49038  -0.48589  -0.47397  -0.45311
 Alpha  occ. eigenvalues --   -0.44776  -0.43957  -0.42714  -0.42499  -0.41117
 Alpha  occ. eigenvalues --   -0.40323  -0.38492  -0.38372  -0.37677  -0.36312
 Alpha  occ. eigenvalues --   -0.33856  -0.33482  -0.29233  -0.27414  -0.26725
 Alpha  occ. eigenvalues --   -0.26513
 Alpha virt. eigenvalues --   -0.07403  -0.05506  -0.02046  -0.00234   0.04529
 Alpha virt. eigenvalues --    0.07447   0.08940   0.09297   0.10998   0.13110
 Alpha virt. eigenvalues --    0.13573   0.14778   0.14921   0.15811   0.15916

 Mulliken charges:
               1
     1  N   -0.460908
     2  C    0.264790
     3  C    0.453602
     4  C   -0.288041
     5  C    0.282466
     6  C    0.145187
     7  C   -0.190964
     8  C    0.036353
     9  N   -0.403324
    10  C    0.037389
    11  C   -0.177530
    12  N   -0.353259
    13  N   -0.358212
    14  C    0.584375
    15  F   -0.261140
    16  F   -0.261140
    17  H    0.178491
    18  H    0.137515
    19  H    0.147439
    20  H    0.148038
    21  H    0.162012
    22  H    0.176859
 Sum of Mulliken charges =  -0.00000

 Dipole moment (field-independent basis, Debye):
    X=              1.2293    Y=             -0.9028    Z=             -0.7068  Tot=              1.6810
 Quadrupole moment (field-independent basis, Debye-Ang):
   XX=           -115.3884   YY=            -80.7753   ZZ=            -93.1591
   XY=              9.9416   XZ=             10.8730   YZ=              1.2312

 Normal termination of Gaussian 16 at Sat Nov  5 11:32:26 2022.
