 Gaussian 16, Revision B.01,
 Gaussian 16:  ES64L-G16RevB.01 20-Dec-2017

 -----------------------------
 #p b3lyp/6-31g(d) opt SCF=XQC
 -----------------------------

 ------------------------------
 Gaussian input prepared by ASE
 ------------------------------
 Symbolic Z-matrix:
 Charge =  0 Multiplicity = 1

 SCF Done:  E(RB3LYP) =  -803.314475702     A.U. after   15 cycles
 SCF Done:  E(RB3LYP) =  -803.317988806     A.U. after   12 cycles
 SCF Done:  E(RB3LYP) =  -803.318085640     A.U. after   12 cycles
 SCF Done:  E(RB3LYP) =  -803.318075510     A.U. after   12 cycles
 SCF Done:  E(RB3LYP) =  -803.318151152     A.U. after   11 cycles
 SCF Done:  E(RB3LYP) =  -803.318151374     A.U. after    9 cycles
 SCF Done:  E(RB3LYP) =  -803.318153132     A.U. after    9 cycles
 Optimization completed.
    -- Stationary point found.

                         Standard orientation:
 ---------------------------------------------------------------------
 Center     Atomic      Atomic             Coordinates (Angstroms)
 Number     Number       Type             X           Y           Z
 ---------------------------------------------------------------------
      1          7           0        3.765115    2.295444   -0.000066
      2          6           0        2.786223    1.667824    0.000037
      3          6           0        1.569839    0.937493    0.000020
      4          6           0        0.260198    1.377188    0.000016
      5          6           0       -0.531130    0.198336    0.000003
      6          6           0       -1.997604    0.076120   -0.000000
      7          6           0       -2.827688    1.204117    0.000015
      8          6           0       -4.210494    1.025940    0.000012
      9          7           0       -4.810448   -0.169985   -0.000006
     10          6           0       -4.009192   -1.244522   -0.000021
     11          6           0       -2.618425   -1.180990   -0.000019
     12          7           0        0.245136   -0.891250   -0.000013
     13          7           0        1.509829   -0.438546   -0.000006
     14          6           0        2.593904   -1.384535    0.000002
     15          9           0        3.369394   -1.191885   -1.091216
     16          9           0        3.369366   -1.191904    1.091243
     17          1           0       -0.060675    2.407755    0.000028
     18          1           0       -2.416393    2.208860    0.000030
     19          1           0       -4.869488    1.892531    0.000024
     20          1           0       -4.508804   -2.211707   -0.000035
     21          1           0       -2.022005   -2.086584   -0.000031
     22          1           0        2.167317   -2.388225   -0.000012
 ---------------------------------------------------------------------

 The electronic state is 1-A.
 Alpha  occ. eigenvalues --  -24.74133 -24.74133 -14.46465 -14.40130 -14.36412
 Alpha  occ. eigenvalues --  -14.33981 -10.41971 -10.29574 -10.26021 -10.25706
 Alpha  occ. eigenvalues --  -10.23734 -10.23626 -10.23444 -10.23292 -10.21506
 Alpha  occ. eigenvalues --  -10.21021  -1.29318  -1.22924  -1.10315  -0.95086
 Alpha  occ. eigenvalues --   -0.93019  -0.89653  -0.84911  -0.82397  -0.77309
 Alpha  occ. eigenvalues --   -0.73721  -0.68528  -0.67149  -0.64215  -0.63152
 Alpha  occ. eigenvalues --   -0.61002  -0.58563  -0.57625  -0.54142  -0.51478
 Alpha  occ. eigenvalues --   -0.49597  -0.49038  -0.48589  -0.47397  -0.45311
 Alpha  occ. eigenvalues --   -0.44777  -0.43957  -0.42715  -0.42499  -0.41117
 Alpha  occ. eigenvalues --   -0.40323  -0.38492  -0.38372  -0.37677  -0.36312
 Alpha  occ. eigenvalues --   -0.33856  -0.33482  -0.29233  -0.27414  -0.26725
 Alpha  occ. eigenvalues --   -0.26513
 Alpha virt. eigenvalues --   -0.07403  -0.05506  -0.02046  -0.00234   0.04529
 Alpha virt. eigenvalues --    0.07447   0.08940   0.09297   0.10998   0.13110
 Alpha virt. eigenvalues --    0.13573   0.14779   0.14921   0.15811   0.15916

 Mulliken charges:
               1
     1  N   -0.460911
     2  C    0.264803
     3  C    0.453583
     4  C   -0.288037
     5  C    0.282470
     6  C    0.145194
     7  C   -0.190971
     8  C    0.036354
     9  N   -0.403322
    10  C    0.037388
    11  C   -0.177533
    12  N   -0.353262
    13  N   -0.358205
    14  C    0.584382
    15  F   -0.261143
    16  F   -0.261144
    17  H    0.178490
    18  H    0.137516
    19  H    0.147439
    20  H    0.148038
    21  H    0.162012
    22  H    0.176859
 Sum of Mulliken charges =  -0.00000

 Dipole moment (field-independent basis, Debye):
    X=             -1.2945    Y=             -1.0725    Z=              0.0001  Tot=              1.6810
 Quadrupole moment (field-independent basis, Debye-Ang):
   XX=           -116.0894   YY=            -81.1589   ZZ=            -90.6434
   XY=            -12.3272   XZ=              0.0004   YZ=              0.0005

 Normal termination of Gaussian 16 at Fri Nov  4 18:36:45 2022.
