 Gaussian 16, Revision B.01,
 Gaussian 16:  ES64L-G16RevB.01 20-Dec-2017

 -------------------------------------------------------------------
 #p b3lyp/6-31g(d) 6D 10F nosymm GFInput td=(50-50,nstate=2) SCF=XQC
 -------------------------------------------------------------------

 ------------------------------
 Gaussian input prepared by ASE
 ------------------------------
 Symbolic Z-matrix:
 Charge =  0 Multiplicity = 1

                          Input orientation:
 ---------------------------------------------------------------------
 Center     Atomic      Atomic             Coordinates (Angstroms)
 Number     Number       Type             X           Y           Z
 ---------------------------------------------------------------------
      1          6           0       -6.959114    0.085121    0.565416
      2          6           0       -6.224596    0.730198   -0.611045
      3          6           0       -6.552064    2.220505   -0.768507
      4          7           0       -4.770033    0.535753   -0.504104
      5          6           0       -3.990357    0.496397    0.597366
      6          6           0       -2.670850    0.385213    0.172581
      7          6           0       -1.547554    0.383991    1.145306
      8          8           0       -1.731829    0.815518    2.286966
      9          7           0       -0.310643   -0.076858    0.759967
     10          6           0       -0.041273   -0.873638   -0.439213
     11          6           0        1.012574   -1.944587   -0.136674
     12          6           0        2.372169   -1.349582    0.317777
     13          8           0        2.958038   -2.207755    1.311855
     14          6           0        3.325578   -1.211565   -0.898601
     15          6           0        4.616796   -0.454752   -0.660716
     16          6           0        4.871680    0.741972   -1.345204
     17          6           0        6.062729    1.443973   -1.147887
     18          6           0        7.027091    0.965744   -0.262010
     19          6           0        6.761399   -0.221627    0.411410
     20          9           0        7.685266   -0.700311    1.273786
     21          6           0        5.586033   -0.937647    0.231035
     22          6           0        2.133086    0.001155    1.021049
     23          6           0        0.784462    0.057765    1.735161
     24          6           0       -2.777401    0.391686   -1.243542
     25          7           0       -4.040504    0.488177   -1.648785
     26          1           0       -6.744193    0.598583    1.509287
     27          1           0       -6.689999   -0.970335    0.674098
     28          1           0       -8.038792    0.148752    0.396736
     29          1           0       -6.496753    0.209270   -1.533989
     30          1           0       -6.279182    2.777302    0.135233
     31          1           0       -7.624861    2.355680   -0.945422
     32          1           0       -6.003614    2.642412   -1.615533
     33          1           0       -4.377523    0.548480    1.602980
     34          1           0       -0.965797   -1.355992   -0.762653
     35          1           0        0.301023   -0.238002   -1.271831
     36          1           0        1.143643   -2.584441   -1.019387
     37          1           0        0.635747   -2.577893    0.674970
     38          1           0        2.968582   -3.109991    0.951888
     39          1           0        2.775055   -0.723752   -1.713367
     40          1           0        3.550194   -2.229320   -1.252363
     41          1           0        4.132948    1.125445   -2.044629
     42          1           0        6.242136    2.368721   -1.689301
     43          1           0        7.962959    1.486686   -0.089287
     44          1           0        5.421401   -1.845604    0.798741
     45          1           0        2.942136    0.165472    1.738514
     46          1           0        2.186607    0.814251    0.287129
     47          1           0        0.721627   -0.729682    2.498607
     48          1           0        0.650111    1.008584    2.254182
     49          1           0       -1.994137    0.350530   -1.987744
 ---------------------------------------------------------------------

 SCF Done:  E(RB3LYP) =  -1153.00944538     A.U. after   15 cycles

 Excitation energies and oscillator strengths:

 Excited state symmetry could not be determined.
 Excited State   1:      Triplet-?Sym    3.7573 eV  329.98 nm  f=0.0000  <S**2>=2.000
      88 -> 93        -0.49444
      88 -> 95         0.10554
      90 -> 93        -0.14487
      90 -> 95        -0.44399
 This state for optimization and/or second-order correction.
 Total Energy, E(TD-HF/TD-DFT) =  -1152.87136581
 Copying the excited state density for this state as the 1-particle RhoCI density.

 Excited state symmetry could not be determined.
 Excited State   2:      Triplet-?Sym    4.1622 eV  297.88 nm  f=0.0000  <S**2>=2.000
      87 -> 96         0.16357
      89 -> 94         0.19925
      91 -> 94        -0.24186
      92 -> 94         0.56469
      92 -> 96        -0.15339

 Excited state symmetry could not be determined.
 Excited State   3:      Singlet-?Sym    4.9105 eV  252.49 nm  f=0.0018  <S**2>=0.000
      89 -> 94         0.29927
      91 -> 94         0.43683
      91 -> 96        -0.11727
      92 -> 94        -0.41754

 Excited state symmetry could not be determined.
 Excited State   4:      Singlet-?Sym    5.3252 eV  232.83 nm  f=0.0300  <S**2>=0.000
      88 -> 95        -0.37209
      90 -> 93         0.56682
      90 -> 95        -0.10664

 Alpha  occ. eigenvalues --  -24.69808 -19.15344 -19.09413 -14.41276 -14.35364
 Alpha  occ. eigenvalues --  -14.34688 -10.27638 -10.26771 -10.25394 -10.24356
 Alpha  occ. eigenvalues --  -10.23054 -10.22203 -10.20920 -10.20854 -10.20497
 Alpha  occ. eigenvalues --  -10.19890 -10.19799 -10.19796 -10.19537 -10.19316
 Alpha  occ. eigenvalues --  -10.19073 -10.18863 -10.18751 -10.18617 -10.18498
 Alpha  occ. eigenvalues --   -1.20935  -1.04801  -1.02786  -1.01567  -0.92612
 Alpha  occ. eigenvalues --   -0.86203  -0.85615  -0.81031  -0.79180  -0.77181
 Alpha  occ. eigenvalues --   -0.76938  -0.75761  -0.74551  -0.70961  -0.70305
 Alpha  occ. eigenvalues --   -0.66476  -0.65410  -0.63248  -0.61412  -0.60838
 Alpha  occ. eigenvalues --   -0.59658  -0.57386  -0.55735  -0.54504  -0.53346
 Alpha  occ. eigenvalues --   -0.52834  -0.50347  -0.49492  -0.48767  -0.48182
 Alpha  occ. eigenvalues --   -0.47874  -0.46649  -0.46250  -0.45594  -0.45242
 Alpha  occ. eigenvalues --   -0.44600  -0.44244  -0.43747  -0.42508  -0.42443
 Alpha  occ. eigenvalues --   -0.41183  -0.40778  -0.40696  -0.39781  -0.39580
 Alpha  occ. eigenvalues --   -0.38896  -0.38649  -0.38456  -0.37740  -0.37463
 Alpha  occ. eigenvalues --   -0.36692  -0.36130  -0.36012  -0.35607  -0.35418
 Alpha  occ. eigenvalues --   -0.34614  -0.34274  -0.33763  -0.31567  -0.29588
 Alpha  occ. eigenvalues --   -0.27674  -0.25492  -0.25048  -0.24545  -0.23938
 Alpha  occ. eigenvalues --   -0.23389  -0.22616
 Alpha virt. eigenvalues --   -0.01042  -0.00060   0.00479   0.02218   0.05895
 Alpha virt. eigenvalues --    0.07984   0.08331   0.08957   0.10324   0.11222
 Alpha virt. eigenvalues --    0.11839   0.12469   0.12888   0.13477   0.13791

 Mulliken charges:
               1
     1  C   -0.465891
     2  C    0.037246
     3  C   -0.440012
     4  N   -0.254873
     5  C    0.085167
     6  C   -0.062802
     7  C    0.550584
     8  O   -0.545798
     9  N   -0.457255
    10  C   -0.145068
    11  C   -0.333119
    12  C    0.339651
    13  O   -0.638844
    14  C   -0.384137
    15  C    0.174751
    16  C   -0.191325
    17  C   -0.129094
    18  C   -0.197166
    19  C    0.382899
    20  F   -0.300519
    21  C   -0.244485
    22  C   -0.310088
    23  C   -0.129839
    24  C    0.007428
    25  N   -0.302304
    26  H    0.157904
    27  H    0.165973
    28  H    0.160238
    29  H    0.167921
    30  H    0.154381
    31  H    0.149640
    32  H    0.175266
    33  H    0.182627
    34  H    0.169117
    35  H    0.143242
    36  H    0.139878
    37  H    0.161996
    38  H    0.385587
    39  H    0.142549
    40  H    0.138275
    41  H    0.123548
    42  H    0.137213
    43  H    0.144694
    44  H    0.149701
    45  H    0.174373
    46  H    0.147509
    47  H    0.161815
    48  H    0.178143
    49  H    0.143303
 Sum of Mulliken charges =  -0.00000

 Dipole moment (field-independent basis, Debye):
    X=             -2.2019    Y=             -1.4923    Z=             -3.0324  Tot=              4.0337
 Quadrupole moment (field-independent basis, Debye-Ang):
   XX=           -134.2674   YY=           -137.7732   ZZ=           -158.1409
   XY=              2.8418   XZ=             -9.4251   YZ=             -1.7977

 Normal termination of Gaussian 16 at Sat Nov  5 11:38:04 2022.
