 Gaussian 16, Revision B.01,
 Gaussian 16:  ES64L-G16RevB.01 20-Dec-2017

 -------------------------------------------------------------------
 #p b3lyp/6-31g(d) 6D 10F nosymm GFInput td=(50-50,nstate=2) SCF=XQC
 -------------------------------------------------------------------

 ------------------------------
 Gaussian input prepared by ASE
 ------------------------------
 Symbolic Z-matrix:
 Charge =  0 Multiplicity = 1

                          Input orientation:
 ---------------------------------------------------------------------
 Center     Atomic      Atomic             Coordinates (Angstroms)
 Number     Number       Type             X           Y           Z
 ---------------------------------------------------------------------
      1          7           0        0.552749    0.000000    0.000000
      2          7           0       -0.552749    0.000000    0.000000
 ---------------------------------------------------------------------

 SCF Done:  E(RB3LYP) =  -109.524128676     A.U. after    8 cycles

 Excitation energies and oscillator strengths:

 Excited state symmetry could not be determined.
 Excited State   1:      Triplet-?Sym    6.9712 eV  177.85 nm  f=0.0000  <S**2>=2.000
       5 ->  8         0.45875
       5 ->  9         0.21346
       6 ->  8         0.21346
       6 ->  9        -0.45875
 This state for optimization and/or second-order correction.
 Total Energy, E(TD-HF/TD-DFT) =  -109.267942399
 Copying the excited state density for this state as the 1-particle RhoCI density.

 Excited state symmetry could not be determined.
 Excited State   2:      Triplet-?Sym    7.4772 eV  165.82 nm  f=0.0000  <S**2>=2.000
       7 ->  8        -0.44912
       7 ->  9         0.54679

 Excited state symmetry could not be determined.
 Excited State   3:      Singlet-?Sym    9.2286 eV  134.35 nm  f=0.0000  <S**2>=0.000
       7 ->  8         0.69014
       7 ->  9        -0.15088

 Excited state symmetry could not be determined.
 Excited State   4:      Singlet-?Sym    9.3001 eV  133.31 nm  f=0.0000  <S**2>=0.000
       5 ->  8        -0.21105
       5 ->  9         0.45356
       6 ->  8         0.45356
       6 ->  9         0.21105

 Alpha  occ. eigenvalues --  -14.44676 -14.44512  -1.12384  -0.55342  -0.46240
 Alpha  occ. eigenvalues --   -0.46240  -0.42688
 Alpha virt. eigenvalues --   -0.02412  -0.02412   0.41366   0.59105   0.60590
 Alpha virt. eigenvalues --    0.60590   0.64005   0.75115   0.75115   0.78521
 Alpha virt. eigenvalues --    1.23891   1.44991   1.44991   1.54800   1.54800

 Mulliken charges:
               1
     1  N    0.000000
     2  N   -0.000000
 Sum of Mulliken charges =  -0.00000

 Dipole moment (field-independent basis, Debye):
    X=              0.0000    Y=             -0.0000    Z=              0.0000  Tot=              0.0000
 Quadrupole moment (field-independent basis, Debye-Ang):
   XX=            -11.6070   YY=            -10.0489   ZZ=            -10.0489
   XY=              0.0000   XZ=              0.0000   YZ=              0.0000

 Normal termination of Gaussian 16 at Fri Nov  4 22:21:52 2022.
