 Gaussian 16, Revision B.01,
 Gaussian 16:  ES64L-G16RevB.01 20-Dec-2017

 -----------------------------
 #p b3lyp/6-31g(d) opt SCF=XQC
 -----------------------------

 ------------------------------
 Gaussian input prepared by ASE
 ------------------------------
 Symbolic Z-matrix:
 Charge =  0 Multiplicity = 1

 SCF Done:  E(RB3LYP) =  -697.280263010     A.U. after   16 cycles
 SCF Done:  E(RB3LYP) =  -697.288385099     A.U. after   14 cycles
 SCF Done:  E(RB3LYP) =  -697.289509368     A.U. after   13 cycles
 SCF Done:  E(RB3LYP) =  -697.290302139     A.U. after   14 cycles
 SCF Done:  E(RB3LYP) =  -697.290871111     A.U. after   14 cycles
 SCF Done:  E(RB3LYP) =  -697.291253216     A.U. after   14 cycles
 SCF Done:  E(RB3LYP) =  -697.291311605     A.U. after   14 cycles
 SCF Done:  E(RB3LYP) =  -697.291537854     A.U. after   13 cycles
 SCF Done:  E(RB3LYP) =  -697.291630392     A.U. after   12 cycles
 SCF Done:  E(RB3LYP) =  -697.291676693     A.U. after   11 cycles
 SCF Done:  E(RB3LYP) =  -697.291673465     A.U. after    9 cycles
 SCF Done:  E(RB3LYP) =  -697.291706675     A.U. after   11 cycles
 SCF Done:  E(RB3LYP) =  -697.291766611     A.U. after   13 cycles
 SCF Done:  E(RB3LYP) =  -697.291781892     A.U. after   12 cycles
 SCF Done:  E(RB3LYP) =  -697.291788543     A.U. after   11 cycles
 SCF Done:  E(RB3LYP) =  -697.291789607     A.U. after   10 cycles
 SCF Done:  E(RB3LYP) =  -697.291789935     A.U. after    9 cycles
 SCF Done:  E(RB3LYP) =  -697.291790029     A.U. after    8 cycles
 SCF Done:  E(RB3LYP) =  -697.291790090     A.U. after    8 cycles
 Optimization completed.
    -- Stationary point found.

                         Standard orientation:
 ---------------------------------------------------------------------
 Center     Atomic      Atomic             Coordinates (Angstroms)
 Number     Number       Type             X           Y           Z
 ---------------------------------------------------------------------
      1          7           0        4.641909   -1.256484    0.693956
      2          7           0        4.060818   -0.454456    0.130554
      3          7           0        3.601247    0.441675   -0.594701
      4          6           0        2.329796    1.027466   -0.187684
      5          6           0        1.187424   -0.012231   -0.113886
      6          8           0        1.431749   -1.200733   -0.066257
      7          7           0       -0.085796    0.530615   -0.065730
      8          6           0       -0.374436    1.983331   -0.097600
      9          6           0       -1.865314    2.108633    0.308936
     10          6           0       -2.380458    0.702620    0.142135
     11          6           0       -3.661632    0.179823    0.171440
     12          6           0       -3.808021   -1.206094    0.017141
     13          6           0       -2.665813   -1.985423   -0.154145
     14          7           0       -1.412733   -1.498710   -0.189421
     15          6           0       -1.307402   -0.187488   -0.041281
     16          1           0        2.116338    1.800571   -0.929588
     17          1           0        2.413696    1.531671    0.788982
     18          1           0       -0.210974    2.374648   -1.109881
     19          1           0        0.282263    2.525157    0.586840
     20          1           0       -1.961323    2.442120    1.350346
     21          1           0       -2.388996    2.840639   -0.313951
     22          1           0       -4.528166    0.821687    0.310541
     23          1           0       -4.789405   -1.669404    0.029108
     24          1           0       -2.750404   -3.063523   -0.275283
 ---------------------------------------------------------------------

 The electronic state is 1-A.
 Alpha  occ. eigenvalues --  -19.12745 -14.50441 -14.39893 -14.39010 -14.37564
 Alpha  occ. eigenvalues --  -14.33222 -10.30265 -10.26809 -10.25544 -10.25088
 Alpha  occ. eigenvalues --  -10.22762 -10.22343 -10.21717 -10.21356 -10.20150
 Alpha  occ. eigenvalues --   -1.13068  -1.05081  -0.98619  -0.97178  -0.93134
 Alpha  occ. eigenvalues --   -0.83497  -0.79224  -0.76873  -0.75255  -0.67034
 Alpha  occ. eigenvalues --   -0.66045  -0.62332  -0.58668  -0.54230  -0.52453
 Alpha  occ. eigenvalues --   -0.51787  -0.51070  -0.50149  -0.48733  -0.48447
 Alpha  occ. eigenvalues --   -0.46707  -0.45571  -0.43745  -0.42644  -0.41955
 Alpha  occ. eigenvalues --   -0.41552  -0.41035  -0.40615  -0.39883  -0.37752
 Alpha  occ. eigenvalues --   -0.37363  -0.31069  -0.30032  -0.28750  -0.27955
 Alpha  occ. eigenvalues --   -0.25548  -0.23910  -0.22807
 Alpha virt. eigenvalues --   -0.03363  -0.02112  -0.01698   0.01782   0.03388
 Alpha virt. eigenvalues --    0.06805   0.09012   0.09365   0.10718   0.11762
 Alpha virt. eigenvalues --    0.12814   0.13399   0.15572   0.16587   0.17556

 Mulliken charges:
               1
     1  N   -0.247360
     2  N    0.414476
     3  N   -0.352720
     4  C   -0.245104
     5  C    0.583680
     6  O   -0.449548
     7  N   -0.541807
     8  C   -0.141647
     9  C   -0.369414
    10  C    0.087425
    11  C   -0.159154
    12  C   -0.153380
    13  C    0.034898
    14  N   -0.458370
    15  C    0.520196
    16  H    0.185609
    17  H    0.177788
    18  H    0.171935
    19  H    0.167583
    20  H    0.174870
    21  H    0.170458
    22  H    0.141440
    23  H    0.139835
    24  H    0.148310
 Sum of Mulliken charges =  -0.00000

 Dipole moment (field-independent basis, Debye):
    X=             -4.9802    Y=              5.5370    Z=              0.5817  Tot=              7.4699
 Quadrupole moment (field-independent basis, Debye-Ang):
   XX=            -86.6123   YY=            -81.5695   ZZ=            -85.7959
   XY=              6.6578   XZ=              0.1959   YZ=              1.5766

 Normal termination of Gaussian 16 at Fri Nov  4 18:32:26 2022.
