 Gaussian 16, Revision B.01,
 Gaussian 16:  ES64L-G16RevB.01 20-Dec-2017

 -------------------------------------------------------------------
 #p b3lyp/6-31g(d) 6D 10F nosymm GFInput td=(50-50,nstate=2) SCF=XQC
 -------------------------------------------------------------------

 ------------------------------
 Gaussian input prepared by ASE
 ------------------------------
 Symbolic Z-matrix:
 Charge =  0 Multiplicity = 1

                          Input orientation:
 ---------------------------------------------------------------------
 Center     Atomic      Atomic             Coordinates (Angstroms)
 Number     Number       Type             X           Y           Z
 ---------------------------------------------------------------------
      1          7           0        5.328409    0.904219   -0.611693
      2          7           0        4.636772    0.161489   -0.093691
      3          7           0        4.051486   -0.701384    0.579468
      4          6           0        2.710032   -1.073007    0.146107
      5          6           0        1.729079    0.122460    0.141904
      6          8           0        2.141747    1.264263    0.164006
      7          7           0        0.391190   -0.228084    0.069336
      8          6           0       -0.103258   -1.623571    0.015957
      9          6           0       -1.595698   -1.508846   -0.387962
     10          6           0       -1.903874   -0.056054   -0.134011
     11          6           0       -3.096565    0.646064   -0.123887
     12          6           0       -3.042671    2.026817    0.114059
     13          6           0       -1.800751    2.622359    0.324522
     14          7           0       -0.630692    1.959560    0.322697
     15          6           0       -0.714500    0.658115    0.095630
     16          1           0        2.385943   -1.850689    0.841704
     17          1           0        2.722942   -1.524339   -0.859513
     18          1           0       -0.000128   -2.094499    1.001935
     19          1           0        0.470405   -2.211883   -0.703825
     20          1           0       -1.736146   -1.761818   -1.446851
     21          1           0       -2.220604   -2.194230    0.193249
     22          1           0       -4.045998    0.144797   -0.295725
     23          1           0       -3.947272    2.626090    0.136040
     24          1           0       -1.729849    3.692172    0.510543
 ---------------------------------------------------------------------

 SCF Done:  E(RB3LYP) =  -697.291790778     A.U. after   16 cycles

 Excitation energies and oscillator strengths:

 Excited state symmetry could not be determined.
 Excited State   1:      Triplet-?Sym    3.5926 eV  345.11 nm  f=0.0000  <S**2>=2.000
      49 -> 54        -0.25917
      49 -> 55         0.11159
      53 -> 54         0.15437
      53 -> 55         0.44390
      53 -> 56         0.39762
 This state for optimization and/or second-order correction.
 Total Energy, E(TD-HF/TD-DFT) =  -697.159765039
 Copying the excited state density for this state as the 1-particle RhoCI density.

 Excited state symmetry could not be determined.
 Excited State   2:      Triplet-?Sym    3.7650 eV  329.31 nm  f=0.0000  <S**2>=2.000
      53 -> 54         0.67096
      53 -> 55        -0.14376

 Excited state symmetry could not be determined.
 Excited State   3:      Singlet-?Sym    4.4098 eV  281.15 nm  f=0.0002  <S**2>=0.000
      51 -> 55         0.25022
      51 -> 56        -0.28573
      52 -> 54         0.32306
      52 -> 55         0.37371
      52 -> 56        -0.25746
      53 -> 54         0.10700
      53 -> 55         0.12200
      53 -> 56        -0.10643

 Excited state symmetry could not be determined.
 Excited State   4:      Singlet-?Sym    4.5278 eV  273.83 nm  f=0.0034  <S**2>=0.000
      51 -> 54        -0.28389
      51 -> 55        -0.15336
      51 -> 56         0.10028
      52 -> 54         0.49376
      52 -> 56         0.27554
      53 -> 54         0.17377

 Alpha  occ. eigenvalues --  -19.12745 -14.50441 -14.39893 -14.39010 -14.37564
 Alpha  occ. eigenvalues --  -14.33222 -10.30265 -10.26809 -10.25544 -10.25088
 Alpha  occ. eigenvalues --  -10.22762 -10.22343 -10.21717 -10.21356 -10.20150
 Alpha  occ. eigenvalues --   -1.13068  -1.05081  -0.98619  -0.97178  -0.93134
 Alpha  occ. eigenvalues --   -0.83497  -0.79224  -0.76873  -0.75255  -0.67034
 Alpha  occ. eigenvalues --   -0.66045  -0.62332  -0.58668  -0.54230  -0.52453
 Alpha  occ. eigenvalues --   -0.51787  -0.51070  -0.50149  -0.48733  -0.48447
 Alpha  occ. eigenvalues --   -0.46707  -0.45571  -0.43745  -0.42644  -0.41955
 Alpha  occ. eigenvalues --   -0.41553  -0.41035  -0.40615  -0.39883  -0.37752
 Alpha  occ. eigenvalues --   -0.37363  -0.31069  -0.30032  -0.28750  -0.27955
 Alpha  occ. eigenvalues --   -0.25548  -0.23910  -0.22807
 Alpha virt. eigenvalues --   -0.03363  -0.02112  -0.01698   0.01782   0.03388
 Alpha virt. eigenvalues --    0.06805   0.09012   0.09365   0.10718   0.11762
 Alpha virt. eigenvalues --    0.12814   0.13399   0.15572   0.16587   0.17556

 Mulliken charges:
               1
     1  N   -0.247362
     2  N    0.414473
     3  N   -0.352711
     4  C   -0.245113
     5  C    0.583681
     6  O   -0.449543
     7  N   -0.541818
     8  C   -0.141635
     9  C   -0.369402
    10  C    0.087423
    11  C   -0.159165
    12  C   -0.153369
    13  C    0.034883
    14  N   -0.458350
    15  C    0.520182
    16  H    0.185611
    17  H    0.177790
    18  H    0.171933
    19  H    0.167581
    20  H    0.174869
    21  H    0.170456
    22  H    0.141439
    23  H    0.139836
    24  H    0.148311
 Sum of Mulliken charges =  -0.00000

 Dipole moment (field-independent basis, Debye):
    X=             -5.7227    Y=             -4.7195    Z=             -0.8809  Tot=              7.4699
 Quadrupole moment (field-independent basis, Debye-Ang):
   XX=            -94.7252   YY=            -82.7068   ZZ=            -85.6464
   XY=             -9.9150   XZ=             -1.0015   YZ=              1.5064

 Normal termination of Gaussian 16 at Sat Nov  5 11:22:44 2022.
