 Gaussian 16, Revision B.01,
 Gaussian 16:  ES64L-G16RevB.01 20-Dec-2017

 -------------------------------------------------------------------
 #p b3lyp/6-31g(d) 6D 10F nosymm GFInput td=(50-50,nstate=2) SCF=XQC
 -------------------------------------------------------------------

 ------------------------------
 Gaussian input prepared by ASE
 ------------------------------
 Symbolic Z-matrix:
 Charge =  0 Multiplicity = 1

                          Input orientation:
 ---------------------------------------------------------------------
 Center     Atomic      Atomic             Coordinates (Angstroms)
 Number     Number       Type             X           Y           Z
 ---------------------------------------------------------------------
      1          6           0       -1.901565    0.970176    1.427971
      2          6           0       -1.975708    0.756072   -0.088357
      3          6           0       -3.429663    0.563295   -0.564236
      4          8           0       -3.458859   -0.033373   -1.844602
      5          6           0       -3.095590   -1.404393   -1.768287
      6          6           0       -1.861986   -1.670830   -0.849872
      7          6           0       -2.204114   -2.447785    0.428933
      8          7           0       -1.174289   -0.392989   -0.577771
      9          6           0        0.153775   -0.313603   -0.860866
     10          8           0        0.812779   -1.296188   -1.239821
     11          6           0        0.842894    1.027298   -0.774896
     12          6           0        0.686584    1.900860   -1.862520
     13          6           0        1.366965    3.114607   -1.907866
     14          6           0        2.204119    3.476473   -0.850828
     15          6           0        2.356411    2.619724    0.235482
     16          6           0        1.701423    1.378728    0.280663
     17          6           0        1.922486    0.578459    1.556742
     18          8           0        1.501959    1.034632    2.611449
     19          6           0        2.753341   -0.636343    1.519775
     20          7           0        3.378759   -1.149095    2.579652
     21          6           0        4.077772   -2.213437    2.104856
     22          6           0        3.873796   -2.364554    0.741991
     23          7           0        3.053277   -1.341448    0.376879
     24          1           0       -2.257789    0.091602    1.975112
     25          1           0       -2.536504    1.820874    1.705873
     26          1           0       -0.884958    1.190989    1.763186
     27          1           0       -1.585023    1.645171   -0.587418
     28          1           0       -4.006016   -0.037307    0.158903
     29          1           0       -3.918439    1.538000   -0.647711
     30          1           0       -3.952070   -1.998354   -1.409213
     31          1           0       -2.879815   -1.706693   -2.796728
     32          1           0       -1.135843   -2.263660   -1.406541
     33          1           0       -2.607506   -3.431875    0.162635
     34          1           0       -1.305464   -2.602352    1.034016
     35          1           0       -2.953291   -1.939998    1.044994
     36          1           0        0.023737    1.617676   -2.676262
     37          1           0        1.240301    3.774881   -2.761132
     38          1           0        2.732216    4.425631   -0.869187
     39          1           0        2.991047    2.904552    1.069381
     40          1           0        4.698452   -2.817827    2.753390
     41          1           0        4.227908   -3.097195    0.031565
     42          1           0        2.524491   -1.270399   -0.498383
 ---------------------------------------------------------------------

 SCF Done:  E(RB3LYP) =  -1049.16579603     A.U. after   14 cycles

 Excitation energies and oscillator strengths:

 Excited state symmetry could not be determined.
 Excited State   1:      Triplet-?Sym    3.0091 eV  412.04 nm  f=0.0000  <S**2>=2.000
      83 -> 84         0.66399
      83 -> 86        -0.11232
 This state for optimization and/or second-order correction.
 Total Energy, E(TD-HF/TD-DFT) =  -1049.05521533
 Copying the excited state density for this state as the 1-particle RhoCI density.

 Excited state symmetry could not be determined.
 Excited State   2:      Triplet-?Sym    3.1548 eV  393.01 nm  f=0.0000  <S**2>=2.000
      77 -> 84         0.12011
      82 -> 84         0.65387

 Excited state symmetry could not be determined.
 Excited State   3:      Singlet-?Sym    3.6900 eV  336.00 nm  f=0.0083  <S**2>=0.000
      77 -> 84         0.14122
      82 -> 84         0.64695
      83 -> 84        -0.16156

 Excited state symmetry could not be determined.
 Excited State   4:      Singlet-?Sym    4.4390 eV  279.30 nm  f=0.2558  <S**2>=0.000
      77 -> 84         0.15182
      80 -> 84         0.10603
      82 -> 84         0.10310
      83 -> 84         0.65140

 Alpha  occ. eigenvalues --  -19.16305 -19.13606 -19.13576 -14.38500 -14.38283
 Alpha  occ. eigenvalues --  -14.31472 -10.30719 -10.28088 -10.24707 -10.24533
 Alpha  occ. eigenvalues --  -10.24071 -10.23764 -10.23674 -10.22186 -10.22107
 Alpha  occ. eigenvalues --  -10.21708 -10.21042 -10.20761 -10.20663 -10.20584
 Alpha  occ. eigenvalues --  -10.20047 -10.19106 -10.18395  -1.05768  -1.04738
 Alpha  occ. eigenvalues --   -1.03750  -1.00944  -0.94644  -0.87451  -0.86785
 Alpha  occ. eigenvalues --   -0.81057  -0.78423  -0.77676  -0.75963  -0.74820
 Alpha  occ. eigenvalues --   -0.71504  -0.67846  -0.66133  -0.64345  -0.63512
 Alpha  occ. eigenvalues --   -0.61984  -0.60497  -0.59558  -0.57976  -0.55774
 Alpha  occ. eigenvalues --   -0.55023  -0.51857  -0.50747  -0.49132  -0.48240
 Alpha  occ. eigenvalues --   -0.47581  -0.47276  -0.46064  -0.45945  -0.45088
 Alpha  occ. eigenvalues --   -0.44278  -0.43775  -0.43225  -0.42426  -0.42284
 Alpha  occ. eigenvalues --   -0.42054  -0.41631  -0.41197  -0.40356  -0.39689
 Alpha  occ. eigenvalues --   -0.39132  -0.38233  -0.37772  -0.37283  -0.36681
 Alpha  occ. eigenvalues --   -0.36589  -0.35705  -0.34334  -0.32461  -0.28715
 Alpha  occ. eigenvalues --   -0.28203  -0.27224  -0.26961  -0.26491  -0.25754
 Alpha  occ. eigenvalues --   -0.25395  -0.24568  -0.22746
 Alpha virt. eigenvalues --   -0.05399  -0.02366  -0.01848   0.00593   0.05306
 Alpha virt. eigenvalues --    0.06904   0.08379   0.09109   0.09470   0.10304
 Alpha virt. eigenvalues --    0.11150   0.12532   0.12630   0.12763   0.13875

 Mulliken charges:
               1
     1  C   -0.476157
     2  C    0.029498
     3  C   -0.063091
     4  O   -0.464380
     5  C   -0.031783
     6  C   -0.021670
     7  C   -0.457615
     8  N   -0.420922
     9  C    0.516318
    10  O   -0.541620
    11  C    0.015127
    12  C   -0.162149
    13  C   -0.125306
    14  C   -0.125509
    15  C   -0.152756
    16  C    0.039076
    17  C    0.315462
    18  O   -0.454745
    19  C    0.424296
    20  N   -0.441911
    21  C   -0.020675
    22  C    0.032446
    23  N   -0.613976
    24  H    0.155210
    25  H    0.148603
    26  H    0.197188
    27  H    0.166248
    28  H    0.131217
    29  H    0.161552
    30  H    0.133547
    31  H    0.156600
    32  H    0.193748
    33  H    0.152966
    34  H    0.172869
    35  H    0.152249
    36  H    0.151276
    37  H    0.141879
    38  H    0.142767
    39  H    0.160091
    40  H    0.139589
    41  H    0.160992
    42  H    0.383452
 Sum of Mulliken charges =  -0.00000

 Dipole moment (field-independent basis, Debye):
    X=             -2.2354    Y=             -0.0026    Z=             -3.8905  Tot=              4.4870
 Quadrupole moment (field-independent basis, Debye-Ang):
   XX=           -127.4094   YY=           -118.4514   ZZ=           -149.4554
   XY=              1.6558   XZ=            -12.2810   YZ=             -3.7027

 Normal termination of Gaussian 16 at Sat Nov  5 11:29:34 2022.
