 Gaussian 16, Revision B.01,
 Gaussian 16:  ES64L-G16RevB.01 20-Dec-2017

 -----------------------------
 #p b3lyp/6-31g(d) opt SCF=XQC
 -----------------------------

 ------------------------------
 Gaussian input prepared by ASE
 ------------------------------
 Symbolic Z-matrix:
 Charge =  0 Multiplicity = 1

 SCF Done:  E(RB3LYP) =  -1049.15834308     A.U. after   15 cycles
 SCF Done:  E(RB3LYP) =  -1049.15960764     A.U. after   14 cycles
 SCF Done:  E(RB3LYP) =  -1049.15063951     A.U. after   16 cycles
 SCF Done:  E(RB3LYP) =  -1049.14281377     A.U. after   14 cycles
 SCF Done:  E(RB3LYP) =  -1049.15001946     A.U. after   13 cycles
 SCF Done:  E(RB3LYP) =  -1049.16025542     A.U. after   11 cycles
 SCF Done:  E(RB3LYP) =  -1049.16267789     A.U. after   12 cycles
 SCF Done:  E(RB3LYP) =  -1049.16416920     A.U. after   14 cycles
 SCF Done:  E(RB3LYP) =  -1049.16508372     A.U. after   13 cycles
 SCF Done:  E(RB3LYP) =  -1049.16549163     A.U. after   12 cycles
 SCF Done:  E(RB3LYP) =  -1049.16577818     A.U. after   10 cycles
 SCF Done:  E(RB3LYP) =  -1049.16578150     A.U. after   10 cycles
 SCF Done:  E(RB3LYP) =  -1049.16578417     A.U. after    9 cycles
 SCF Done:  E(RB3LYP) =  -1049.16578797     A.U. after   10 cycles
 SCF Done:  E(RB3LYP) =  -1049.16579099     A.U. after   10 cycles
 SCF Done:  E(RB3LYP) =  -1049.16579196     A.U. after    8 cycles
 SCF Done:  E(RB3LYP) =  -1049.16579212     A.U. after    7 cycles
 SCF Done:  E(RB3LYP) =  -1049.16579232     A.U. after    7 cycles
 SCF Done:  E(RB3LYP) =  -1049.16579247     A.U. after    8 cycles
 SCF Done:  E(RB3LYP) =  -1049.16579251     A.U. after    7 cycles
 Optimization completed.
    -- Stationary point found.

                         Standard orientation:
 ---------------------------------------------------------------------
 Center     Atomic      Atomic             Coordinates (Angstroms)
 Number     Number       Type             X           Y           Z
 ---------------------------------------------------------------------
      1          6           0       -1.644726    0.230393    2.285611
      2          6           0       -2.236937    0.458773    0.890005
      3          6           0       -3.765767    0.258214    0.882069
      4          8           0       -4.234348    0.059114   -0.435882
      5          6           0       -3.866668   -1.228085   -0.910660
      6          6           0       -2.392021   -1.616165   -0.577398
      7          6           0       -2.272177   -2.762604    0.436194
      8          7           0       -1.653022   -0.406417   -0.164809
      9          6           0       -0.503951   -0.106946   -0.828248
     10          8           0       -0.015694   -0.861072   -1.686308
     11          6           0        0.172208    1.216926   -0.562800
     12          6           0       -0.349656    2.346539   -1.212494
     13          6           0        0.273071    3.586650   -1.100725
     14          6           0        1.423178    3.713534   -0.319535
     15          6           0        1.940812    2.599862    0.335500
     16          6           0        1.341873    1.336597    0.206838
     17          6           0        1.989461    0.228927    1.026213
     18          8           0        1.958134    0.311850    2.246658
     19          6           0        2.756981   -0.826901    0.345354
     20          7           0        3.709541   -1.555227    0.928081
     21          6           0        4.202342   -2.355027   -0.053929
     22          6           0        3.541136   -2.125134   -1.250507
     23          7           0        2.644775   -1.133856   -0.991258
     24          1           0       -1.790285   -0.801924    2.619208
     25          1           0       -2.145190    0.890979    3.004796
     26          1           0       -0.574934    0.451713    2.319969
     27          1           0       -2.042458    1.490830    0.591293
     28          1           0       -4.057375   -0.584319    1.530868
     29          1           0       -4.253624    1.157184    1.269065
     30          1           0       -4.546728   -1.988598   -0.493024
     31          1           0       -4.018533   -1.194161   -1.992982
     32          1           0       -1.902102   -1.940900   -1.495623
     33          1           0       -2.742373   -3.664312    0.026424
     34          1           0       -1.219990   -2.989166    0.634087
     35          1           0       -2.763223   -2.538438    1.388699
     36          1           0       -1.252296    2.242515   -1.809281
     37          1           0       -0.140124    4.448598   -1.616848
     38          1           0        1.912327    4.677923   -0.215563
     39          1           0        2.823918    2.696589    0.960036
     40          1           0        5.008692   -3.051669    0.134790
     41          1           0        3.628863   -2.577956   -2.227297
     42          1           0        1.846679   -0.868833   -1.577391
 ---------------------------------------------------------------------

 The electronic state is 1-A.
 Alpha  occ. eigenvalues --  -19.16305 -19.13606 -19.13576 -14.38500 -14.38283
 Alpha  occ. eigenvalues --  -14.31472 -10.30719 -10.28088 -10.24707 -10.24533
 Alpha  occ. eigenvalues --  -10.24071 -10.23764 -10.23674 -10.22186 -10.22107
 Alpha  occ. eigenvalues --  -10.21708 -10.21042 -10.20761 -10.20662 -10.20584
 Alpha  occ. eigenvalues --  -10.20047 -10.19106 -10.18395  -1.05768  -1.04738
 Alpha  occ. eigenvalues --   -1.03750  -1.00944  -0.94644  -0.87451  -0.86785
 Alpha  occ. eigenvalues --   -0.81057  -0.78423  -0.77676  -0.75963  -0.74820
 Alpha  occ. eigenvalues --   -0.71504  -0.67846  -0.66133  -0.64345  -0.63512
 Alpha  occ. eigenvalues --   -0.61984  -0.60497  -0.59558  -0.57976  -0.55774
 Alpha  occ. eigenvalues --   -0.55023  -0.51856  -0.50747  -0.49132  -0.48240
 Alpha  occ. eigenvalues --   -0.47581  -0.47276  -0.46064  -0.45945  -0.45088
 Alpha  occ. eigenvalues --   -0.44278  -0.43775  -0.43225  -0.42426  -0.42284
 Alpha  occ. eigenvalues --   -0.42054  -0.41631  -0.41197  -0.40356  -0.39689
 Alpha  occ. eigenvalues --   -0.39132  -0.38233  -0.37772  -0.37283  -0.36681
 Alpha  occ. eigenvalues --   -0.36589  -0.35705  -0.34334  -0.32461  -0.28715
 Alpha  occ. eigenvalues --   -0.28203  -0.27225  -0.26961  -0.26491  -0.25754
 Alpha  occ. eigenvalues --   -0.25395  -0.24568  -0.22746
 Alpha virt. eigenvalues --   -0.05399  -0.02366  -0.01848   0.00593   0.05306
 Alpha virt. eigenvalues --    0.06904   0.08378   0.09109   0.09470   0.10304
 Alpha virt. eigenvalues --    0.11150   0.12532   0.12630   0.12763   0.13875

 Mulliken charges:
               1
     1  C   -0.476166
     2  C    0.029514
     3  C   -0.063083
     4  O   -0.464377
     5  C   -0.031809
     6  C   -0.021630
     7  C   -0.457621
     8  N   -0.420936
     9  C    0.516337
    10  O   -0.541627
    11  C    0.015088
    12  C   -0.162153
    13  C   -0.125299
    14  C   -0.125510
    15  C   -0.152758
    16  C    0.039111
    17  C    0.315439
    18  O   -0.454747
    19  C    0.424313
    20  N   -0.441909
    21  C   -0.020678
    22  C    0.032448
    23  N   -0.613983
    24  H    0.155210
    25  H    0.148603
    26  H    0.197187
    27  H    0.166248
    28  H    0.131215
    29  H    0.161550
    30  H    0.133548
    31  H    0.156602
    32  H    0.193744
    33  H    0.152966
    34  H    0.172867
    35  H    0.152248
    36  H    0.151278
    37  H    0.141878
    38  H    0.142767
    39  H    0.160091
    40  H    0.139589
    41  H    0.160992
    42  H    0.383452
 Sum of Mulliken charges =  -0.00000

 Dipole moment (field-independent basis, Debye):
    X=             -3.4395    Y=              0.8875    Z=             -2.7414  Tot=              4.4870
 Quadrupole moment (field-independent basis, Debye-Ang):
   XX=           -135.5575   YY=           -118.1555   ZZ=           -139.7978
   XY=              5.3044   XZ=            -14.9401   YZ=              3.0152

 Normal termination of Gaussian 16 at Fri Nov  4 18:58:40 2022.
