 Gaussian 16, Revision B.01,
 Gaussian 16:  ES64L-G16RevB.01 20-Dec-2017

 -----------------------------
 #p b3lyp/6-31g(d) opt SCF=XQC
 -----------------------------

 ------------------------------
 Gaussian input prepared by ASE
 ------------------------------
 Symbolic Z-matrix:
 Charge =  0 Multiplicity = 1

 SCF Done:  E(RB3LYP) =  -733.628889501     A.U. after   13 cycles
 SCF Done:  E(RB3LYP) =  -733.633374859     A.U. after   12 cycles
 SCF Done:  E(RB3LYP) =  -733.633927890     A.U. after   11 cycles
 SCF Done:  E(RB3LYP) =  -733.634034820     A.U. after   11 cycles
 SCF Done:  E(RB3LYP) =  -733.634071479     A.U. after   11 cycles
 SCF Done:  E(RB3LYP) =  -733.634084176     A.U. after   10 cycles
 SCF Done:  E(RB3LYP) =  -733.634089755     A.U. after   10 cycles
 SCF Done:  E(RB3LYP) =  -733.634090896     A.U. after    8 cycles
 SCF Done:  E(RB3LYP) =  -733.634091649     A.U. after    7 cycles
 SCF Done:  E(RB3LYP) =  -733.634092455     A.U. after    7 cycles
 SCF Done:  E(RB3LYP) =  -733.634115813     A.U. after    9 cycles
 SCF Done:  E(RB3LYP) =  -733.634117307     A.U. after    9 cycles
 SCF Done:  E(RB3LYP) =  -733.634117746     A.U. after    7 cycles
 SCF Done:  E(RB3LYP) =  -733.634119787     A.U. after   10 cycles
 SCF Done:  E(RB3LYP) =  -733.634120666     A.U. after   10 cycles
 SCF Done:  E(RB3LYP) =  -733.634119726     A.U. after   10 cycles
 SCF Done:  E(RB3LYP) =  -733.634119879     A.U. after   10 cycles
 SCF Done:  E(RB3LYP) =  -733.634120706     A.U. after    7 cycles
 SCF Done:  E(RB3LYP) =  -733.634120758     A.U. after    7 cycles
 SCF Done:  E(RB3LYP) =  -733.634120759     A.U. after    6 cycles
 Optimization completed.
    -- Stationary point found.

                         Standard orientation:
 ---------------------------------------------------------------------
 Center     Atomic      Atomic             Coordinates (Angstroms)
 Number     Number       Type             X           Y           Z
 ---------------------------------------------------------------------
      1          6           0       -5.439246    1.090720   -0.590875
      2          6           0       -4.143425    0.391821   -0.249516
      3          6           0       -3.320621   -0.131767   -1.259006
      4          6           0       -2.116020   -0.759456   -0.954861
      5          6           0       -1.688342   -0.887362    0.374058
      6          6           0       -0.400848   -1.623225    0.711121
      7          7           0        0.705142   -1.275064   -0.170037
      8          6           0        1.778751   -2.270986   -0.304371
      9          6           0        3.144604   -1.778274    0.182919
     10          7           0        3.530830   -0.560082   -0.544656
     11          6           0        2.395826    0.254837   -1.029194
     12          6           0        2.819730    1.732529   -1.205075
     13          6           0        2.378631    2.649594   -0.043193
     14          6           0        2.385401    1.904858    1.297334
     15          6           0        1.385851    0.723239    1.290477
     16          6           0        1.147471    0.128566   -0.132902
     17          6           0       -2.502251   -0.363009    1.381221
     18          6           0       -3.713494    0.262354    1.074665
     19          1           0       -6.069262    1.221146    0.295019
     20          1           0       -6.015898    0.527215   -1.333813
     21          1           0       -5.257738    2.087461   -1.014672
     22          1           0       -3.632257   -0.046646   -2.298434
     23          1           0       -1.484820   -1.152741   -1.747233
     24          1           0       -0.577727   -2.700501    0.592715
     25          1           0       -0.178304   -1.468984    1.784228
     26          1           0        1.880927   -2.572997   -1.358421
     27          1           0        1.510585   -3.173770    0.255120
     28          1           0        3.101880   -1.627876    1.274650
     29          1           0        3.891341   -2.564620    0.001745
     30          1           0        4.144736    0.006394    0.032634
     31          1           0        2.113751   -0.142180   -2.013359
     32          1           0        3.911430    1.757964   -1.319853
     33          1           0        2.411668    2.118718   -2.146244
     34          1           0        3.027397    3.532825    0.001120
     35          1           0        1.363935    3.025576   -0.232651
     36          1           0        2.147944    2.592650    2.118015
     37          1           0        3.401958    1.538667    1.498564
     38          1           0        1.733967   -0.057272    1.976118
     39          1           0        0.419678    1.062950    1.683458
     40          1           0        0.351311    0.724179   -0.601897
     41          1           0       -2.190724   -0.448364    2.420610
     42          1           0       -4.329691    0.659586    1.878610
 ---------------------------------------------------------------------

 The electronic state is 1-A.
 Alpha  occ. eigenvalues --  -14.31256 -14.30606 -10.20701 -10.20386 -10.20209
 Alpha  occ. eigenvalues --  -10.20098 -10.20027 -10.18954 -10.18405 -10.18057
 Alpha  occ. eigenvalues --  -10.17996 -10.17974 -10.17967 -10.17911 -10.17826
 Alpha  occ. eigenvalues --  -10.17789 -10.17689 -10.17221  -0.92664  -0.87790
 Alpha  occ. eigenvalues --   -0.84541  -0.80891  -0.77351  -0.74108  -0.73378
 Alpha  occ. eigenvalues --   -0.72963  -0.71568  -0.67207  -0.63611  -0.62941
 Alpha  occ. eigenvalues --   -0.60053  -0.59747  -0.56616  -0.56036  -0.51943
 Alpha  occ. eigenvalues --   -0.49958  -0.49136  -0.47384  -0.46965  -0.46041
 Alpha  occ. eigenvalues --   -0.44567  -0.44374  -0.43267  -0.42171  -0.41504
 Alpha  occ. eigenvalues --   -0.41369  -0.40827  -0.40099  -0.39316  -0.37642
 Alpha  occ. eigenvalues --   -0.37630  -0.37115  -0.36475  -0.36083  -0.35489
 Alpha  occ. eigenvalues --   -0.34540  -0.34394  -0.33611  -0.32809  -0.32382
 Alpha  occ. eigenvalues --   -0.30904  -0.30634  -0.29905  -0.24099  -0.22793
 Alpha  occ. eigenvalues --   -0.20366  -0.19081
 Alpha virt. eigenvalues --    0.00599   0.00639   0.06576   0.09187   0.10399
 Alpha virt. eigenvalues --    0.10784   0.11645   0.12226   0.12576   0.13106
 Alpha virt. eigenvalues --    0.14447   0.14564   0.14694   0.15217   0.15788

 Mulliken charges:
               1
     1  C   -0.529838
     2  C    0.178681
     3  C   -0.180726
     4  C   -0.165077
     5  C    0.147632
     6  C   -0.198117
     7  N   -0.420932
     8  C   -0.134450
     9  C   -0.129816
    10  N   -0.578416
    11  C    0.032017
    12  C   -0.300595
    13  C   -0.263157
    14  C   -0.269742
    15  C   -0.286435
    16  C    0.051385
    17  C   -0.188551
    18  C   -0.183143
    19  H    0.153521
    20  H    0.158083
    21  H    0.162476
    22  H    0.118894
    23  H    0.136098
    24  H    0.150252
    25  H    0.119729
    26  H    0.145267
    27  H    0.134222
    28  H    0.119860
    29  H    0.134554
    30  H    0.295398
    31  H    0.137057
    32  H    0.142019
    33  H    0.140281
    34  H    0.132315
    35  H    0.137806
    36  H    0.133756
    37  H    0.122217
    38  H    0.135133
    39  H    0.141335
    40  H    0.131588
    41  H    0.119363
    42  H    0.118057
 Sum of Mulliken charges =  -0.00000

 Dipole moment (field-independent basis, Debye):
    X=             -0.2415    Y=              0.5704    Z=              1.0569  Tot=              1.2250
 Quadrupole moment (field-independent basis, Debye-Ang):
   XX=           -108.4399   YY=           -107.9964   ZZ=           -108.0574
   XY=             -1.1873   XZ=              4.7672   YZ=             -1.5618

 Normal termination of Gaussian 16 at Fri Nov  4 18:59:28 2022.
