 Gaussian 16, Revision B.01,
 Gaussian 16:  ES64L-G16RevB.01 20-Dec-2017

 -------------------------------------------------------------------
 #p b3lyp/6-31g(d) 6D 10F nosymm GFInput td=(50-50,nstate=2) SCF=XQC
 -------------------------------------------------------------------

 ------------------------------
 Gaussian input prepared by ASE
 ------------------------------
 Symbolic Z-matrix:
 Charge =  0 Multiplicity = 1

                          Input orientation:
 ---------------------------------------------------------------------
 Center     Atomic      Atomic             Coordinates (Angstroms)
 Number     Number       Type             X           Y           Z
 ---------------------------------------------------------------------
      1          6           0        5.099965    1.793179    1.554006
      2          6           0        4.026066    0.973857    0.876074
      3          6           0        3.229248    0.082458    1.611402
      4          6           0        2.224865   -0.661372    0.998627
      5          6           0        1.979422   -0.541145   -0.376363
      6          6           0        0.920982   -1.395236   -1.056791
      7          7           0       -0.321846   -1.475892   -0.301980
      8          6           0       -1.168100   -2.652586   -0.550555
      9          6           0       -2.546850   -2.313270   -1.124736
     10          7           0       -3.258388   -1.396824   -0.221205
     11          6           0       -2.380679   -0.530497    0.595011
     12          6           0       -3.124490    0.759302    1.016160
     13          6           0       -2.765441    1.993323    0.159525
     14          6           0       -2.470071    1.604530   -1.294190
     15          6           0       -1.249490    0.657487   -1.387267
     16          6           0       -1.044957   -0.208799   -0.105010
     17          6           0        2.767188    0.348811   -1.110648
     18          6           0        3.778257    1.091048   -0.495026
     19          1           0        5.779545    2.244982    0.824085
     20          1           0        5.699635    1.181697    2.238483
     21          1           0        4.666871    2.608695    2.148484
     22          1           0        3.402164   -0.029957    2.680157
     23          1           0        1.609893   -1.341528    1.581839
     24          1           0        1.308352   -2.418848   -1.146198
     25          1           0        0.787504   -1.030320   -2.093081
     26          1           0       -1.316677   -3.212717    0.385848
     27          1           0       -0.656151   -3.330143   -1.242498
     28          1           0       -2.419843   -1.899422   -2.139093
     29          1           0       -3.125042   -3.242109   -1.233052
     30          1           0       -3.912683   -0.829125   -0.750972
     31          1           0       -2.128365   -1.094704    1.502634
     32          1           0       -4.202651    0.557918    0.964744
     33          1           0       -2.911145    0.975095    2.069427
     34          1           0       -3.578026    2.728487    0.206398
     35          1           0       -1.879853    2.490295    0.578594
     36          1           0       -2.296930    2.500897   -1.902062
     37          1           0       -3.358275    1.119390   -1.722802
     38          1           0       -1.348520    0.015089   -2.269313
     39          1           0       -0.340729    1.251217   -1.545266
     40          1           0       -0.448243    0.390694    0.597216
     41          1           0        2.594422    0.461013   -2.179398
     42          1           0        4.379062    1.775030   -1.090860
 ---------------------------------------------------------------------

 SCF Done:  E(RB3LYP) =  -733.634137400     A.U. after   13 cycles

 Excitation energies and oscillator strengths:

 Excited state symmetry could not be determined.
 Excited State   1:      Triplet-?Sym    3.6832 eV  336.62 nm  f=0.0000  <S**2>=2.000
      64 -> 68        -0.15845
      64 -> 69         0.40862
      65 -> 68         0.49869
      65 -> 69         0.19632
      67 -> 68        -0.11303
 This state for optimization and/or second-order correction.
 Total Energy, E(TD-HF/TD-DFT) =  -733.498781916
 Copying the excited state density for this state as the 1-particle RhoCI density.

 Excited state symmetry could not be determined.
 Excited State   2:      Triplet-?Sym    4.4594 eV  278.03 nm  f=0.0000  <S**2>=2.000
      64 -> 68        -0.14106
      64 -> 69         0.17217
      65 -> 69        -0.12181
      67 -> 68         0.54851
      67 -> 69         0.35716

 Excited state symmetry could not be determined.
 Excited State   3:      Singlet-?Sym    4.5548 eV  272.21 nm  f=0.0028  <S**2>=0.000
      67 -> 68         0.58764
      67 -> 69         0.38869

 Excited state symmetry could not be determined.
 Excited State   4:      Singlet-?Sym    4.6165 eV  268.57 nm  f=0.0033  <S**2>=0.000
      67 -> 68        -0.38868
      67 -> 69         0.58869

 Alpha  occ. eigenvalues --  -14.31256 -14.30606 -10.20701 -10.20387 -10.20209
 Alpha  occ. eigenvalues --  -10.20098 -10.20027 -10.18954 -10.18405 -10.18057
 Alpha  occ. eigenvalues --  -10.17996 -10.17974 -10.17967 -10.17911 -10.17826
 Alpha  occ. eigenvalues --  -10.17789 -10.17689 -10.17221  -0.92665  -0.87790
 Alpha  occ. eigenvalues --   -0.84541  -0.80891  -0.77351  -0.74108  -0.73378
 Alpha  occ. eigenvalues --   -0.72963  -0.71568  -0.67207  -0.63611  -0.62941
 Alpha  occ. eigenvalues --   -0.60053  -0.59747  -0.56616  -0.56036  -0.51943
 Alpha  occ. eigenvalues --   -0.49958  -0.49136  -0.47384  -0.46965  -0.46041
 Alpha  occ. eigenvalues --   -0.44567  -0.44374  -0.43267  -0.42171  -0.41504
 Alpha  occ. eigenvalues --   -0.41369  -0.40827  -0.40099  -0.39316  -0.37642
 Alpha  occ. eigenvalues --   -0.37630  -0.37115  -0.36475  -0.36084  -0.35489
 Alpha  occ. eigenvalues --   -0.34540  -0.34394  -0.33611  -0.32809  -0.32382
 Alpha  occ. eigenvalues --   -0.30904  -0.30634  -0.29905  -0.24099  -0.22793
 Alpha  occ. eigenvalues --   -0.20366  -0.19081
 Alpha virt. eigenvalues --    0.00599   0.00639   0.06576   0.09187   0.10399
 Alpha virt. eigenvalues --    0.10784   0.11645   0.12226   0.12576   0.13106
 Alpha virt. eigenvalues --    0.14447   0.14564   0.14694   0.15217   0.15788

 Mulliken charges:
               1
     1  C   -0.529837
     2  C    0.178676
     3  C   -0.180727
     4  C   -0.165083
     5  C    0.147631
     6  C   -0.198108
     7  N   -0.420960
     8  C   -0.134449
     9  C   -0.129795
    10  N   -0.578418
    11  C    0.031964
    12  C   -0.300600
    13  C   -0.263130
    14  C   -0.269753
    15  C   -0.286465
    16  C    0.051442
    17  C   -0.188548
    18  C   -0.183136
    19  H    0.153521
    20  H    0.158083
    21  H    0.162476
    22  H    0.118895
    23  H    0.136100
    24  H    0.150250
    25  H    0.119731
    26  H    0.145267
    27  H    0.134222
    28  H    0.119856
    29  H    0.134553
    30  H    0.295403
    31  H    0.137062
    32  H    0.142021
    33  H    0.140284
    34  H    0.132312
    35  H    0.137802
    36  H    0.133758
    37  H    0.122220
    38  H    0.135135
    39  H    0.141339
    40  H    0.131588
    41  H    0.119362
    42  H    0.118056
 Sum of Mulliken charges =  -0.00000

 Dipole moment (field-independent basis, Debye):
    X=              0.2273    Y=              0.8419    Z=             -0.8603  Tot=              1.2250
 Quadrupole moment (field-independent basis, Debye-Ang):
   XX=           -109.7783   YY=           -108.8903   ZZ=           -105.7824
   XY=             -0.2404   XZ=              4.0668   YZ=              2.2431

 Normal termination of Gaussian 16 at Sat Nov  5 11:31:45 2022.
