 Gaussian 16, Revision B.01,
 Gaussian 16:  ES64L-G16RevB.01 20-Dec-2017

 -------------------------------------------------------------------
 #p b3lyp/6-31g(d) 6D 10F nosymm GFInput td=(50-50,nstate=2) SCF=XQC
 -------------------------------------------------------------------

 ------------------------------
 Gaussian input prepared by ASE
 ------------------------------
 Symbolic Z-matrix:
 Charge =  0 Multiplicity = 1

                          Input orientation:
 ---------------------------------------------------------------------
 Center     Atomic      Atomic             Coordinates (Angstroms)
 Number     Number       Type             X           Y           Z
 ---------------------------------------------------------------------
      1          6           0       -1.329727    2.258138    0.046121
      2          6           0       -1.596316    0.768649    0.105980
      3          6           0       -2.911562    0.302534   -0.016509
      4          6           0       -3.214339   -1.057921    0.031150
      5          6           0       -2.187584   -1.984756    0.201766
      6          6           0       -0.872333   -1.538596    0.324738
      7          6           0       -0.560665   -0.174141    0.281396
      8          6           0        0.889027    0.270265    0.385415
      9          6           0        1.664757    0.242212   -0.966167
     10          6           0        3.123561   -0.018671   -0.561353
     11          6           0        3.021209   -0.743796    0.784857
     12          8           0        3.910990   -1.312538    1.391299
     13          7           0        1.717861   -0.612728    1.202513
     14          1           0       -0.891608    2.636482    0.978860
     15          1           0       -2.259934    2.808568   -0.123718
     16          1           0       -0.639117    2.524634   -0.763194
     17          1           0       -3.713243    1.025431   -0.149798
     18          1           0       -4.245230   -1.388405   -0.063810
     19          1           0       -2.405604   -3.048640    0.240739
     20          1           0       -0.067522   -2.255408    0.461839
     21          1           0        0.921857    1.289818    0.795360
     22          1           0        1.519853    1.164762   -1.535043
     23          1           0        1.283434   -0.587722   -1.569936
     24          1           0        3.691910   -0.616212   -1.278673
     25          1           0        3.681124    0.912597   -0.397167
     26          1           0        1.469203   -0.864554    2.150610
 ---------------------------------------------------------------------

 SCF Done:  E(RB3LYP) =  -556.998841975     A.U. after   15 cycles

 Excitation energies and oscillator strengths:

 Excited state symmetry could not be determined.
 Excited State   1:      Triplet-?Sym    3.6867 eV  336.30 nm  f=0.0000  <S**2>=2.000
      44 -> 48         0.24367
      44 -> 49        -0.12013
      45 -> 48         0.10668
      45 -> 49        -0.35123
      46 -> 48        -0.31174
      46 -> 49        -0.26233
      47 -> 48         0.35414
 This state for optimization and/or second-order correction.
 Total Energy, E(TD-HF/TD-DFT) =  -556.863359578
 Copying the excited state density for this state as the 1-particle RhoCI density.

 Excited state symmetry could not be determined.
 Excited State   2:      Triplet-?Sym    4.6124 eV  268.81 nm  f=0.0000  <S**2>=2.000
      44 -> 48         0.20930
      45 -> 48         0.27379
      45 -> 49         0.23975
      46 -> 49         0.42533
      47 -> 48         0.26793
      47 -> 49        -0.25324

 Excited state symmetry could not be determined.
 Excited State   3:      Singlet-?Sym    5.2979 eV  234.02 nm  f=0.0001  <S**2>=0.000
      44 -> 48         0.11126
      44 -> 49         0.14658
      45 -> 48         0.37454
      45 -> 49         0.11286
      46 -> 48         0.28739
      46 -> 49        -0.23893
      47 -> 49         0.41460

 Excited state symmetry could not be determined.
 Excited State   4:      Singlet-?Sym    5.5593 eV  223.02 nm  f=0.0202  <S**2>=0.000
      44 -> 48        -0.13478
      45 -> 50        -0.13448
      46 -> 49        -0.11394
      46 -> 50         0.21516
      47 -> 48         0.51791
      47 -> 49        -0.10262
      47 -> 50         0.33403

 Alpha  occ. eigenvalues --  -19.10563 -14.35552 -10.28001 -10.23944 -10.20364
 Alpha  occ. eigenvalues --  -10.20014 -10.19973 -10.19433 -10.19250 -10.19197
 Alpha  occ. eigenvalues --  -10.19125 -10.19092 -10.19024  -1.02475  -0.93644
 Alpha  occ. eigenvalues --   -0.85943  -0.78678  -0.77546  -0.76239  -0.70586
 Alpha  occ. eigenvalues --   -0.68426  -0.62131  -0.59864  -0.58707  -0.57771
 Alpha  occ. eigenvalues --   -0.51253  -0.51088  -0.47075  -0.46015  -0.44346
 Alpha  occ. eigenvalues --   -0.43239  -0.42907  -0.41919  -0.41084  -0.40462
 Alpha  occ. eigenvalues --   -0.39515  -0.39143  -0.38464  -0.38128  -0.35342
 Alpha  occ. eigenvalues --   -0.34506  -0.34001  -0.33022  -0.25738  -0.24834
 Alpha  occ. eigenvalues --   -0.24446  -0.23481
 Alpha virt. eigenvalues --   -0.00893  -0.00277   0.03310   0.07521   0.09563
 Alpha virt. eigenvalues --    0.10072   0.11515   0.12280   0.13289   0.13617
 Alpha virt. eigenvalues --    0.15456   0.16346   0.17199   0.17538   0.18386

 Mulliken charges:
               1
     1  C   -0.541647
     2  C    0.131135
     3  C   -0.187948
     4  C   -0.122169
     5  C   -0.132074
     6  C   -0.187328
     7  C    0.090158
     8  C   -0.002942
     9  C   -0.288339
    10  C   -0.372992
    11  C    0.593155
    12  O   -0.507604
    13  N   -0.607710
    14  H    0.164533
    15  H    0.159597
    16  H    0.161555
    17  H    0.123734
    18  H    0.130301
    19  H    0.131644
    20  H    0.140791
    21  H    0.140002
    22  H    0.149789
    23  H    0.162551
    24  H    0.175136
    25  H    0.170609
    26  H    0.326064
 Sum of Mulliken charges =  -0.00000

 Dipole moment (field-independent basis, Debye):
    X=             -3.1348    Y=              2.1549    Z=             -1.2634  Tot=              4.0084
 Quadrupole moment (field-independent basis, Debye-Ang):
   XX=            -89.3571   YY=            -74.0095   ZZ=            -77.7588
   XY=              8.2108   XZ=             -7.9324   YZ=              2.1313

 Normal termination of Gaussian 16 at Sat Nov  5 11:24:57 2022.
