 Gaussian 16, Revision B.01,
 Gaussian 16:  ES64L-G16RevB.01 20-Dec-2017

 -----------------------------
 #p b3lyp/6-31g(d) opt SCF=XQC
 -----------------------------

 ------------------------------
 Gaussian input prepared by ASE
 ------------------------------
 Symbolic Z-matrix:
 Charge =  0 Multiplicity = 1

 SCF Done:  E(RB3LYP) =  -556.995226581     A.U. after   15 cycles
 SCF Done:  E(RB3LYP) =  -556.998424988     A.U. after   12 cycles
 SCF Done:  E(RB3LYP) =  -556.998630846     A.U. after   11 cycles
 SCF Done:  E(RB3LYP) =  -556.998729309     A.U. after   11 cycles
 SCF Done:  E(RB3LYP) =  -556.998779638     A.U. after   11 cycles
 SCF Done:  E(RB3LYP) =  -556.998812397     A.U. after   11 cycles
 SCF Done:  E(RB3LYP) =  -556.998840851     A.U. after   10 cycles
 SCF Done:  E(RB3LYP) =  -556.998843150     A.U. after    8 cycles
 SCF Done:  E(RB3LYP) =  -556.998843632     A.U. after    8 cycles
 SCF Done:  E(RB3LYP) =  -556.998843732     A.U. after    7 cycles
 Optimization completed.
    -- Stationary point found.

                         Standard orientation:
 ---------------------------------------------------------------------
 Center     Atomic      Atomic             Coordinates (Angstroms)
 Number     Number       Type             X           Y           Z
 ---------------------------------------------------------------------
      1          6           0        1.718417    2.303580   -0.504907
      2          6           0        1.862470    0.823359   -0.219552
      3          6           0        3.142918    0.276779   -0.065149
      4          6           0        3.333963   -1.079170    0.198830
      5          6           0        2.227790   -1.918734    0.316613
      6          6           0        0.945742   -1.391572    0.166549
      7          6           0        0.745833   -0.031925   -0.102059
      8          6           0       -0.668461    0.510712   -0.225511
      9          6           0       -1.334656    0.874451    1.135810
     10          6           0       -2.836800    0.664993    0.891406
     11          6           0       -2.898125   -0.362405   -0.244048
     12          8           0       -3.874725   -0.970883   -0.642741
     13          7           0       -1.625662   -0.457023   -0.756121
     14          1           0        1.238724    2.491939   -1.474191
     15          1           0        2.699226    2.787960   -0.527134
     16          1           0        1.116888    2.816835    0.255148
     17          1           0        4.006555    0.931579   -0.156857
     18          1           0        4.340215   -1.474106    0.310440
     19          1           0        2.358415   -2.977722    0.522487
     20          1           0        0.079169   -2.041083    0.253280
     21          1           0       -0.654014    1.403841   -0.866395
     22          1           0       -1.073703    1.886851    1.456228
     23          1           0       -0.972647    0.177319    1.898498
     24          1           0       -3.391480    0.309198    1.763394
     25          1           0       -3.331280    1.580088    0.540429
     26          1           0       -1.473185   -0.946874   -1.628435
 ---------------------------------------------------------------------

 The electronic state is 1-A.
 Alpha  occ. eigenvalues --  -19.10563 -14.35553 -10.28001 -10.23944 -10.20364
 Alpha  occ. eigenvalues --  -10.20014 -10.19973 -10.19433 -10.19250 -10.19197
 Alpha  occ. eigenvalues --  -10.19125 -10.19092 -10.19024  -1.02475  -0.93644
 Alpha  occ. eigenvalues --   -0.85943  -0.78678  -0.77546  -0.76239  -0.70586
 Alpha  occ. eigenvalues --   -0.68426  -0.62131  -0.59864  -0.58707  -0.57771
 Alpha  occ. eigenvalues --   -0.51253  -0.51088  -0.47075  -0.46015  -0.44346
 Alpha  occ. eigenvalues --   -0.43239  -0.42907  -0.41919  -0.41084  -0.40462
 Alpha  occ. eigenvalues --   -0.39515  -0.39143  -0.38464  -0.38128  -0.35342
 Alpha  occ. eigenvalues --   -0.34506  -0.34001  -0.33022  -0.25738  -0.24834
 Alpha  occ. eigenvalues --   -0.24446  -0.23482
 Alpha virt. eigenvalues --   -0.00894  -0.00277   0.03310   0.07521   0.09563
 Alpha virt. eigenvalues --    0.10072   0.11515   0.12280   0.13289   0.13617
 Alpha virt. eigenvalues --    0.15456   0.16346   0.17199   0.17538   0.18386

 Mulliken charges:
               1
     1  C   -0.541648
     2  C    0.131144
     3  C   -0.187947
     4  C   -0.122171
     5  C   -0.132077
     6  C   -0.187323
     7  C    0.090151
     8  C   -0.002949
     9  C   -0.288344
    10  C   -0.372983
    11  C    0.593152
    12  O   -0.507606
    13  N   -0.607713
    14  H    0.164532
    15  H    0.159597
    16  H    0.161556
    17  H    0.123734
    18  H    0.130302
    19  H    0.131644
    20  H    0.140791
    21  H    0.140005
    22  H    0.149790
    23  H    0.162550
    24  H    0.175136
    25  H    0.170609
    26  H    0.326065
 Sum of Mulliken charges =  -0.00000

 Dipole moment (field-independent basis, Debye):
    X=              3.3834    Y=              2.0849    Z=              0.5223  Tot=              4.0083
 Quadrupole moment (field-independent basis, Debye-Ang):
   XX=            -90.2183   YY=            -72.4007   ZZ=            -75.7527
   XY=             -7.1216   XZ=             -4.4545   YZ=             -1.2341

 Normal termination of Gaussian 16 at Fri Nov  4 18:23:44 2022.
