 Gaussian 16, Revision B.01,
 Gaussian 16:  ES64L-G16RevB.01 20-Dec-2017

 -----------------------------
 #p b3lyp/6-31g(d) opt SCF=XQC
 -----------------------------

 ------------------------------
 Gaussian input prepared by ASE
 ------------------------------
 Symbolic Z-matrix:
 Charge =  0 Multiplicity = 1

 SCF Done:  E(RB3LYP) =  -769.523264147     A.U. after   15 cycles
 SCF Done:  E(RB3LYP) =  -769.528729348     A.U. after   13 cycles
 SCF Done:  E(RB3LYP) =  -769.529342797     A.U. after   12 cycles
 SCF Done:  E(RB3LYP) =  -769.529466589     A.U. after   11 cycles
 SCF Done:  E(RB3LYP) =  -769.529641774     A.U. after   11 cycles
 SCF Done:  E(RB3LYP) =  -769.529750440     A.U. after   11 cycles
 SCF Done:  E(RB3LYP) =  -769.529783870     A.U. after   11 cycles
 SCF Done:  E(RB3LYP) =  -769.529800304     A.U. after   10 cycles
 SCF Done:  E(RB3LYP) =  -769.529804962     A.U. after   10 cycles
 SCF Done:  E(RB3LYP) =  -769.529805992     A.U. after    8 cycles
 SCF Done:  E(RB3LYP) =  -769.529806257     A.U. after    7 cycles
 SCF Done:  E(RB3LYP) =  -769.529806296     A.U. after    8 cycles
 SCF Done:  E(RB3LYP) =  -769.529806297     A.U. after    7 cycles
 Optimization completed.
    -- Stationary point found.

                         Standard orientation:
 ---------------------------------------------------------------------
 Center     Atomic      Atomic             Coordinates (Angstroms)
 Number     Number       Type             X           Y           Z
 ---------------------------------------------------------------------
      1          6           0       -4.560036   -1.529019   -0.582699
      2          6           0       -3.463651   -0.504713   -0.287286
      3          6           0       -2.123787   -1.060996   -0.802990
      4          7           0       -0.969926   -0.189981   -0.605495
      5          6           0       -0.013919   -0.428593    0.331874
      6          8           0       -0.027309   -1.396846    1.088196
      7          6           0        1.125561    0.579465    0.385580
      8          6           0        0.913602    1.822063   -0.309330
      9          7           0        0.712549    2.800352   -0.908003
     10          6           0        1.949637    0.602232    1.673129
     11          6           0        2.604300    0.057019    0.456500
     12          6           0        3.694676    0.853562   -0.291198
     13          6           0        4.783854   -0.189307   -0.613829
     14          6           0        3.987794   -1.488683   -0.815326
     15          6           0        2.934493   -1.439358    0.305647
     16          6           0       -3.768643    0.959106   -0.752514
     17          6           0       -3.431810    1.480213    0.670750
     18          6           0       -3.401236    0.015999    1.186993
     19          1           0       -4.357739   -2.484803   -0.082117
     20          1           0       -4.646062   -1.726367   -1.659578
     21          1           0       -5.533990   -1.169178   -0.232380
     22          1           0       -1.890531   -1.998807   -0.291787
     23          1           0       -2.209126   -1.273471   -1.877506
     24          1           0       -0.892676    0.643055   -1.173802
     25          1           0        2.252944    1.578381    2.042787
     26          1           0        1.594225   -0.101867    2.420583
     27          1           0        4.069353    1.695670    0.300353
     28          1           0        3.292348    1.272114   -1.221510
     29          1           0        5.388939    0.092789   -1.481612
     30          1           0        5.464874   -0.301632    0.239936
     31          1           0        3.496654   -1.476602   -1.797602
     32          1           0        4.608902   -2.389341   -0.770797
     33          1           0        3.376476   -1.791134    1.247130
     34          1           0        2.057176   -2.060465    0.121492
     35          1           0       -3.163722    1.353966   -1.578322
     36          1           0       -4.821654    1.094123   -1.021782
     37          1           0       -2.456838    1.973263    0.723906
     38          1           0       -4.173980    2.141245    1.128646
     39          1           0       -4.297016   -0.255820    1.755761
     40          1           0       -2.523455   -0.286902    1.765325
 ---------------------------------------------------------------------

 The electronic state is 1-A.
 Alpha  occ. eigenvalues --  -19.12134 -14.36877 -14.33980 -10.30227 -10.24712
 Alpha  occ. eigenvalues --  -10.23447 -10.22921 -10.22190 -10.21026 -10.19711
 Alpha  occ. eigenvalues --  -10.19366 -10.18815 -10.18715 -10.18611 -10.18018
 Alpha  occ. eigenvalues --  -10.17756 -10.17724 -10.17394  -1.04221  -0.93317
 Alpha  occ. eigenvalues --   -0.91584  -0.88868  -0.84351  -0.81919  -0.74854
 Alpha  occ. eigenvalues --   -0.71982  -0.71620  -0.67921  -0.65864  -0.65817
 Alpha  occ. eigenvalues --   -0.60882  -0.59684  -0.58526  -0.56514  -0.55626
 Alpha  occ. eigenvalues --   -0.52547  -0.50628  -0.48672  -0.48148  -0.47786
 Alpha  occ. eigenvalues --   -0.44928  -0.44471  -0.43411  -0.42606  -0.42281
 Alpha  occ. eigenvalues --   -0.41574  -0.40708  -0.40350  -0.39562  -0.38851
 Alpha  occ. eigenvalues --   -0.37344  -0.36830  -0.36654  -0.35748  -0.35419
 Alpha  occ. eigenvalues --   -0.34876  -0.34017  -0.33566  -0.33062  -0.32983
 Alpha  occ. eigenvalues --   -0.32066  -0.30370  -0.29484  -0.29318  -0.28219
 Alpha  occ. eigenvalues --   -0.26229  -0.25431
 Alpha virt. eigenvalues --    0.00270   0.02044   0.03247   0.06965   0.08489
 Alpha virt. eigenvalues --    0.09018   0.09892   0.10372   0.10527   0.12607
 Alpha virt. eigenvalues --    0.12980   0.13301   0.14463   0.15122   0.15769

 Mulliken charges:
               1
     1  C   -0.466947
     2  C    0.120620
     3  C   -0.151815
     4  N   -0.643408
     5  C    0.673824
     6  O   -0.544836
     7  C   -0.083548
     8  C    0.308675
     9  N   -0.509207
    10  C   -0.323731
    11  C    0.108891
    12  C   -0.296513
    13  C   -0.277214
    14  C   -0.276671
    15  C   -0.289595
    16  C   -0.298379
    17  C   -0.277671
    18  C   -0.296147
    19  H    0.147789
    20  H    0.140401
    21  H    0.144662
    22  H    0.183253
    23  H    0.142370
    24  H    0.350377
    25  H    0.172360
    26  H    0.198149
    27  H    0.148926
    28  H    0.164271
    29  H    0.142489
    30  H    0.140943
    31  H    0.139593
    32  H    0.140791
    33  H    0.147008
    34  H    0.176135
    35  H    0.127370
    36  H    0.138905
    37  H    0.145389
    38  H    0.137676
    39  H    0.134300
    40  H    0.160517
 Sum of Mulliken charges =  -0.00000

 Dipole moment (field-independent basis, Debye):
    X=              0.5166    Y=             -1.3041    Z=             -0.3805  Tot=              1.4533
 Quadrupole moment (field-independent basis, Debye-Ang):
   XX=            -95.6829   YY=           -121.1921   ZZ=           -108.5844
   XY=             -0.6678   XZ=              3.4521   YZ=              7.2224

 Normal termination of Gaussian 16 at Fri Nov  4 18:38:26 2022.
