 Gaussian 16, Revision B.01,
 Gaussian 16:  ES64L-G16RevB.01 20-Dec-2017

 -------------------------------------------------------------------
 #p b3lyp/6-31g(d) 6D 10F nosymm GFInput td=(50-50,nstate=2) SCF=XQC
 -------------------------------------------------------------------

 ------------------------------
 Gaussian input prepared by ASE
 ------------------------------
 Symbolic Z-matrix:
 Charge =  0 Multiplicity = 1

                          Input orientation:
 ---------------------------------------------------------------------
 Center     Atomic      Atomic             Coordinates (Angstroms)
 Number     Number       Type             X           Y           Z
 ---------------------------------------------------------------------
      1          6           0        4.124277    0.612600   -2.148888
      2          6           0        3.206947    0.054853   -1.059872
      3          6           0        1.749550    0.169150   -1.543159
      4          7           0        0.743545   -0.335235   -0.614388
      5          6           0       -0.070783    0.479063    0.109031
      6          8           0       -0.042115    1.705622    0.042336
      7          6           0       -1.070741   -0.223287    1.016924
      8          6           0       -0.838696   -1.622445    1.262663
      9          7           0       -0.630703   -2.758446    1.411399
     10          6           0       -1.671333    0.618927    2.142698
     11          6           0       -2.567093    0.251664    1.016307
     12          6           0       -3.669761   -0.815122    1.185257
     13          6           0       -4.903232   -0.212049    0.483241
     14          6           0       -4.295469    0.621980   -0.655929
     15          6           0       -3.077710    1.293159    0.003644
     16          6           0        3.590967   -1.363822   -0.519395
     17          6           0        3.544249   -0.821096    0.934550
     18          6           0        3.437583    0.625038    0.378958
     19          1           0        3.901853    1.667527   -2.355492
     20          1           0        4.015364    0.056688   -3.089694
     21          1           0        5.174912    0.547183   -1.844448
     22          1           0        1.500397    1.218106   -1.724382
     23          1           0        1.638697   -0.373753   -2.491832
     24          1           0        0.667537   -1.335213   -0.483411
     25          1           0       -1.803887    0.128323    3.103555
     26          1           0       -1.279796    1.632079    2.174081
     27          1           0       -3.851489   -1.057740    2.237669
     28          1           0       -3.378021   -1.748581    0.689195
     29          1           0       -5.604794   -0.978773    0.138713
     30          1           0       -5.447372    0.445884    1.173427
     31          1           0       -3.969039   -0.039753   -1.469431
     32          1           0       -4.995626    1.346715   -1.084278
     33          1           0       -3.399322    2.184261    0.558611
     34          1           0       -2.313766    1.623307   -0.701172
     35          1           0        2.908517   -2.188484   -0.760215
     36          1           0        4.595855   -1.665520   -0.833633
     37          1           0        2.649668   -1.137687    1.478600
     38          1           0        4.417351   -1.039020    1.557166
     39          1           0        4.377761    1.182159    0.453026
     40          1           0        2.635721    1.251738    0.780180
 ---------------------------------------------------------------------

 SCF Done:  E(RB3LYP) =  -769.529806938     A.U. after   15 cycles

 Excitation energies and oscillator strengths:

 Excited state symmetry could not be determined.
 Excited State   1:      Triplet-?Sym    4.9346 eV  251.26 nm  f=0.0000  <S**2>=2.000
      66 -> 68         0.12791
      67 -> 68         0.58772
      67 -> 70        -0.28797
 This state for optimization and/or second-order correction.
 Total Energy, E(TD-HF/TD-DFT) =  -769.348465234
 Copying the excited state density for this state as the 1-particle RhoCI density.

 Excited state symmetry could not be determined.
 Excited State   2:      Triplet-?Sym    5.2160 eV  237.70 nm  f=0.0000  <S**2>=2.000
      66 -> 68         0.61490
      66 -> 70        -0.26785
      67 -> 68        -0.14894

 Excited state symmetry could not be determined.
 Excited State   3:      Singlet-?Sym    5.6661 eV  218.82 nm  f=0.0043  <S**2>=0.000
      66 -> 68         0.57977
      66 -> 70        -0.23215
      67 -> 68        -0.28025
      67 -> 70         0.10546

 Excited state symmetry could not be determined.
 Excited State   4:      Singlet-?Sym    6.4523 eV  192.16 nm  f=0.1527  <S**2>=0.000
      66 -> 68         0.26411
      66 -> 69        -0.11490
      67 -> 68         0.61581
      67 -> 70         0.15968

 Alpha  occ. eigenvalues --  -19.12134 -14.36877 -14.33980 -10.30227 -10.24713
 Alpha  occ. eigenvalues --  -10.23447 -10.22921 -10.22190 -10.21027 -10.19711
 Alpha  occ. eigenvalues --  -10.19366 -10.18815 -10.18715 -10.18611 -10.18018
 Alpha  occ. eigenvalues --  -10.17756 -10.17724 -10.17394  -1.04221  -0.93317
 Alpha  occ. eigenvalues --   -0.91584  -0.88868  -0.84351  -0.81919  -0.74854
 Alpha  occ. eigenvalues --   -0.71982  -0.71620  -0.67921  -0.65864  -0.65817
 Alpha  occ. eigenvalues --   -0.60882  -0.59684  -0.58526  -0.56514  -0.55626
 Alpha  occ. eigenvalues --   -0.52547  -0.50628  -0.48672  -0.48148  -0.47786
 Alpha  occ. eigenvalues --   -0.44928  -0.44471  -0.43411  -0.42606  -0.42281
 Alpha  occ. eigenvalues --   -0.41574  -0.40708  -0.40350  -0.39562  -0.38851
 Alpha  occ. eigenvalues --   -0.37344  -0.36830  -0.36654  -0.35748  -0.35420
 Alpha  occ. eigenvalues --   -0.34876  -0.34017  -0.33566  -0.33062  -0.32983
 Alpha  occ. eigenvalues --   -0.32066  -0.30370  -0.29484  -0.29318  -0.28219
 Alpha  occ. eigenvalues --   -0.26229  -0.25431
 Alpha virt. eigenvalues --    0.00270   0.02044   0.03247   0.06965   0.08489
 Alpha virt. eigenvalues --    0.09018   0.09892   0.10372   0.10527   0.12607
 Alpha virt. eigenvalues --    0.12980   0.13301   0.14463   0.15122   0.15769

 Mulliken charges:
               1
     1  C   -0.466953
     2  C    0.120629
     3  C   -0.151807
     4  N   -0.643411
     5  C    0.673812
     6  O   -0.544833
     7  C   -0.083532
     8  C    0.308673
     9  N   -0.509202
    10  C   -0.323734
    11  C    0.108858
    12  C   -0.296506
    13  C   -0.277203
    14  C   -0.276668
    15  C   -0.289587
    16  C   -0.298374
    17  C   -0.277657
    18  C   -0.296160
    19  H    0.147789
    20  H    0.140402
    21  H    0.144662
    22  H    0.183250
    23  H    0.142371
    24  H    0.350376
    25  H    0.172361
    26  H    0.198151
    27  H    0.148927
    28  H    0.164270
    29  H    0.142487
    30  H    0.140941
    31  H    0.139590
    32  H    0.140790
    33  H    0.147008
    34  H    0.176136
    35  H    0.127369
    36  H    0.138901
    37  H    0.145385
    38  H    0.137673
    39  H    0.134300
    40  H    0.160516
 Sum of Mulliken charges =  -0.00000

 Dipole moment (field-independent basis, Debye):
    X=             -0.7093    Y=              0.7502    Z=             -1.0230  Tot=              1.4534
 Quadrupole moment (field-independent basis, Debye-Ang):
   XX=            -96.8723   YY=           -122.9107   ZZ=           -105.9314
   XY=             -2.3294   XZ=             -3.9877   YZ=              5.9455

 Normal termination of Gaussian 16 at Sat Nov  5 11:34:44 2022.
