 Gaussian 16, Revision B.01,
 Gaussian 16:  ES64L-G16RevB.01 20-Dec-2017

 -----------------------------
 #p b3lyp/6-31g(d) opt SCF=XQC
 -----------------------------

 ------------------------------
 Gaussian input prepared by ASE
 ------------------------------
 Symbolic Z-matrix:
 Charge =  0 Multiplicity = 1

 SCF Done:  E(RB3LYP) =  -1122.91610635     A.U. after   15 cycles
 SCF Done:  E(RB3LYP) =  -1122.92244258     A.U. after   12 cycles
 SCF Done:  E(RB3LYP) =  -1122.92291758     A.U. after   11 cycles
 SCF Done:  E(RB3LYP) =  -1122.92298511     A.U. after   11 cycles
 SCF Done:  E(RB3LYP) =  -1122.92305579     A.U. after   12 cycles
 SCF Done:  E(RB3LYP) =  -1122.92316035     A.U. after   11 cycles
 SCF Done:  E(RB3LYP) =  -1122.92323464     A.U. after   13 cycles
 SCF Done:  E(RB3LYP) =  -1122.92329325     A.U. after   10 cycles
 SCF Done:  E(RB3LYP) =  -1122.92330887     A.U. after   11 cycles
 SCF Done:  E(RB3LYP) =  -1122.92331448     A.U. after   10 cycles
 SCF Done:  E(RB3LYP) =  -1122.92341843     A.U. after    9 cycles
 SCF Done:  E(RB3LYP) =  -1122.92342282     A.U. after   10 cycles
 SCF Done:  E(RB3LYP) =  -1122.92342561     A.U. after   10 cycles
 SCF Done:  E(RB3LYP) =  -1122.92342723     A.U. after    8 cycles
 SCF Done:  E(RB3LYP) =  -1122.92342885     A.U. after    8 cycles
 SCF Done:  E(RB3LYP) =  -1122.92342970     A.U. after    8 cycles
 SCF Done:  E(RB3LYP) =  -1122.92343087     A.U. after    9 cycles
 SCF Done:  E(RB3LYP) =  -1122.92343147     A.U. after    9 cycles
 SCF Done:  E(RB3LYP) =  -1122.92343165     A.U. after    9 cycles
 SCF Done:  E(RB3LYP) =  -1122.92343166     A.U. after    7 cycles
 Optimization completed.
    -- Stationary point found.

                         Standard orientation:
 ---------------------------------------------------------------------
 Center     Atomic      Atomic             Coordinates (Angstroms)
 Number     Number       Type             X           Y           Z
 ---------------------------------------------------------------------
      1          6           0        6.609132   -1.238463   -0.617196
      2          8           0        5.325494   -1.761120   -0.319035
      3          6           0        4.300988   -0.879047   -0.158667
      4          6           0        4.401384    0.503472   -0.267749
      5          6           0        3.278203    1.324025   -0.086894
      6          6           0        2.030116    0.779290    0.202800
      7          6           0        0.784254    1.630272    0.478213
      8          7           0       -0.412184    0.966700   -0.055809
      9          6           0       -1.510313    0.670173    0.692729
     10          8           0       -1.627550    0.962796    1.879449
     11          6           0       -2.613395   -0.093284   -0.046562
     12          6           0       -3.982867    0.292185    0.520189
     13          7           0       -5.050676   -0.543694   -0.017851
     14          6           0       -5.846697   -1.452698    0.579279
     15          7           0       -6.654545   -1.977218   -0.319564
     16          7           0       -6.335166   -1.367425   -1.494696
     17          7           0       -5.378911   -0.509355   -1.330637
     18          6           0        0.857977    3.108341    0.005584
     19          6           0        0.909482    3.253190   -1.523726
     20          6           0       -0.300194    3.931507    0.589278
     21          6           0        1.933994   -0.622752    0.318827
     22          6           0        3.038353   -1.450024    0.145391
     23          8           0        3.020806   -2.808746    0.244882
     24          6           0        1.794212   -3.439274    0.569942
     25          1           0        6.610848   -0.687476   -1.567406
     26          1           0        7.270644   -2.102628   -0.700057
     27          1           0        6.972404   -0.578212    0.181830
     28          1           0        5.355715    0.963487   -0.497260
     29          1           0        3.412495    2.395834   -0.176453
     30          1           0        0.616434    1.646607    1.561333
     31          1           0       -0.390486    0.670480   -1.022355
     32          1           0       -2.587362    0.085086   -1.126420
     33          1           0       -2.448981   -1.167984    0.107731
     34          1           0       -4.219726    1.334449    0.289465
     35          1           0       -3.976864    0.182112    1.605677
     36          1           0       -5.812881   -1.691967    1.631823
     37          1           0        1.785810    3.519657    0.423949
     38          1           0        1.725468    2.674525   -1.968367
     39          1           0        1.048860    4.303127   -1.804612
     40          1           0       -0.031535    2.921151   -1.980342
     41          1           0       -0.189151    4.988748    0.322479
     42          1           0       -1.265838    3.590929    0.198942
     43          1           0       -0.339532    3.856362    1.681114
     44          1           0        0.972894   -1.061691    0.557485
     45          1           0        1.415462   -3.109363    1.546650
     46          1           0        1.027662   -3.252767   -0.194762
     47          1           0        2.010260   -4.508441    0.608461
 ---------------------------------------------------------------------

 The electronic state is 1-A.
 Alpha  occ. eigenvalues --  -19.18109 -19.18096 -19.12684 -14.44293 -14.40196
 Alpha  occ. eigenvalues --  -14.38768 -14.37424 -14.35730 -10.30389 -10.26960
 Alpha  occ. eigenvalues --  -10.26010 -10.25108 -10.25000 -10.24503 -10.24425
 Alpha  occ. eigenvalues --  -10.23638 -10.22294 -10.20093 -10.20052 -10.19302
 Alpha  occ. eigenvalues --  -10.19152 -10.19042 -10.18262 -10.17723  -1.13524
 Alpha  occ. eigenvalues --   -1.07773  -1.05820  -1.04600  -0.95533  -0.93877
 Alpha  occ. eigenvalues --   -0.88630  -0.85599  -0.81658  -0.80043  -0.77069
 Alpha  occ. eigenvalues --   -0.75455  -0.72458  -0.71007  -0.70158  -0.69006
 Alpha  occ. eigenvalues --   -0.66885  -0.66457  -0.62468  -0.61060  -0.59985
 Alpha  occ. eigenvalues --   -0.59376  -0.57370  -0.55283  -0.54640  -0.51888
 Alpha  occ. eigenvalues --   -0.50817  -0.50274  -0.49814  -0.49062  -0.48358
 Alpha  occ. eigenvalues --   -0.47804  -0.47570  -0.46607  -0.46175  -0.45586
 Alpha  occ. eigenvalues --   -0.44653  -0.43747  -0.43631  -0.42719  -0.41709
 Alpha  occ. eigenvalues --   -0.41175  -0.40235  -0.39903  -0.39084  -0.38814
 Alpha  occ. eigenvalues --   -0.37849  -0.37629  -0.37063  -0.36778  -0.34725
 Alpha  occ. eigenvalues --   -0.34360  -0.34085  -0.33268  -0.32725  -0.32519
 Alpha  occ. eigenvalues --   -0.31624  -0.30985  -0.30173  -0.29700  -0.28227
 Alpha  occ. eigenvalues --   -0.26773  -0.26664  -0.24004  -0.20787
 Alpha virt. eigenvalues --   -0.01614   0.00080   0.00348   0.01178   0.02341
 Alpha virt. eigenvalues --    0.05736   0.07837   0.08799   0.09183   0.09721
 Alpha virt. eigenvalues --    0.10115   0.10628   0.11890   0.12446   0.13333

 Mulliken charges:
               1
     1  C   -0.215219
     2  O   -0.497990
     3  C    0.343254
     4  C   -0.209941
     5  C   -0.205032
     6  C    0.130827
     7  C   -0.035534
     8  N   -0.612733
     9  C    0.629082
    10  O   -0.528028
    11  C   -0.381591
    12  C   -0.149668
    13  N   -0.257396
    14  C    0.246909
    15  N   -0.310814
    16  N   -0.087941
    17  N   -0.075531
    18  C   -0.078113
    19  C   -0.462404
    20  C   -0.446094
    21  C   -0.256914
    22  C    0.344262
    23  O   -0.499266
    24  C   -0.213872
    25  H    0.150944
    26  H    0.172689
    27  H    0.151860
    28  H    0.133898
    29  H    0.127540
    30  H    0.190785
    31  H    0.329666
    32  H    0.179938
    33  H    0.182411
    34  H    0.194505
    35  H    0.201506
    36  H    0.194714
    37  H    0.136549
    38  H    0.154258
    39  H    0.149883
    40  H    0.135740
    41  H    0.141807
    42  H    0.142702
    43  H    0.157451
    44  H    0.127723
    45  H    0.154260
    46  H    0.145366
    47  H    0.173551
 Sum of Mulliken charges =  -0.00000

 Dipole moment (field-independent basis, Debye):
    X=              5.6630    Y=              1.7477    Z=              1.1420  Tot=              6.0356
 Quadrupole moment (field-independent basis, Debye-Ang):
   XX=           -166.7477   YY=           -139.3215   ZZ=           -149.4826
   XY=             -6.5483   XZ=            -22.2303   YZ=             -8.6215

 Normal termination of Gaussian 16 at Fri Nov  4 19:18:44 2022.
