 Gaussian 16, Revision B.01,
 Gaussian 16:  ES64L-G16RevB.01 20-Dec-2017

 -------------------------------------------------------------------
 #p b3lyp/6-31g(d) 6D 10F nosymm GFInput td=(50-50,nstate=2) SCF=XQC
 -------------------------------------------------------------------

 ------------------------------
 Gaussian input prepared by ASE
 ------------------------------
 Symbolic Z-matrix:
 Charge =  0 Multiplicity = 1

                          Input orientation:
 ---------------------------------------------------------------------
 Center     Atomic      Atomic             Coordinates (Angstroms)
 Number     Number       Type             X           Y           Z
 ---------------------------------------------------------------------
      1          6           0       -6.606489    0.206200    0.009101
      2          6           0       -6.022975    0.251503   -1.397888
      3         16           0       -4.566486   -0.815513   -1.610050
      4          8           0       -4.136916   -0.657524   -3.007603
      5          8           0       -4.884144   -2.139852   -1.064247
      6          7           0       -3.424295   -0.119950   -0.572255
      7          6           0       -2.839068   -1.011561    0.460544
      8          6           0       -1.906376   -0.191190    1.352089
      9          6           0       -0.712948    0.413767    0.569190
     10          6           0        0.547918   -0.443803    0.726394
     11          8           0        0.494833   -1.647689    0.935852
     12          7           0        1.723677    0.261498    0.563090
     13          6           0        3.056272   -0.195594    0.567077
     14          6           0        3.389654   -1.572292    0.741283
     15          6           0        4.706951   -1.965183    0.735380
     16          6           0        5.753132   -1.024807    0.558632
     17          7           0        7.050222   -1.441613    0.557510
     18          6           0        7.961706   -0.505938    0.387318
     19          6           0        7.626788    0.864465    0.213691
     20          7           0        6.384742    1.301100    0.209830
     21          6           0        5.415634    0.353798    0.384145
     22          6           0        4.058949    0.744219    0.392139
     23          6           0       -1.056697    0.538197   -0.941852
     24          6           0       -2.527880    0.910930   -1.141544
     25          1           0       -6.894332   -0.813991    0.276574
     26          1           0       -5.882503    0.570268    0.744380
     27          1           0       -7.496265    0.842879    0.059560
     28          1           0       -6.730679   -0.111104   -2.150771
     29          1           0       -5.704592    1.257168   -1.690161
     30          1           0       -3.653247   -1.436379    1.049465
     31          1           0       -2.286236   -1.847497    0.015839
     32          1           0       -1.537238   -0.840783    2.150265
     33          1           0       -2.480881    0.617097    1.819253
     34          1           0       -0.510365    1.420323    0.959913
     35          1           0        1.624045    1.257928    0.419752
     36          1           0        2.591451   -2.287896    0.877859
     37          1           0        4.978080   -3.008157    0.866281
     38          1           0        9.005248   -0.817290    0.382936
     39          1           0        8.415308    1.603431    0.076162
     40          1           0        3.836176    1.799688    0.256795
     41          1           0       -0.421695    1.290804   -1.423490
     42          1           0       -0.862582   -0.414221   -1.448298
     43          1           0       -2.739741    1.011873   -2.208132
     44          1           0       -2.736155    1.878472   -0.662011
 ---------------------------------------------------------------------

 SCF Done:  E(RB3LYP) =  -1464.56884916     A.U. after   15 cycles

 Excitation energies and oscillator strengths:

 Excited state symmetry could not be determined.
 Excited State   1:      Triplet-?Sym    2.6724 eV  463.95 nm  f=0.0000  <S**2>=2.000
      89 -> 93        -0.25108
      89 -> 94         0.10944
      92 -> 93         0.61574
      92 -> 94         0.11392
 This state for optimization and/or second-order correction.
 Total Energy, E(TD-HF/TD-DFT) =  -1464.47064104
 Copying the excited state density for this state as the 1-particle RhoCI density.

 Excited state symmetry could not be determined.
 Excited State   2:      Triplet-?Sym    2.9628 eV  418.47 nm  f=0.0000  <S**2>=2.000
      90 -> 93         0.68702
      90 -> 95         0.13566

 Excited state symmetry could not be determined.
 Excited State   3:      Singlet-?Sym    3.5621 eV  348.06 nm  f=0.0029  <S**2>=0.000
      90 -> 93         0.70306

 Excited state symmetry could not be determined.
 Excited State   4:      Singlet-?Sym    3.8390 eV  322.96 nm  f=0.1251  <S**2>=0.000
      89 -> 94         0.13928
      92 -> 93         0.68177

 Alpha  occ. eigenvalues --  -89.10347 -19.13806 -19.13766 -19.13759 -14.39608
 Alpha  occ. eigenvalues --  -14.36529 -14.34990 -14.34971 -10.30937 -10.25795
 Alpha  occ. eigenvalues --  -10.23804 -10.23752 -10.23570 -10.23499 -10.23344
 Alpha  occ. eigenvalues --  -10.22876 -10.22551 -10.22226 -10.21240 -10.20445
 Alpha  occ. eigenvalues --  -10.20317 -10.20252 -10.20170 -10.19768  -8.12934
 Alpha  occ. eigenvalues --   -6.09436  -6.09361  -6.09198  -1.10345  -1.05639
 Alpha  occ. eigenvalues --   -0.99486  -0.98226  -0.95984  -0.93672  -0.91228
 Alpha  occ. eigenvalues --   -0.85533  -0.82582  -0.79950  -0.77429  -0.76682
 Alpha  occ. eigenvalues --   -0.76316  -0.71256  -0.68095  -0.66881  -0.65789
 Alpha  occ. eigenvalues --   -0.65624  -0.62439  -0.61549  -0.59246  -0.56510
 Alpha  occ. eigenvalues --   -0.54834  -0.54230  -0.53451  -0.52563  -0.50819
 Alpha  occ. eigenvalues --   -0.49957  -0.49223  -0.47943  -0.47126  -0.46460
 Alpha  occ. eigenvalues --   -0.45707  -0.45558  -0.44477  -0.44185  -0.43965
 Alpha  occ. eigenvalues --   -0.43315  -0.43037  -0.42122  -0.41731  -0.41433
 Alpha  occ. eigenvalues --   -0.40404  -0.39487  -0.39247  -0.38812  -0.37694
 Alpha  occ. eigenvalues --   -0.37443  -0.37005  -0.36240  -0.34800  -0.34352
 Alpha  occ. eigenvalues --   -0.34260  -0.33347  -0.31071  -0.31029  -0.31021
 Alpha  occ. eigenvalues --   -0.29682  -0.29214  -0.26900  -0.25631  -0.24908
 Alpha  occ. eigenvalues --   -0.24769  -0.23216
 Alpha virt. eigenvalues --   -0.07316  -0.03151   0.00081   0.01919   0.04244
 Alpha virt. eigenvalues --    0.06584   0.06802   0.08276   0.08593   0.08818
 Alpha virt. eigenvalues --    0.09606   0.10248   0.10577   0.11951   0.12165

 Mulliken charges:
               1
     1  C   -0.462668
     2  C   -0.446172
     3  S    1.232256
     4  O   -0.541378
     5  O   -0.550599
     6  N   -0.580198
     7  C   -0.124938
     8  C   -0.292853
     9  C   -0.191367
    10  C    0.618668
    11  O   -0.499027
    12  N   -0.727988
    13  C    0.373817
    14  C   -0.162452
    15  C   -0.166501
    16  C    0.277830
    17  N   -0.459686
    18  C    0.027584
    19  C    0.034133
    20  N   -0.471728
    21  C    0.285933
    22  C   -0.252455
    23  C   -0.291247
    24  C   -0.142418
    25  H    0.187915
    26  H    0.166623
    27  H    0.161133
    28  H    0.203910
    29  H    0.186980
    30  H    0.173704
    31  H    0.181287
    32  H    0.177304
    33  H    0.145738
    34  H    0.133771
    35  H    0.336779
    36  H    0.197782
    37  H    0.156730
    38  H    0.149228
    39  H    0.149065
    40  H    0.137700
    41  H    0.144710
    42  H    0.182742
    43  H    0.196636
    44  H    0.143714
 Sum of Mulliken charges =  -0.00000

 Dipole moment (field-independent basis, Debye):
    X=             -0.3628    Y=              5.9030    Z=              2.0208  Tot=              6.2498
 Quadrupole moment (field-independent basis, Debye-Ang):
   XX=           -134.6671   YY=           -154.8023   ZZ=           -156.7900
   XY=            -11.9928   XZ=            -10.3190   YZ=             -4.2812

 Normal termination of Gaussian 16 at Sat Nov  5 11:28:06 2022.
