 Gaussian 16, Revision B.01,
 Gaussian 16:  ES64L-G16RevB.01 20-Dec-2017

 -----------------------------
 #p b3lyp/6-31g(d) opt SCF=XQC
 -----------------------------

 ------------------------------
 Gaussian input prepared by ASE
 ------------------------------
 Symbolic Z-matrix:
 Charge =  0 Multiplicity = 1

 SCF Done:  E(RB3LYP) =  -1464.55737722     A.U. after   15 cycles
 SCF Done:  E(RB3LYP) =  -1464.56599759     A.U. after   12 cycles
 SCF Done:  E(RB3LYP) =  -1464.56673734     A.U. after   12 cycles
 SCF Done:  E(RB3LYP) =  -1464.56687092     A.U. after   12 cycles
 SCF Done:  E(RB3LYP) =  -1464.56701077     A.U. after   12 cycles
 SCF Done:  E(RB3LYP) =  -1464.56717555     A.U. after   11 cycles
 SCF Done:  E(RB3LYP) =  -1464.56749113     A.U. after   13 cycles
 SCF Done:  E(RB3LYP) =  -1464.56766397     A.U. after   12 cycles
 SCF Done:  E(RB3LYP) =  -1464.56794163     A.U. after   12 cycles
 SCF Done:  E(RB3LYP) =  -1464.56828705     A.U. after   11 cycles
 SCF Done:  E(RB3LYP) =  -1464.56882099     A.U. after   11 cycles
 SCF Done:  E(RB3LYP) =  -1464.56882982     A.U. after   11 cycles
 SCF Done:  E(RB3LYP) =  -1464.56883743     A.U. after   10 cycles
 SCF Done:  E(RB3LYP) =  -1464.56884021     A.U. after   10 cycles
 SCF Done:  E(RB3LYP) =  -1464.56884124     A.U. after   10 cycles
 SCF Done:  E(RB3LYP) =  -1464.56884139     A.U. after    7 cycles
 SCF Done:  E(RB3LYP) =  -1464.56884152     A.U. after    7 cycles
 SCF Done:  E(RB3LYP) =  -1464.56884157     A.U. after    7 cycles
 SCF Done:  E(RB3LYP) =  -1464.56884159     A.U. after    7 cycles
 SCF Done:  E(RB3LYP) =  -1464.56884160     A.U. after    6 cycles
 Optimization completed.
    -- Stationary point found.

                         Standard orientation:
 ---------------------------------------------------------------------
 Center     Atomic      Atomic             Coordinates (Angstroms)
 Number     Number       Type             X           Y           Z
 ---------------------------------------------------------------------
      1          6           0        6.768236   -0.203338    1.229023
      2          6           0        6.381873   -0.773267   -0.130412
      3         16           0        4.982071    0.090952   -0.904090
      4          8           0        4.745436   -0.574905   -2.193773
      5          8           0        5.239436    1.533836   -0.836771
      6          7           0        3.699832   -0.227023    0.154295
      7          6           0        2.990676    0.953820    0.708228
      8          6           0        1.934305    0.474706    1.704374
      9          6           0        0.851234   -0.415378    1.042647
     10          6           0       -0.407989    0.393675    0.711419
     11          8           0       -0.368315    1.593438    0.476844
     12          7           0       -1.559515   -0.366518    0.660200
     13          6           0       -2.874082    0.011371    0.322751
     14          6           0       -3.210148    1.345164   -0.057835
     15          6           0       -4.509048    1.660209   -0.379199
     16          6           0       -5.533451    0.680840   -0.340788
     17          7           0       -6.812677    1.020656   -0.663710
     18          6           0       -7.704493    0.053054   -0.603157
     19          6           0       -7.366902   -1.274604   -0.224106
     20          7           0       -6.141779   -1.636753    0.094109
     21          6           0       -5.193295   -0.654678    0.040771
     22          6           0       -3.855634   -0.965198    0.368375
     23          6           0        1.396543   -1.061899   -0.261786
     24          6           0        2.876224   -1.426335   -0.117157
     25          1           0        7.030124    0.854774    1.145368
     26          1           0        5.945898   -0.305411    1.943640
     27          1           0        7.634392   -0.745615    1.623125
     28          1           0        7.190468   -0.679494   -0.862901
     29          1           0        6.093311   -1.827893   -0.078931
     30          1           0        3.722236    1.592048    1.205893
     31          1           0        2.514736    1.552689   -0.077273
     32          1           0        1.468089    1.353597    2.157708
     33          1           0        2.429004   -0.089500    2.503479
     34          1           0        0.584056   -1.220926    1.740191
     35          1           0       -1.454244   -1.343383    0.901029
     36          1           0       -2.428820    2.091264   -0.084875
     37          1           0       -4.781887    2.669598   -0.670973
     38          1           0       -8.733500    0.302836   -0.857504
     39          1           0       -8.138814   -2.042468   -0.188228
     40          1           0       -3.630249   -1.989640    0.654175
     41          1           0        0.823530   -1.960486   -0.518337
     42          1           0        1.285881   -0.363241   -1.098983
     43          1           0        3.230478   -1.896064   -1.037234
     44          1           0        3.004392   -2.148242    0.702531
 ---------------------------------------------------------------------

 The electronic state is 1-A.
 Alpha  occ. eigenvalues --  -89.10347 -19.13805 -19.13766 -19.13759 -14.39609
 Alpha  occ. eigenvalues --  -14.36529 -14.34989 -14.34971 -10.30937 -10.25795
 Alpha  occ. eigenvalues --  -10.23804 -10.23751 -10.23569 -10.23498 -10.23344
 Alpha  occ. eigenvalues --  -10.22876 -10.22551 -10.22226 -10.21240 -10.20445
 Alpha  occ. eigenvalues --  -10.20317 -10.20252 -10.20170 -10.19768  -8.12933
 Alpha  occ. eigenvalues --   -6.09436  -6.09361  -6.09198  -1.10345  -1.05639
 Alpha  occ. eigenvalues --   -0.99486  -0.98226  -0.95984  -0.93672  -0.91228
 Alpha  occ. eigenvalues --   -0.85533  -0.82582  -0.79950  -0.77429  -0.76682
 Alpha  occ. eigenvalues --   -0.76316  -0.71256  -0.68094  -0.66881  -0.65789
 Alpha  occ. eigenvalues --   -0.65624  -0.62439  -0.61549  -0.59246  -0.56510
 Alpha  occ. eigenvalues --   -0.54834  -0.54230  -0.53451  -0.52563  -0.50819
 Alpha  occ. eigenvalues --   -0.49957  -0.49223  -0.47943  -0.47126  -0.46460
 Alpha  occ. eigenvalues --   -0.45707  -0.45558  -0.44477  -0.44185  -0.43965
 Alpha  occ. eigenvalues --   -0.43315  -0.43037  -0.42122  -0.41731  -0.41433
 Alpha  occ. eigenvalues --   -0.40404  -0.39487  -0.39246  -0.38812  -0.37694
 Alpha  occ. eigenvalues --   -0.37443  -0.37005  -0.36240  -0.34800  -0.34352
 Alpha  occ. eigenvalues --   -0.34260  -0.33347  -0.31071  -0.31029  -0.31021
 Alpha  occ. eigenvalues --   -0.29682  -0.29214  -0.26900  -0.25631  -0.24908
 Alpha  occ. eigenvalues --   -0.24769  -0.23216
 Alpha virt. eigenvalues --   -0.07316  -0.03151   0.00081   0.01919   0.04244
 Alpha virt. eigenvalues --    0.06584   0.06803   0.08277   0.08593   0.08818
 Alpha virt. eigenvalues --    0.09606   0.10248   0.10577   0.11952   0.12165

 Mulliken charges:
               1
     1  C   -0.462666
     2  C   -0.446182
     3  S    1.232354
     4  O   -0.541402
     5  O   -0.550622
     6  N   -0.580213
     7  C   -0.124974
     8  C   -0.292844
     9  C   -0.191336
    10  C    0.618651
    11  O   -0.499033
    12  N   -0.727986
    13  C    0.373827
    14  C   -0.162455
    15  C   -0.166506
    16  C    0.277833
    17  N   -0.459690
    18  C    0.027590
    19  C    0.034135
    20  N   -0.471742
    21  C    0.285942
    22  C   -0.252455
    23  C   -0.291255
    24  C   -0.142423
    25  H    0.187911
    26  H    0.166626
    27  H    0.161132
    28  H    0.203909
    29  H    0.186980
    30  H    0.173706
    31  H    0.181289
    32  H    0.177303
    33  H    0.145738
    34  H    0.133769
    35  H    0.336780
    36  H    0.197783
    37  H    0.156731
    38  H    0.149228
    39  H    0.149065
    40  H    0.137701
    41  H    0.144709
    42  H    0.182745
    43  H    0.196636
    44  H    0.143712
 Sum of Mulliken charges =  -0.00000

 Dipole moment (field-independent basis, Debye):
    X=              0.0062    Y=             -4.7635    Z=              4.0458  Tot=              6.2497
 Quadrupole moment (field-independent basis, Debye-Ang):
   XX=           -138.1991   YY=           -150.2330   ZZ=           -153.1256
   XY=             -8.2309   XZ=             17.5921   YZ=             -0.2606

 Normal termination of Gaussian 16 at Fri Nov  4 19:12:27 2022.
