 Gaussian 16, Revision B.01,
 Gaussian 16:  ES64L-G16RevB.01 20-Dec-2017

 -------------------------------------------------------------------
 #p b3lyp/6-31g(d) 6D 10F nosymm GFInput td=(50-50,nstate=2) SCF=XQC
 -------------------------------------------------------------------

 ------------------------------
 Gaussian input prepared by ASE
 ------------------------------
 Symbolic Z-matrix:
 Charge =  0 Multiplicity = 1

                          Input orientation:
 ---------------------------------------------------------------------
 Center     Atomic      Atomic             Coordinates (Angstroms)
 Number     Number       Type             X           Y           Z
 ---------------------------------------------------------------------
      1          6           0       -6.211896    1.607702    0.681946
      2          8           0       -4.886535    2.104963    0.759042
      3          6           0       -3.864917    1.209583    0.669730
      4          6           0       -4.007019   -0.163425    0.502416
      5          6           0       -2.883631   -0.999129    0.417875
      6          6           0       -1.594413   -0.479140    0.494736
      7          6           0       -0.333106   -1.351499    0.477669
      8          7           0        0.750580   -0.663471   -0.235925
      9          6           0        1.975851   -0.417841    0.304909
     10          8           0        2.311996   -0.781351    1.428538
     11          6           0        2.930474    0.382624   -0.586247
     12          6           0        4.376244   -0.043081   -0.314638
     13          7           0        5.335746    0.817852   -0.997681
     14          6           0        6.245751    1.685462   -0.512250
     15          7           0        6.876270    2.258472   -1.517120
     16          7           0        6.329036    1.721544   -2.642744
     17          7           0        5.407479    0.860194   -2.348749
     18          6           0       -0.519802   -2.798333   -0.056480
     19          6           0       -0.863850   -2.851411   -1.553557
     20          6           0        0.714569   -3.660863    0.246887
     21          6           0       -1.454862    0.912964    0.670795
     22          6           0       -2.558253    1.754835    0.759398
     23          8           0       -2.499691    3.105092    0.931767
     24          6           0       -1.223424    3.708722    1.052327
     25          1           0       -6.403536    1.114405   -0.280562
     26          1           0       -6.862748    2.478696    0.776848
     27          1           0       -6.427266    0.902851    1.496281
     28          1           0       -4.995040   -0.603962    0.433302
     29          1           0       -3.050166   -2.062974    0.294055
     30          1           0        0.037525   -1.433298    1.506027
     31          1           0        0.550183   -0.310002   -1.161846
     32          1           0        2.696429    0.269137   -1.649699
     33          1           0        2.816176    1.447043   -0.341778
     34          1           0        4.547639   -1.070939   -0.645972
     35          1           0        4.578788    0.002061    0.756518
     36          1           0        6.416854    1.861679    0.539374
     37          1           0       -1.357688   -3.229052    0.507002
     38          1           0       -1.739901   -2.243017   -1.800099
     39          1           0       -1.071436   -3.881981   -1.862628
     40          1           0       -0.021611   -2.497613   -2.161605
     41          1           0        0.537357   -4.699711   -0.054212
     42          1           0        1.593738   -3.302624   -0.300424
     43          1           0        0.962251   -3.651199    1.313593
     44          1           0       -0.458803    1.331883    0.746366
     45          1           0       -0.671174    3.319162    1.918072
     46          1           0       -0.619632    3.564193    0.145850
     47          1           0       -1.410535    4.774794    1.192893
 ---------------------------------------------------------------------

 SCF Done:  E(RB3LYP) =  -1122.92343251     A.U. after   15 cycles

 Excitation energies and oscillator strengths:

 Excited state symmetry could not be determined.
 Excited State   1:      Triplet-?Sym    3.5701 eV  347.29 nm  f=0.0000  <S**2>=2.000
      88 -> 91         0.29421
      89 -> 91         0.22470
      89 -> 92         0.52634
      89 -> 93        -0.23844
 This state for optimization and/or second-order correction.
 Total Energy, E(TD-HF/TD-DFT) =  -1122.79223522
 Copying the excited state density for this state as the 1-particle RhoCI density.

 Excited state symmetry could not be determined.
 Excited State   2:      Triplet-?Sym    4.0101 eV  309.18 nm  f=0.0000  <S**2>=2.000
      89 -> 91         0.65601
      89 -> 92        -0.18857
      89 -> 93         0.13028

 Excited state symmetry could not be determined.
 Excited State   3:      Singlet-?Sym    4.8897 eV  253.56 nm  f=0.0039  <S**2>=0.000
      89 -> 90         0.69803

 Excited state symmetry could not be determined.
 Excited State   4:      Singlet-?Sym    4.9684 eV  249.55 nm  f=0.0532  <S**2>=0.000
      88 -> 92        -0.28904
      88 -> 93         0.12643
      89 -> 90         0.10774
      89 -> 91         0.59126
      89 -> 92        -0.14047

 Alpha  occ. eigenvalues --  -19.18109 -19.18096 -19.12684 -14.44293 -14.40196
 Alpha  occ. eigenvalues --  -14.38768 -14.37424 -14.35730 -10.30389 -10.26960
 Alpha  occ. eigenvalues --  -10.26010 -10.25108 -10.25000 -10.24503 -10.24425
 Alpha  occ. eigenvalues --  -10.23638 -10.22294 -10.20093 -10.20052 -10.19302
 Alpha  occ. eigenvalues --  -10.19152 -10.19042 -10.18262 -10.17723  -1.13524
 Alpha  occ. eigenvalues --   -1.07773  -1.05820  -1.04600  -0.95533  -0.93877
 Alpha  occ. eigenvalues --   -0.88630  -0.85599  -0.81658  -0.80043  -0.77069
 Alpha  occ. eigenvalues --   -0.75455  -0.72458  -0.71007  -0.70158  -0.69006
 Alpha  occ. eigenvalues --   -0.66885  -0.66457  -0.62468  -0.61060  -0.59985
 Alpha  occ. eigenvalues --   -0.59376  -0.57370  -0.55283  -0.54640  -0.51888
 Alpha  occ. eigenvalues --   -0.50817  -0.50274  -0.49814  -0.49062  -0.48358
 Alpha  occ. eigenvalues --   -0.47804  -0.47570  -0.46607  -0.46175  -0.45586
 Alpha  occ. eigenvalues --   -0.44653  -0.43747  -0.43631  -0.42719  -0.41709
 Alpha  occ. eigenvalues --   -0.41175  -0.40235  -0.39903  -0.39084  -0.38814
 Alpha  occ. eigenvalues --   -0.37849  -0.37629  -0.37063  -0.36778  -0.34725
 Alpha  occ. eigenvalues --   -0.34360  -0.34085  -0.33268  -0.32725  -0.32519
 Alpha  occ. eigenvalues --   -0.31624  -0.30985  -0.30173  -0.29700  -0.28227
 Alpha  occ. eigenvalues --   -0.26773  -0.26664  -0.24004  -0.20787
 Alpha virt. eigenvalues --   -0.01614   0.00080   0.00348   0.01178   0.02341
 Alpha virt. eigenvalues --    0.05736   0.07837   0.08799   0.09183   0.09721
 Alpha virt. eigenvalues --    0.10115   0.10628   0.11890   0.12446   0.13333

 Mulliken charges:
               1
     1  C   -0.215218
     2  O   -0.497992
     3  C    0.343252
     4  C   -0.209944
     5  C   -0.205023
     6  C    0.130806
     7  C   -0.035506
     8  N   -0.612740
     9  C    0.629082
    10  O   -0.528032
    11  C   -0.381599
    12  C   -0.149660
    13  N   -0.257401
    14  C    0.246909
    15  N   -0.310815
    16  N   -0.087939
    17  N   -0.075531
    18  C   -0.078126
    19  C   -0.462408
    20  C   -0.446085
    21  C   -0.256909
    22  C    0.344260
    23  O   -0.499259
    24  C   -0.213869
    25  H    0.150945
    26  H    0.172689
    27  H    0.151860
    28  H    0.133899
    29  H    0.127540
    30  H    0.190782
    31  H    0.329667
    32  H    0.179942
    33  H    0.182416
    34  H    0.194503
    35  H    0.201506
    36  H    0.194715
    37  H    0.136549
    38  H    0.154260
    39  H    0.149885
    40  H    0.135740
    41  H    0.141806
    42  H    0.142701
    43  H    0.157448
    44  H    0.127723
    45  H    0.154260
    46  H    0.145363
    47  H    0.173551
 Sum of Mulliken charges =  -0.00000

 Dipole moment (field-independent basis, Debye):
    X=             -5.3701    Y=             -1.7833    Z=              2.1001  Tot=              6.0356
 Quadrupole moment (field-independent basis, Debye-Ang):
   XX=           -161.9664   YY=           -141.3748   ZZ=           -157.4796
   XY=             -8.1315   XZ=             24.7387   YZ=             11.0751

 Normal termination of Gaussian 16 at Sat Nov  5 11:25:32 2022.
