 Gaussian 16, Revision B.01,
 Gaussian 16:  ES64L-G16RevB.01 20-Dec-2017

 -------------------------------------------------------------------
 #p b3lyp/6-31g(d) 6D 10F nosymm GFInput td=(50-50,nstate=2) SCF=XQC
 -------------------------------------------------------------------

 ------------------------------
 Gaussian input prepared by ASE
 ------------------------------
 Symbolic Z-matrix:
 Charge =  0 Multiplicity = 1

                          Input orientation:
 ---------------------------------------------------------------------
 Center     Atomic      Atomic             Coordinates (Angstroms)
 Number     Number       Type             X           Y           Z
 ---------------------------------------------------------------------
      1          6           0        8.681437    1.882116   -0.583831
      2          8           0        8.418054    1.106164    0.572526
      3          6           0        7.203392    0.487590    0.677409
      4          6           0        7.005797   -0.265675    1.843273
      5          6           0        5.801317   -0.932070    2.027179
      6          6           0        4.785547   -0.860131    1.068341
      7          6           0        4.970297   -0.108995   -0.097478
      8          6           0        3.895369    0.045435   -1.152243
      9          6           0        2.841137   -1.098599   -1.280617
     10          6           0        1.827007   -0.224913   -0.489262
     11          7           0        0.441078   -0.149145   -0.905024
     12          6           0       -0.484890   -1.025854   -0.353649
     13          8           0       -0.197567   -1.793013    0.560645
     14          7           0       -1.758857   -0.979379   -0.915762
     15          6           0       -2.344619    0.209135   -1.526606
     16          6           0       -3.288438    0.943962   -0.557104
     17          7           0       -4.277099    0.027043   -0.005716
     18          6           0       -5.566903    0.411242    0.289041
     19          6           0       -6.101690    1.680349   -0.042893
     20          6           0       -7.428294    1.896227    0.280528
     21          7           0       -8.215774    0.989948    0.883313
     22          6           0       -7.616480   -0.173617    1.170655
     23          6           0       -8.445430   -1.228224    1.857614
     24          7           0       -6.344669   -0.496830    0.907630
     25          6           0       -3.697591   -1.173538    0.610609
     26          6           0       -2.771963   -1.886976   -0.374925
     27          6           0        2.716192    1.010392   -0.766306
     28          6           0        6.191216    0.561902   -0.284278
     29          1           0        7.975790    2.718303   -0.680554
     30          1           0        9.691254    2.276931   -0.456187
     31          1           0        8.643887    1.273924   -1.497665
     32          1           0        7.805092   -0.314802    2.575908
     33          1           0        5.648215   -1.520338    2.928206
     34          1           0        3.858428   -1.399177    1.236853
     35          1           0        4.375059    0.312233   -2.099208
     36          1           0        3.093923   -2.078717   -0.866656
     37          1           0        2.528957   -1.230708   -2.323267
     38          1           0        1.820821   -0.494659    0.566764
     39          1           0        0.298426    0.106133   -1.874232
     40          1           0       -1.566022    0.904957   -1.842184
     41          1           0       -2.912292   -0.094403   -2.416707
     42          1           0       -2.692550    1.402656    0.249378
     43          1           0       -3.783511    1.744849   -1.107996
     44          1           0       -5.524448    2.467399   -0.510310
     45          1           0       -7.892772    2.854514    0.050295
     46          1           0       -8.502212   -2.131400    1.239217
     47          1           0       -7.982008   -1.519051    2.807015
     48          1           0       -9.453306   -0.853247    2.043637
     49          1           0       -4.515915   -1.821522    0.920511
     50          1           0       -3.120929   -0.889628    1.504872
     51          1           0       -2.257616   -2.709013    0.122265
     52          1           0       -3.360196   -2.282438   -1.213652
     53          1           0        2.883740    1.706766    0.060502
     54          1           0        2.366604    1.576939   -1.638249
     55          1           0        6.336006    1.138958   -1.191629
 ---------------------------------------------------------------------

 SCF Done:  E(RB3LYP) =  -1240.69385384     A.U. after   15 cycles

 Excitation energies and oscillator strengths:

 Excited state symmetry could not be determined.
 Excited State   1:      Triplet-?Sym    3.6790 eV  337.01 nm  f=0.0000  <S**2>=2.000
      98 ->105        -0.11795
      99 ->105         0.36257
      99 ->106         0.10272
     101 ->105         0.17502
     101 ->106        -0.26603
     102 ->105         0.26890
     102 ->106        -0.37329
 This state for optimization and/or second-order correction.
 Total Energy, E(TD-HF/TD-DFT) =  -1240.55865460
 Copying the excited state density for this state as the 1-particle RhoCI density.

 Excited state symmetry could not be determined.
 Excited State   2:      Triplet-?Sym    3.8804 eV  319.51 nm  f=0.0000  <S**2>=2.000
      98 ->103         0.13723
     100 ->103        -0.13008
     101 ->103         0.51223
     101 ->104        -0.19046
     102 ->103        -0.36125
     102 ->104         0.13403

 Excited state symmetry could not be determined.
 Excited State   3:      Singlet-?Sym    4.5966 eV  269.73 nm  f=0.0129  <S**2>=0.000
      98 ->103         0.19391
      99 ->103         0.19986
     100 ->103         0.54609
     101 ->103        -0.27588
     102 ->103         0.19384

 Excited state symmetry could not be determined.
 Excited State   4:      Singlet-?Sym    4.6868 eV  264.54 nm  f=0.0445  <S**2>=0.000
      95 ->104        -0.11639
      98 ->103         0.16206
      99 ->103         0.12638
     100 ->103         0.28049
     101 ->103         0.47678
     102 ->103        -0.35555

 Alpha  occ. eigenvalues --  -19.17553 -19.10544 -14.36713 -14.36031 -14.35492
 Alpha  occ. eigenvalues --  -14.31733 -14.31254 -10.30841 -10.27069 -10.25014
 Alpha  occ. eigenvalues --  -10.24354 -10.24069 -10.24039 -10.23768 -10.22560
 Alpha  occ. eigenvalues --  -10.22164 -10.21836 -10.21617 -10.19738 -10.19481
 Alpha  occ. eigenvalues --  -10.19200 -10.18923 -10.18606 -10.18428 -10.18239
 Alpha  occ. eigenvalues --  -10.17876 -10.17697 -10.17156  -1.06113  -1.04205
 Alpha  occ. eigenvalues --   -0.98934  -0.95617  -0.93085  -0.91641  -0.86439
 Alpha  occ. eigenvalues --   -0.85609  -0.82908  -0.79191  -0.78490  -0.75581
 Alpha  occ. eigenvalues --   -0.74299  -0.72896  -0.71227  -0.69461  -0.67159
 Alpha  occ. eigenvalues --   -0.66840  -0.66603  -0.64521  -0.61717  -0.60440
 Alpha  occ. eigenvalues --   -0.59800  -0.58884  -0.57297  -0.55677  -0.54612
 Alpha  occ. eigenvalues --   -0.51705  -0.51467  -0.51202  -0.50184  -0.48675
 Alpha  occ. eigenvalues --   -0.48214  -0.47706  -0.46775  -0.46719  -0.46676
 Alpha  occ. eigenvalues --   -0.46549  -0.45666  -0.45396  -0.43685  -0.43354
 Alpha  occ. eigenvalues --   -0.43132  -0.41629  -0.41533  -0.41030  -0.40649
 Alpha  occ. eigenvalues --   -0.39964  -0.39593  -0.38520  -0.38356  -0.38092
 Alpha  occ. eigenvalues --   -0.37792  -0.37612  -0.37389  -0.36801  -0.36350
 Alpha  occ. eigenvalues --   -0.36169  -0.35109  -0.34821  -0.33003  -0.32285
 Alpha  occ. eigenvalues --   -0.31715  -0.31068  -0.30465  -0.28527  -0.27440
 Alpha  occ. eigenvalues --   -0.26745  -0.24582  -0.24400  -0.23913  -0.23641
 Alpha  occ. eigenvalues --   -0.21463  -0.21388
 Alpha virt. eigenvalues --   -0.01728  -0.00027   0.00179   0.01504   0.04623
 Alpha virt. eigenvalues --    0.06666   0.07969   0.08999   0.09692   0.10481
 Alpha virt. eigenvalues --    0.10611   0.11203   0.11897   0.12968   0.13257

 Mulliken charges:
               1
     1  C   -0.211935
     2  O   -0.509289
     3  C    0.381944
     4  C   -0.173546
     5  C   -0.133030
     6  C   -0.209084
     7  C    0.194554
     8  C   -0.213384
     9  C   -0.281653
    10  C    0.065736
    11  N   -0.647508
    12  C    0.766287
    13  O   -0.541665
    14  N   -0.467609
    15  C   -0.154859
    16  C   -0.130062
    17  N   -0.494980
    18  C    0.548429
    19  C   -0.204003
    20  C    0.044314
    21  N   -0.452802
    22  C    0.434052
    23  C   -0.501929
    24  N   -0.537111
    25  C   -0.145447
    26  C   -0.153212
    27  C   -0.282555
    28  C   -0.267372
    29  H    0.149737
    30  H    0.168677
    31  H    0.150392
    32  H    0.135361
    33  H    0.131523
    34  H    0.135728
    35  H    0.127759
    36  H    0.160812
    37  H    0.127104
    38  H    0.179046
    39  H    0.313823
    40  H    0.151155
    41  H    0.156160
    42  H    0.155309
    43  H    0.158212
    44  H    0.133193
    45  H    0.140242
    46  H    0.165466
    47  H    0.166464
    48  H    0.170643
    49  H    0.198989
    50  H    0.157925
    51  H    0.193504
    52  H    0.147442
    53  H    0.156260
    54  H    0.125108
    55  H    0.121684
 Sum of Mulliken charges =  -0.00000

 Dipole moment (field-independent basis, Debye):
    X=              2.3272    Y=              2.8624    Z=             -4.4624  Tot=              5.7898
 Quadrupole moment (field-independent basis, Debye-Ang):
   XX=           -190.5727   YY=           -161.3895   ZZ=           -158.1855
   XY=              9.1891   XZ=             -2.6075   YZ=             -5.7870

 Normal termination of Gaussian 16 at Sat Nov  5 11:31:38 2022.
