 Gaussian 16, Revision B.01,
 Gaussian 16:  ES64L-G16RevB.01 20-Dec-2017

 -----------------------------
 #p b3lyp/6-31g(d) opt SCF=XQC
 -----------------------------

 ------------------------------
 Gaussian input prepared by ASE
 ------------------------------
 Symbolic Z-matrix:
 Charge =  0 Multiplicity = 1

 SCF Done:  E(RB3LYP) =  -1240.68478845     A.U. after   15 cycles
 SCF Done:  E(RB3LYP) =  -1240.69119769     A.U. after   12 cycles
 SCF Done:  E(RB3LYP) =  -1240.69193994     A.U. after   12 cycles
 SCF Done:  E(RB3LYP) =  -1240.69245322     A.U. after   11 cycles
 SCF Done:  E(RB3LYP) =  -1240.69276966     A.U. after   12 cycles
 SCF Done:  E(RB3LYP) =  -1240.69293855     A.U. after   10 cycles
 SCF Done:  E(RB3LYP) =  -1240.69300471     A.U. after   11 cycles
 SCF Done:  E(RB3LYP) =  -1240.69305567     A.U. after   10 cycles
 SCF Done:  E(RB3LYP) =  -1240.69308365     A.U. after   10 cycles
 SCF Done:  E(RB3LYP) =  -1240.69310529     A.U. after   10 cycles
 SCF Done:  E(RB3LYP) =  -1240.69384702     A.U. after    9 cycles
 SCF Done:  E(RB3LYP) =  -1240.69384741     A.U. after    8 cycles
 SCF Done:  E(RB3LYP) =  -1240.69384760     A.U. after    7 cycles
 SCF Done:  E(RB3LYP) =  -1240.69384775     A.U. after    7 cycles
 SCF Done:  E(RB3LYP) =  -1240.69384780     A.U. after    7 cycles
 SCF Done:  E(RB3LYP) =  -1240.69384777     A.U. after    7 cycles
 SCF Done:  E(RB3LYP) =  -1240.69384774     A.U. after    7 cycles
 SCF Done:  E(RB3LYP) =  -1240.69384774     A.U. after    6 cycles
 SCF Done:  E(RB3LYP) =  -1240.69384775     A.U. after    6 cycles
 SCF Done:  E(RB3LYP) =  -1240.69384777     A.U. after    6 cycles
 Optimization completed.
    -- Stationary point found.

                         Standard orientation:
 ---------------------------------------------------------------------
 Center     Atomic      Atomic             Coordinates (Angstroms)
 Number     Number       Type             X           Y           Z
 ---------------------------------------------------------------------
      1          6           0       -8.846149    1.695652   -0.559941
      2          8           0       -8.537845    0.420290   -1.095697
      3          6           0       -7.307558   -0.114926   -0.833062
      4          6           0       -7.065283   -1.378681   -1.389763
      5          6           0       -5.842209   -1.997604   -1.166829
      6          6           0       -4.851642   -1.377670   -0.398198
      7          6           0       -5.081031   -0.115307    0.159737
      8          6           0       -4.035478    0.628123    0.963467
      9          6           0       -2.959461   -0.222283    1.708916
     10          6           0       -1.946272    0.103518    0.575193
     11          7           0       -0.572768    0.439589    0.891335
     12          6           0        0.385455   -0.565877    0.921205
     13          8           0        0.137332   -1.718220    0.578331
     14          7           0        1.644188   -0.177277    1.374754
     15          6           0        2.188519    1.169156    1.234638
     16          6           0        3.138808    1.278832    0.028147
     17          7           0        4.160586    0.241802    0.080642
     18          6           0        5.448243    0.441201   -0.366866
     19          6           0        5.946543    1.699789   -0.784557
     20          6           0        7.275412    1.744141   -1.163002
     21          7           0        8.097117    0.681308   -1.160840
     22          6           0        7.530926   -0.466730   -0.764560
     23          6           0        8.399402   -1.698324   -0.750641
     24          7           0        6.260659   -0.632133   -0.376984
     25          6           0        3.622906   -1.117518    0.222877
     26          6           0        2.689937   -1.199948    1.431112
     27          6           0       -2.869109    1.258412    0.119153
     28          6           0       -6.320704    0.508443   -0.063390
     29          1           0       -8.161799    2.469023   -0.934194
     30          1           0       -9.861133    1.922730   -0.891821
     31          1           0       -8.817071    1.692218    0.538031
     32          1           0       -7.845438   -1.848228   -1.980461
     33          1           0       -5.654441   -2.979375   -1.593699
     34          1           0       -3.908982   -1.890685   -0.234721
     35          1           0       -4.543617    1.356553    1.603163
     36          1           0       -3.180363   -1.275907    1.901199
     37          1           0       -2.669585    0.251137    2.654365
     38          1           0       -1.908695   -0.702442   -0.157616
     39          1           0       -0.459178    1.190439    1.560813
     40          1           0        1.387279    1.898631    1.108733
     41          1           0        2.741231    1.423723    2.149172
     42          1           0        2.552435    1.198841   -0.902264
     43          1           0        3.602559    2.265961    0.050758
     44          1           0        5.340869    2.595337   -0.832394
     45          1           0        7.712796    2.685186   -1.494952
     46          1           0        8.461365   -2.109844    0.263349
     47          1           0        7.965527   -2.478137   -1.386523
     48          1           0        9.402873   -1.455753   -1.104522
     49          1           0        4.462651   -1.802691    0.327485
     50          1           0        3.061745   -1.391038   -0.684392
     51          1           0        2.206101   -2.175786    1.464821
     52          1           0        3.266478   -1.049697    2.353553
     53          1           0       -3.032168    1.379177   -0.955765
     54          1           0       -2.553275    2.222043    0.537647
     55          1           0       -6.500068    1.484602    0.374999
 ---------------------------------------------------------------------

 The electronic state is 1-A.
 Alpha  occ. eigenvalues --  -19.17553 -19.10544 -14.36713 -14.36032 -14.35492
 Alpha  occ. eigenvalues --  -14.31733 -14.31254 -10.30841 -10.27069 -10.25014
 Alpha  occ. eigenvalues --  -10.24354 -10.24069 -10.24039 -10.23768 -10.22560
 Alpha  occ. eigenvalues --  -10.22164 -10.21836 -10.21616 -10.19738 -10.19481
 Alpha  occ. eigenvalues --  -10.19200 -10.18923 -10.18606 -10.18428 -10.18239
 Alpha  occ. eigenvalues --  -10.17876 -10.17697 -10.17156  -1.06113  -1.04205
 Alpha  occ. eigenvalues --   -0.98934  -0.95617  -0.93085  -0.91641  -0.86439
 Alpha  occ. eigenvalues --   -0.85609  -0.82908  -0.79191  -0.78490  -0.75581
 Alpha  occ. eigenvalues --   -0.74299  -0.72895  -0.71227  -0.69461  -0.67159
 Alpha  occ. eigenvalues --   -0.66840  -0.66603  -0.64521  -0.61717  -0.60440
 Alpha  occ. eigenvalues --   -0.59800  -0.58884  -0.57296  -0.55677  -0.54612
 Alpha  occ. eigenvalues --   -0.51705  -0.51467  -0.51202  -0.50184  -0.48675
 Alpha  occ. eigenvalues --   -0.48214  -0.47706  -0.46775  -0.46719  -0.46676
 Alpha  occ. eigenvalues --   -0.46549  -0.45666  -0.45396  -0.43685  -0.43354
 Alpha  occ. eigenvalues --   -0.43132  -0.41629  -0.41533  -0.41030  -0.40649
 Alpha  occ. eigenvalues --   -0.39964  -0.39593  -0.38520  -0.38356  -0.38092
 Alpha  occ. eigenvalues --   -0.37792  -0.37612  -0.37389  -0.36801  -0.36350
 Alpha  occ. eigenvalues --   -0.36169  -0.35109  -0.34821  -0.33003  -0.32285
 Alpha  occ. eigenvalues --   -0.31715  -0.31068  -0.30465  -0.28527  -0.27440
 Alpha  occ. eigenvalues --   -0.26745  -0.24582  -0.24400  -0.23913  -0.23641
 Alpha  occ. eigenvalues --   -0.21463  -0.21388
 Alpha virt. eigenvalues --   -0.01728  -0.00027   0.00179   0.01504   0.04623
 Alpha virt. eigenvalues --    0.06666   0.07969   0.08999   0.09692   0.10481
 Alpha virt. eigenvalues --    0.10611   0.11203   0.11897   0.12968   0.13257

 Mulliken charges:
               1
     1  C   -0.211926
     2  O   -0.509289
     3  C    0.381936
     4  C   -0.173545
     5  C   -0.133028
     6  C   -0.209094
     7  C    0.194547
     8  C   -0.213387
     9  C   -0.281652
    10  C    0.065735
    11  N   -0.647530
    12  C    0.766316
    13  O   -0.541669
    14  N   -0.467643
    15  C   -0.154815
    16  C   -0.130063
    17  N   -0.495002
    18  C    0.548414
    19  C   -0.204000
    20  C    0.044315
    21  N   -0.452798
    22  C    0.434039
    23  C   -0.501928
    24  N   -0.537096
    25  C   -0.145399
    26  C   -0.153220
    27  C   -0.282542
    28  C   -0.267361
    29  H    0.149735
    30  H    0.168676
    31  H    0.150390
    32  H    0.135362
    33  H    0.131522
    34  H    0.135732
    35  H    0.127759
    36  H    0.160811
    37  H    0.127106
    38  H    0.179045
    39  H    0.313823
    40  H    0.151152
    41  H    0.156153
    42  H    0.155309
    43  H    0.158210
    44  H    0.133193
    45  H    0.140242
    46  H    0.165466
    47  H    0.166465
    48  H    0.170643
    49  H    0.198983
    50  H    0.157918
    51  H    0.193503
    52  H    0.147443
    53  H    0.156258
    54  H    0.125105
    55  H    0.121684
 Sum of Mulliken charges =  -0.00000

 Dipole moment (field-independent basis, Debye):
    X=             -2.4969    Y=              4.7698    Z=              2.1299  Tot=              5.7898
 Quadrupole moment (field-independent basis, Debye-Ang):
   XX=           -189.4329   YY=           -154.9502   ZZ=           -164.1902
   XY=            -10.9865   XZ=              2.1766   YZ=              4.2049

 Normal termination of Gaussian 16 at Fri Nov  4 19:31:04 2022.
