 Gaussian 16, Revision B.01,
 Gaussian 16:  ES64L-G16RevB.01 20-Dec-2017

 -----------------------------
 #p b3lyp/6-31g(d) opt SCF=XQC
 -----------------------------

 ------------------------------
 Gaussian input prepared by ASE
 ------------------------------
 Symbolic Z-matrix:
 Charge =  0 Multiplicity = 1

 SCF Done:  E(RB3LYP) =  -1507.68345477     A.U. after   14 cycles
 SCF Done:  E(RB3LYP) =  -1507.69022527     A.U. after   12 cycles
 SCF Done:  E(RB3LYP) =  -1507.69118319     A.U. after   12 cycles
 SCF Done:  E(RB3LYP) =  -1507.69115511     A.U. after   13 cycles
 SCF Done:  E(RB3LYP) =  -1507.69156005     A.U. after   12 cycles
 SCF Done:  E(RB3LYP) =  -1507.69165590     A.U. after   11 cycles
 SCF Done:  E(RB3LYP) =  -1507.69176667     A.U. after   12 cycles
 SCF Done:  E(RB3LYP) =  -1507.69181453     A.U. after   12 cycles
 SCF Done:  E(RB3LYP) =  -1507.69187333     A.U. after   11 cycles
 SCF Done:  E(RB3LYP) =  -1507.69189649     A.U. after   10 cycles
 SCF Done:  E(RB3LYP) =  -1507.69199721     A.U. after   10 cycles
 SCF Done:  E(RB3LYP) =  -1507.69200093     A.U. after   10 cycles
 SCF Done:  E(RB3LYP) =  -1507.69200268     A.U. after   11 cycles
 SCF Done:  E(RB3LYP) =  -1507.69200566     A.U. after   10 cycles
 SCF Done:  E(RB3LYP) =  -1507.69200697     A.U. after    9 cycles
 SCF Done:  E(RB3LYP) =  -1507.69200715     A.U. after    8 cycles
 SCF Done:  E(RB3LYP) =  -1507.69200716     A.U. after    7 cycles
 SCF Done:  E(RB3LYP) =  -1507.69200717     A.U. after    7 cycles
 SCF Done:  E(RB3LYP) =  -1507.69200721     A.U. after    7 cycles
 SCF Done:  E(RB3LYP) =  -1507.69200723     A.U. after    7 cycles
 Optimization completed.
    -- Stationary point found.

                         Standard orientation:
 ---------------------------------------------------------------------
 Center     Atomic      Atomic             Coordinates (Angstroms)
 Number     Number       Type             X           Y           Z
 ---------------------------------------------------------------------
      1          6           0       -4.187318   -1.369491   -0.320998
      2          6           0       -5.491037   -1.763955    0.047688
      3          6           0       -6.442241   -0.778685    0.182801
      4          6           0       -6.133264    0.563699   -0.038633
      5          6           0       -4.872274    0.979440   -0.401333
      6          6           0       -3.885892   -0.022829   -0.540087
      7          8           0       -2.647795    0.444771   -0.898985
      8          6           0       -1.581812   -0.487784   -1.055515
      9          6           0       -0.336647    0.304904   -1.431663
     10          6           0        0.098483    1.329491   -0.379872
     11         16           0        0.647362    0.608009    1.230892
     12          6           0        2.151307   -0.153038    0.748003
     13          7           0        2.629715   -1.277795    1.178569
     14          7           0        3.901450   -1.403124    0.602324
     15          6           0        4.083813   -0.362484   -0.146119
     16          6           0        5.240230    0.015366   -1.022570
     17          6           0        6.321296   -1.105468   -1.079162
     18          6           0        7.565590   -0.785888   -0.222471
     19          6           0        7.174888   -0.099807    1.092990
     20          6           0        6.498525    1.271187    0.833616
     21          6           0        5.860458    1.360370   -0.569342
     22          8           0        3.010608    0.493627   -0.101169
     23          8           0       -7.259416    1.330885    0.134356
     24          6           0       -8.245105    0.441318    0.676184
     25          8           0       -7.781614   -0.897661    0.495386
     26          1           0       -3.424869   -2.131193   -0.425565
     27          1           0       -5.730958   -2.808236    0.215644
     28          1           0       -4.627069    2.020129   -0.577118
     29          1           0       -1.423547   -1.043339   -0.121477
     30          1           0       -1.823844   -1.209455   -1.848350
     31          1           0        0.478958   -0.398610   -1.637623
     32          1           0       -0.534838    0.847673   -2.365319
     33          1           0       -0.743103    1.970067   -0.102883
     34          1           0        0.901127    1.966731   -0.757667
     35          1           0        4.820072    0.163414   -2.026819
     36          1           0        6.621946   -1.251637   -2.122854
     37          1           0        5.876607   -2.045911   -0.741630
     38          1           0        8.253595   -0.137545   -0.782742
     39          1           0        8.114418   -1.713819   -0.023718
     40          1           0        8.054084    0.029540    1.734844
     41          1           0        6.485594   -0.757306    1.635717
     42          1           0        5.735996    1.455530    1.600109
     43          1           0        7.230808    2.081980    0.931484
     44          1           0        6.622009    1.628180   -1.311948
     45          1           0        5.106572    2.154783   -0.598740
     46          1           0       -8.369997    0.649234    1.749097
     47          1           0       -9.187761    0.577017    0.139242
 ---------------------------------------------------------------------

 The electronic state is 1-A.
 Alpha  occ. eigenvalues --  -88.90512 -19.24204 -19.19161 -19.18814 -19.17901
 Alpha  occ. eigenvalues --  -14.35881 -14.35755 -10.30449 -10.30366 -10.28536
 Alpha  occ. eigenvalues --  -10.25008 -10.24945 -10.24773 -10.24157 -10.23405
 Alpha  occ. eigenvalues --  -10.21699 -10.20841 -10.19662 -10.19387 -10.19110
 Alpha  occ. eigenvalues --  -10.18841 -10.18655 -10.18359 -10.18121 -10.17662
 Alpha  occ. eigenvalues --   -7.96602  -5.93151  -5.92718  -5.92055  -1.15862
 Alpha  occ. eigenvalues --   -1.12291  -1.06467  -1.03153  -0.97833  -0.87011
 Alpha  occ. eigenvalues --   -0.85752  -0.83482  -0.81425  -0.77230  -0.75674
 Alpha  occ. eigenvalues --   -0.75230  -0.74336  -0.73791  -0.68975  -0.67114
 Alpha  occ. eigenvalues --   -0.66208  -0.63602  -0.62238  -0.61862  -0.60643
 Alpha  occ. eigenvalues --   -0.59572  -0.58014  -0.54192  -0.53680  -0.52290
 Alpha  occ. eigenvalues --   -0.51986  -0.51457  -0.51059  -0.49962  -0.49423
 Alpha  occ. eigenvalues --   -0.48175  -0.47555  -0.46768  -0.45263  -0.44685
 Alpha  occ. eigenvalues --   -0.44262  -0.43952  -0.43185  -0.41734  -0.41469
 Alpha  occ. eigenvalues --   -0.39808  -0.39591  -0.39024  -0.38764  -0.38057
 Alpha  occ. eigenvalues --   -0.37946  -0.37456  -0.37358  -0.37219  -0.36259
 Alpha  occ. eigenvalues --   -0.35929  -0.35899  -0.35205  -0.34417  -0.33686
 Alpha  occ. eigenvalues --   -0.33260  -0.32039  -0.31184  -0.31014  -0.30861
 Alpha  occ. eigenvalues --   -0.29015  -0.28578  -0.27620  -0.23946  -0.23729
 Alpha  occ. eigenvalues --   -0.19651
 Alpha virt. eigenvalues --   -0.02078   0.00088   0.01938   0.02412   0.04018
 Alpha virt. eigenvalues --    0.06419   0.07460   0.08728   0.09383   0.10254
 Alpha virt. eigenvalues --    0.10697   0.11346   0.11786   0.12285   0.12786

 Mulliken charges:
               1
     1  C   -0.213452
     2  C   -0.191959
     3  C    0.327644
     4  C    0.338863
     5  C   -0.244692
     6  C    0.380763
     7  O   -0.536641
     8  C   -0.037330
     9  C   -0.282235
    10  C   -0.441861
    11  S    0.183750
    12  C    0.295072
    13  N   -0.295363
    14  N   -0.347693
    15  C    0.530581
    16  C   -0.180785
    17  C   -0.278056
    18  C   -0.264805
    19  C   -0.275022
    20  C   -0.269098
    21  C   -0.275191
    22  O   -0.442588
    23  O   -0.532992
    24  C    0.191425
    25  O   -0.533343
    26  H    0.138414
    27  H    0.146755
    28  H    0.147476
    29  H    0.168833
    30  H    0.144750
    31  H    0.159203
    32  H    0.163528
    33  H    0.204548
    34  H    0.195160
    35  H    0.155192
    36  H    0.135137
    37  H    0.179702
    38  H    0.129299
    39  H    0.139797
    40  H    0.134250
    41  H    0.163177
    42  H    0.144126
    43  H    0.137565
    44  H    0.143764
    45  H    0.147734
    46  H    0.151857
    47  H    0.164742
 Sum of Mulliken charges =  -0.00000

 Dipole moment (field-independent basis, Debye):
    X=              0.4743    Y=              2.2798    Z=             -2.8760  Tot=              3.7005
 Quadrupole moment (field-independent basis, Debye-Ang):
   XX=           -135.1729   YY=           -155.7567   ZZ=           -154.4207
   XY=              6.9309   XZ=            -13.1400   YZ=              4.0679

 Normal termination of Gaussian 16 at Fri Nov  4 18:48:56 2022.
