 Gaussian 16, Revision B.01,
 Gaussian 16:  ES64L-G16RevB.01 20-Dec-2017

 -------------------------------------------------------------------
 #p b3lyp/6-31g(d) 6D 10F nosymm GFInput td=(50-50,nstate=2) SCF=XQC
 -------------------------------------------------------------------

 ------------------------------
 Gaussian input prepared by ASE
 ------------------------------
 Symbolic Z-matrix:
 Charge =  0 Multiplicity = 1

                          Input orientation:
 ---------------------------------------------------------------------
 Center     Atomic      Atomic             Coordinates (Angstroms)
 Number     Number       Type             X           Y           Z
 ---------------------------------------------------------------------
      1          6           0        4.945371   -0.699994   -1.056941
      2          6           0        6.232224   -0.580545   -1.623471
      3          6           0        7.161287    0.174467   -0.944795
      4          6           0        6.846808    0.799182    0.262403
      5          6           0        5.602004    0.699611    0.841225
      6          6           0        4.638245   -0.070431    0.152059
      7          8           0        3.415392   -0.134284    0.769226
      8          6           0        2.372189   -0.880128    0.147996
      9          6           0        1.138844   -0.760383    1.033884
     10          6           0        0.633219    0.673440    1.217941
     11         16           0        0.007033    1.482806   -0.321275
     12          6           0       -1.457941    0.560092   -0.598177
     13          7           0       -1.943943    0.192830   -1.741969
     14          7           0       -3.180540   -0.405423   -1.462685
     15          6           0       -3.335788   -0.375186   -0.177641
     16          6           0       -4.447642   -0.899462    0.680934
     17          6           0       -5.508822   -1.681360   -0.150154
     18          6           0       -6.802196   -0.872382   -0.389024
     19          6           0       -6.493123    0.607092   -0.652506
     20          6           0       -5.822135    1.269882    0.578286
     21          6           0       -5.109727    0.245366    1.487251
     22          8           0       -2.278257    0.236150    0.450542
     23          8           0        7.951413    1.460632    0.740994
     24          6           0        8.917957    1.399900   -0.316642
     25          8           0        8.483089    0.418778   -1.259333
     26          1           0        4.200087   -1.285168   -1.580940
     27          1           0        6.476660   -1.069962   -2.559962
     28          1           0        5.352766    1.180370    1.779741
     29          1           0        2.170690   -0.485959   -0.857064
     30          1           0        2.666814   -1.934567    0.051406
     31          1           0        0.345237   -1.393256    0.618888
     32          1           0        1.380358   -1.159966    2.027663
     33          1           0        1.449737    1.325668    1.539226
     34          1           0       -0.156122    0.720168    1.971465
     35          1           0       -3.975347   -1.583509    1.399254
     36          1           0       -5.750082   -2.612640    0.374781
     37          1           0       -5.070591   -1.962749   -1.111863
     38          1           0       -7.467272   -0.957581    0.481618
     39          1           0       -7.348508   -1.307285   -1.234113
     40          1           0       -7.407692    1.149003   -0.920066
     41          1           0       -5.825680    0.672890   -1.519786
     42          1           0       -5.105115    2.028525    0.241705
     43          1           0       -6.569516    1.802619    1.178965
     44          1           0       -5.833162   -0.219424    2.168249
     45          1           0       -4.366124    0.743842    2.118817
     46          1           0        8.981311    2.382821   -0.806359
     47          1           0        9.886593    1.105510    0.096153
 ---------------------------------------------------------------------

 SCF Done:  E(RB3LYP) =  -1507.69200496     A.U. after   14 cycles

 Excitation energies and oscillator strengths:

 Excited state symmetry could not be determined.
 Excited State   1:      Triplet-?Sym    3.6366 eV  340.93 nm  f=0.0000  <S**2>=2.000
      94 -> 98        -0.11565
      95 -> 98         0.36598
      96 -> 98        -0.13881
      96 ->100         0.56281
 This state for optimization and/or second-order correction.
 Total Energy, E(TD-HF/TD-DFT) =  -1507.55836056
 Copying the excited state density for this state as the 1-particle RhoCI density.

 Excited state symmetry could not be determined.
 Excited State   2:      Triplet-?Sym    3.7390 eV  331.59 nm  f=0.0000  <S**2>=2.000
      96 -> 98         0.68750
      96 ->100         0.11584

 Excited state symmetry could not be determined.
 Excited State   3:      Singlet-?Sym    4.3941 eV  282.16 nm  f=0.0011  <S**2>=0.000
      96 -> 97         0.70526

 Excited state symmetry could not be determined.
 Excited State   4:      Singlet-?Sym    4.7570 eV  260.64 nm  f=0.1024  <S**2>=0.000
      95 ->100        -0.23230
      96 -> 98         0.66018

 Alpha  occ. eigenvalues --  -88.90512 -19.24204 -19.19161 -19.18814 -19.17901
 Alpha  occ. eigenvalues --  -14.35881 -14.35755 -10.30449 -10.30366 -10.28536
 Alpha  occ. eigenvalues --  -10.25008 -10.24945 -10.24773 -10.24157 -10.23405
 Alpha  occ. eigenvalues --  -10.21699 -10.20841 -10.19662 -10.19387 -10.19110
 Alpha  occ. eigenvalues --  -10.18841 -10.18655 -10.18359 -10.18121 -10.17662
 Alpha  occ. eigenvalues --   -7.96602  -5.93151  -5.92718  -5.92055  -1.15862
 Alpha  occ. eigenvalues --   -1.12291  -1.06467  -1.03154  -0.97833  -0.87011
 Alpha  occ. eigenvalues --   -0.85752  -0.83482  -0.81425  -0.77230  -0.75674
 Alpha  occ. eigenvalues --   -0.75230  -0.74336  -0.73791  -0.68975  -0.67114
 Alpha  occ. eigenvalues --   -0.66208  -0.63602  -0.62238  -0.61862  -0.60643
 Alpha  occ. eigenvalues --   -0.59572  -0.58014  -0.54192  -0.53680  -0.52290
 Alpha  occ. eigenvalues --   -0.51986  -0.51457  -0.51059  -0.49962  -0.49423
 Alpha  occ. eigenvalues --   -0.48175  -0.47555  -0.46768  -0.45263  -0.44685
 Alpha  occ. eigenvalues --   -0.44262  -0.43952  -0.43185  -0.41734  -0.41469
 Alpha  occ. eigenvalues --   -0.39808  -0.39591  -0.39024  -0.38764  -0.38057
 Alpha  occ. eigenvalues --   -0.37946  -0.37456  -0.37358  -0.37219  -0.36259
 Alpha  occ. eigenvalues --   -0.35929  -0.35899  -0.35205  -0.34417  -0.33686
 Alpha  occ. eigenvalues --   -0.33260  -0.32039  -0.31184  -0.31014  -0.30861
 Alpha  occ. eigenvalues --   -0.29015  -0.28578  -0.27620  -0.23946  -0.23729
 Alpha  occ. eigenvalues --   -0.19651
 Alpha virt. eigenvalues --   -0.02078   0.00088   0.01938   0.02412   0.04018
 Alpha virt. eigenvalues --    0.06419   0.07460   0.08728   0.09383   0.10254
 Alpha virt. eigenvalues --    0.10697   0.11346   0.11786   0.12285   0.12786

 Mulliken charges:
               1
     1  C   -0.213455
     2  C   -0.191959
     3  C    0.327644
     4  C    0.338866
     5  C   -0.244695
     6  C    0.380770
     7  O   -0.536650
     8  C   -0.037313
     9  C   -0.282233
    10  C   -0.441879
    11  S    0.183754
    12  C    0.295068
    13  N   -0.295356
    14  N   -0.347694
    15  C    0.530573
    16  C   -0.180755
    17  C   -0.278053
    18  C   -0.264807
    19  C   -0.275056
    20  C   -0.269055
    21  C   -0.275219
    22  O   -0.442591
    23  O   -0.532993
    24  C    0.191421
    25  O   -0.533341
    26  H    0.138415
    27  H    0.146755
    28  H    0.147475
    29  H    0.168829
    30  H    0.144747
    31  H    0.159202
    32  H    0.163528
    33  H    0.204553
    34  H    0.195163
    35  H    0.155190
    36  H    0.135135
    37  H    0.179701
    38  H    0.129299
    39  H    0.139798
    40  H    0.134254
    41  H    0.163181
    42  H    0.144123
    43  H    0.137559
    44  H    0.143766
    45  H    0.147734
    46  H    0.151857
    47  H    0.164742
 Sum of Mulliken charges =  -0.00000

 Dipole moment (field-independent basis, Debye):
    X=             -0.3472    Y=             -0.9172    Z=              3.5682  Tot=              3.7005
 Quadrupole moment (field-independent basis, Debye-Ang):
   XX=           -136.9793   YY=           -150.6205   ZZ=           -159.0743
   XY=              6.2498   XZ=            -11.3879   YZ=              0.2307

 Normal termination of Gaussian 16 at Sat Nov  5 11:30:05 2022.
