 Gaussian 16, Revision B.01,
 Gaussian 16:  ES64L-G16RevB.01 20-Dec-2017

 -----------------------------
 #p b3lyp/6-31g(d) opt SCF=XQC
 -----------------------------

 ------------------------------
 Gaussian input prepared by ASE
 ------------------------------
 Symbolic Z-matrix:
 Charge =  0 Multiplicity = 1

 SCF Done:  E(RB3LYP) =  -1369.57708255     A.U. after   14 cycles
 SCF Done:  E(RB3LYP) =  -1369.58520232     A.U. after   13 cycles
 SCF Done:  E(RB3LYP) =  -1369.58738969     A.U. after   12 cycles
 SCF Done:  E(RB3LYP) =  -1369.58813437     A.U. after   11 cycles
 SCF Done:  E(RB3LYP) =  -1369.58830580     A.U. after   11 cycles
 SCF Done:  E(RB3LYP) =  -1369.58834184     A.U. after    9 cycles
 SCF Done:  E(RB3LYP) =  -1369.58837506     A.U. after   11 cycles
 SCF Done:  E(RB3LYP) =  -1369.58838509     A.U. after    9 cycles
 SCF Done:  E(RB3LYP) =  -1369.58839741     A.U. after   10 cycles
 SCF Done:  E(RB3LYP) =  -1369.58840583     A.U. after   10 cycles
 SCF Done:  E(RB3LYP) =  -1369.58932047     A.U. after   10 cycles
 SCF Done:  E(RB3LYP) =  -1369.58933268     A.U. after   10 cycles
 SCF Done:  E(RB3LYP) =  -1369.58933880     A.U. after   10 cycles
 SCF Done:  E(RB3LYP) =  -1369.58934160     A.U. after   10 cycles
 SCF Done:  E(RB3LYP) =  -1369.58934197     A.U. after    8 cycles
 SCF Done:  E(RB3LYP) =  -1369.58934209     A.U. after    7 cycles
 SCF Done:  E(RB3LYP) =  -1369.58934216     A.U. after    8 cycles
 SCF Done:  E(RB3LYP) =  -1369.58934222     A.U. after    7 cycles
 SCF Done:  E(RB3LYP) =  -1369.58934229     A.U. after    7 cycles
 SCF Done:  E(RB3LYP) =  -1369.58934231     A.U. after    7 cycles
 Optimization completed.
    -- Stationary point found.

                         Standard orientation:
 ---------------------------------------------------------------------
 Center     Atomic      Atomic             Coordinates (Angstroms)
 Number     Number       Type             X           Y           Z
 ---------------------------------------------------------------------
      1          6           0        9.707994   -0.178712   -0.196702
      2          7           0        8.491848   -0.175487    0.599643
      3          6           0        7.827020    1.133635    0.693833
      4          6           0        6.559758    1.253844   -0.162890
      5          7           0        5.613325    0.213469    0.219155
      6          6           0        4.251604    0.361520    0.007147
      7          6           0        3.720374    1.375470   -0.816926
      8          6           0        2.347697    1.466005   -1.001086
      9          6           0        1.504912    0.558610   -0.344526
     10          7           0        0.110228    0.691912   -0.494482
     11          6           0       -0.859457   -0.289013   -0.473730
     12          7           0       -0.480051   -1.571584   -0.664952
     13          6           0       -1.436415   -2.495972   -0.662114
     14          6           0       -2.785373   -2.172603   -0.486958
     15          6           0       -4.050075   -2.846189   -0.422387
     16          6           0       -5.013747   -1.886210   -0.245364
     17          6           0       -6.478905   -2.036013   -0.002407
     18          8           0       -6.831395   -1.858073    1.375835
     19          7           0       -4.400639   -0.622813   -0.197885
     20          7           0       -5.132452    0.557669   -0.021787
     21          6           0       -4.964585    1.119619    1.331087
     22          6           0       -5.961174    2.265080    1.530083
     23          6           0       -5.812562    3.328029    0.432520
     24          6           0       -5.917387    2.680997   -0.955935
     25          6           0       -4.912527    1.534019   -1.103392
     26          6           0       -3.038902   -0.783671   -0.328627
     27          7           0       -2.113174    0.174563   -0.308366
     28          7           0        1.984245   -0.391241    0.459934
     29          6           0        3.302937   -0.491872    0.616079
     30          6           0        6.173408   -1.028996    0.745664
     31          6           0        7.581976   -1.247235    0.195485
     32          1           0        9.540375    0.023815   -1.273720
     33          1           0       10.410101    0.568027    0.188483
     34          1           0       10.190011   -1.160246   -0.117671
     35          1           0        7.549081    1.327963    1.739311
     36          1           0        8.532580    1.918484    0.401202
     37          1           0        6.814790    1.209374   -1.236170
     38          1           0        6.108328    2.236778    0.018911
     39          1           0        4.373939    2.063870   -1.341849
     40          1           0        1.932444    2.219647   -1.664798
     41          1           0       -0.269300    1.628351   -0.488302
     42          1           0       -1.110869   -3.525128   -0.815578
     43          1           0       -4.228857   -3.911028   -0.497477
     44          1           0       -7.042494   -1.269192   -0.538326
     45          1           0       -6.796964   -3.023123   -0.368051
     46          1           0       -6.299040   -2.492310    1.882673
     47          1           0       -3.932581    1.474146    1.488350
     48          1           0       -5.168070    0.310849    2.037820
     49          1           0       -5.807558    2.706182    2.522674
     50          1           0       -6.977275    1.850862    1.509867
     51          1           0       -6.572638    4.110198    0.549425
     52          1           0       -4.833543    3.819636    0.530740
     53          1           0       -6.931984    2.288219   -1.103336
     54          1           0       -5.735142    3.420748   -1.745426
     55          1           0       -3.883534    1.924320   -1.087195
     56          1           0       -5.057315    1.010169   -2.054091
     57          1           0        3.630233   -1.278567    1.291647
     58          1           0        5.545971   -1.868580    0.427970
     59          1           0        6.198048   -1.036600    1.847479
     60          1           0        7.969660   -2.206292    0.563715
     61          1           0        7.510030   -1.333447   -0.906901
 ---------------------------------------------------------------------

 The electronic state is 1-A.
 Alpha  occ. eigenvalues --  -19.14253 -14.39636 -14.36089 -14.34898 -14.34770
 Alpha  occ. eigenvalues --  -14.32716 -14.31687 -14.31245 -14.30837 -10.27428
 Alpha  occ. eigenvalues --  -10.24465 -10.24044 -10.23432 -10.22428 -10.22404
 Alpha  occ. eigenvalues --  -10.22287 -10.22149 -10.21697 -10.21558 -10.21553
 Alpha  occ. eigenvalues --  -10.20734 -10.20462 -10.20432 -10.20080 -10.19174
 Alpha  occ. eigenvalues --  -10.18752 -10.18032 -10.17977 -10.17929 -10.17896
 Alpha  occ. eigenvalues --  -10.17722  -1.02805  -1.00967  -0.98528  -0.95992
 Alpha  occ. eigenvalues --   -0.93957  -0.91373  -0.89974  -0.88313  -0.86695
 Alpha  occ. eigenvalues --   -0.80245  -0.79096  -0.77404  -0.76376  -0.75094
 Alpha  occ. eigenvalues --   -0.74823  -0.74347  -0.71268  -0.68545  -0.66776
 Alpha  occ. eigenvalues --   -0.65944  -0.64936  -0.62801  -0.62438  -0.62102
 Alpha  occ. eigenvalues --   -0.61241  -0.59589  -0.56602  -0.56096  -0.54755
 Alpha  occ. eigenvalues --   -0.53985  -0.53160  -0.52714  -0.51523  -0.50918
 Alpha  occ. eigenvalues --   -0.49260  -0.48841  -0.47196  -0.46750  -0.46179
 Alpha  occ. eigenvalues --   -0.45560  -0.45163  -0.45014  -0.43948  -0.43642
 Alpha  occ. eigenvalues --   -0.43465  -0.43285  -0.42751  -0.42532  -0.42084
 Alpha  occ. eigenvalues --   -0.42055  -0.41553  -0.40980  -0.40388  -0.39900
 Alpha  occ. eigenvalues --   -0.39348  -0.39001  -0.38818  -0.38417  -0.38326
 Alpha  occ. eigenvalues --   -0.37576  -0.37060  -0.35995  -0.35455  -0.34700
 Alpha  occ. eigenvalues --   -0.34669  -0.33488  -0.32684  -0.31910  -0.31799
 Alpha  occ. eigenvalues --   -0.31173  -0.30142  -0.29775  -0.27575  -0.27014
 Alpha  occ. eigenvalues --   -0.25836  -0.24943  -0.23556  -0.23441  -0.21880
 Alpha  occ. eigenvalues --   -0.21058  -0.20332  -0.17166
 Alpha virt. eigenvalues --   -0.02193  -0.00844   0.00964   0.03612   0.06202
 Alpha virt. eigenvalues --    0.07103   0.08383   0.09580   0.10099   0.10897
 Alpha virt. eigenvalues --    0.11316   0.11919   0.12529   0.12890   0.12979

 Mulliken charges:
               1
     1  C   -0.301894
     2  N   -0.379457
     3  C   -0.147949
     4  C   -0.133129
     5  N   -0.514906
     6  C    0.346636
     7  C   -0.159818
     8  C   -0.187584
     9  C    0.500658
    10  N   -0.739071
    11  C    0.669829
    12  N   -0.455134
    13  C   -0.005487
    14  C    0.086813
    15  C   -0.305119
    16  C    0.309557
    17  C   -0.091134
    18  O   -0.604739
    19  N   -0.437561
    20  N   -0.316673
    21  C   -0.113635
    22  C   -0.268900
    23  C   -0.267415
    24  C   -0.265287
    25  C   -0.119255
    26  C    0.545732
    27  N   -0.592108
    28  N   -0.447147
    29  C   -0.026400
    30  C   -0.142831
    31  C   -0.131686
    32  H    0.119959
    33  H    0.152034
    34  H    0.152273
    35  H    0.154013
    36  H    0.142346
    37  H    0.138194
    38  H    0.150050
    39  H    0.133896
    40  H    0.127026
    41  H    0.332658
    42  H    0.139867
    43  H    0.131745
    44  H    0.164559
    45  H    0.133340
    46  H    0.384891
    47  H    0.142184
    48  H    0.156554
    49  H    0.135100
    50  H    0.150843
    51  H    0.135332
    52  H    0.131228
    53  H    0.141010
    54  H    0.134325
    55  H    0.151092
    56  H    0.145440
    57  H    0.135086
    58  H    0.159567
    59  H    0.150526
    60  H    0.146913
    61  H    0.123044
 Sum of Mulliken charges =  -0.00000

 Dipole moment (field-independent basis, Debye):
    X=              2.7172    Y=              1.5860    Z=             -1.0894  Tot=              3.3295
 Quadrupole moment (field-independent basis, Debye-Ang):
   XX=           -157.4948   YY=           -165.2861   ZZ=           -183.3912
   XY=              5.7567   XZ=             -1.6915   YZ=             -3.6828

 Normal termination of Gaussian 16 at Fri Nov  4 19:16:28 2022.
