 Gaussian 16, Revision B.01,
 Gaussian 16:  ES64L-G16RevB.01 20-Dec-2017

 -------------------------------------------------------------------
 #p b3lyp/6-31g(d) 6D 10F nosymm GFInput td=(50-50,nstate=2) SCF=XQC
 -------------------------------------------------------------------

 ------------------------------
 Gaussian input prepared by ASE
 ------------------------------
 Symbolic Z-matrix:
 Charge =  0 Multiplicity = 1

                          Input orientation:
 ---------------------------------------------------------------------
 Center     Atomic      Atomic             Coordinates (Angstroms)
 Number     Number       Type             X           Y           Z
 ---------------------------------------------------------------------
      1          6           0        9.456341    0.567855   -0.248544
      2          7           0        8.262606    0.244034    0.515213
      3          6           0        7.486692    1.412228    0.960128
      4          6           0        6.195120    1.644095    0.164855
      5          7           0        5.353236    0.457255    0.246784
      6          6           0        3.979397    0.532355    0.079214
      7          6           0        3.342350    1.678908   -0.439421
      8          6           0        1.963312    1.690346   -0.595872
      9          6           0        1.218938    0.565944   -0.213313
     10          7           0       -0.185046    0.607078   -0.325277
     11          6           0       -1.063345   -0.426949   -0.574903
     12          7           0       -0.576159   -1.569433   -1.106771
     13          6           0       -1.446596   -2.543213   -1.358218
     14          6           0       -2.814686   -2.403945   -1.105496
     15          6           0       -4.013021   -3.182281   -1.230176
     16          6           0       -5.053776   -2.398366   -0.801380
     17          6           0       -6.494172   -2.741478   -0.612470
     18          8           0       -6.830459   -2.976873    0.761197
     19          7           0       -4.554073   -1.144713   -0.410253
     20          7           0       -5.383487   -0.128105    0.078295
     21          6           0       -5.236161    0.058817    1.533490
     22          6           0       -6.325637    1.011499    2.033798
     23          6           0       -6.296071    2.341197    1.267235
     24          6           0       -6.373871    2.088151   -0.245167
     25          6           0       -5.274884    1.120794   -0.696270
     26          6           0       -3.186668   -1.139141   -0.575988
     27          7           0       -2.349226   -0.141989   -0.293192
     28          7           0        1.798193   -0.518607    0.303741
     29          6           0        3.123747   -0.537048    0.430335
     30          6           0        6.032671   -0.824940    0.416993
     31          6           0        7.442514   -0.756340   -0.167836
     32          1           0        9.247657    1.038674   -1.230308
     33          1           0       10.097901    1.242993    0.327243
     34          1           0       10.025026   -0.350097   -0.438165
     35          1           0        7.215832    1.289573    2.018253
     36          1           0        8.113319    2.308000    0.894044
     37          1           0        6.429281    1.915792   -0.879319
     38          1           0        5.662541    2.495450    0.605936
     39          1           0        3.920604    2.540509   -0.755420
     40          1           0        1.468361    2.554571   -1.030686
     41          1           0       -0.645791    1.468066   -0.065637
     42          1           0       -1.034654   -3.458029   -1.784961
     43          1           0       -4.098407   -4.198559   -1.592630
     44          1           0       -7.135181   -1.912814   -0.921145
     45          1           0       -6.731567   -3.617195   -1.233764
     46          1           0       -6.232940   -3.673461    1.077870
     47          1           0       -4.236387    0.450044    1.784178
     48          1           0       -5.351530   -0.926355    1.992960
     49          1           0       -6.189769    1.179020    3.109382
     50          1           0       -7.301256    0.527363    1.898792
     51          1           0       -7.119662    2.989615    1.590381
     52          1           0       -5.362507    2.874951    1.498252
     53          1           0       -7.352705    1.659185   -0.496724
     54          1           0       -6.275371    3.027692   -0.803112
     55          1           0       -4.284396    1.584280   -0.571603
     56          1           0       -5.393704    0.863430   -1.754031
     57          1           0        3.534298   -1.444184    0.867318
     58          1           0        5.475185   -1.600530   -0.118897
     59          1           0        6.082258   -1.128753    1.475246
     60          1           0        7.921667   -1.739783   -0.073320
     61          1           0        7.354115   -0.546581   -1.252295
 ---------------------------------------------------------------------

 SCF Done:  E(RB3LYP) =  -1369.58934848     A.U. after   14 cycles

 Excitation energies and oscillator strengths:

 Excited state symmetry could not be determined.
 Excited State   1:      Triplet-?Sym    2.8080 eV  441.54 nm  f=0.0000  <S**2>=2.000
     112 ->114        -0.34179
     113 ->114         0.59325
 This state for optimization and/or second-order correction.
 Total Energy, E(TD-HF/TD-DFT) =  -1369.48615553
 Copying the excited state density for this state as the 1-particle RhoCI density.

 Excited state symmetry could not be determined.
 Excited State   2:      Triplet-?Sym    3.0568 eV  405.60 nm  f=0.0000  <S**2>=2.000
     112 ->115         0.17842
     113 ->115         0.67147

 Excited state symmetry could not be determined.
 Excited State   3:      Singlet-?Sym    3.6227 eV  342.24 nm  f=0.3150  <S**2>=0.000
     113 ->114         0.70022

 Excited state symmetry could not be determined.
 Excited State   4:      Singlet-?Sym    3.8720 eV  320.21 nm  f=0.0512  <S**2>=0.000
     113 ->115         0.69490

 Alpha  occ. eigenvalues --  -19.14254 -14.39636 -14.36089 -14.34898 -14.34770
 Alpha  occ. eigenvalues --  -14.32715 -14.31687 -14.31245 -14.30837 -10.27428
 Alpha  occ. eigenvalues --  -10.24465 -10.24044 -10.23432 -10.22428 -10.22404
 Alpha  occ. eigenvalues --  -10.22287 -10.22149 -10.21698 -10.21558 -10.21553
 Alpha  occ. eigenvalues --  -10.20734 -10.20461 -10.20432 -10.20081 -10.19174
 Alpha  occ. eigenvalues --  -10.18752 -10.18031 -10.17977 -10.17929 -10.17896
 Alpha  occ. eigenvalues --  -10.17722  -1.02805  -1.00967  -0.98528  -0.95992
 Alpha  occ. eigenvalues --   -0.93957  -0.91373  -0.89974  -0.88313  -0.86695
 Alpha  occ. eigenvalues --   -0.80245  -0.79096  -0.77404  -0.76376  -0.75094
 Alpha  occ. eigenvalues --   -0.74823  -0.74347  -0.71268  -0.68545  -0.66776
 Alpha  occ. eigenvalues --   -0.65944  -0.64936  -0.62801  -0.62438  -0.62102
 Alpha  occ. eigenvalues --   -0.61241  -0.59589  -0.56602  -0.56096  -0.54755
 Alpha  occ. eigenvalues --   -0.53985  -0.53160  -0.52714  -0.51523  -0.50918
 Alpha  occ. eigenvalues --   -0.49260  -0.48841  -0.47196  -0.46750  -0.46179
 Alpha  occ. eigenvalues --   -0.45560  -0.45163  -0.45014  -0.43948  -0.43642
 Alpha  occ. eigenvalues --   -0.43465  -0.43285  -0.42751  -0.42532  -0.42084
 Alpha  occ. eigenvalues --   -0.42055  -0.41554  -0.40980  -0.40388  -0.39900
 Alpha  occ. eigenvalues --   -0.39348  -0.39001  -0.38818  -0.38417  -0.38326
 Alpha  occ. eigenvalues --   -0.37576  -0.37060  -0.35995  -0.35455  -0.34700
 Alpha  occ. eigenvalues --   -0.34669  -0.33488  -0.32684  -0.31910  -0.31799
 Alpha  occ. eigenvalues --   -0.31173  -0.30142  -0.29775  -0.27575  -0.27014
 Alpha  occ. eigenvalues --   -0.25836  -0.24943  -0.23556  -0.23442  -0.21880
 Alpha  occ. eigenvalues --   -0.21058  -0.20332  -0.17166
 Alpha virt. eigenvalues --   -0.02193  -0.00843   0.00964   0.03612   0.06202
 Alpha virt. eigenvalues --    0.07103   0.08383   0.09580   0.10099   0.10897
 Alpha virt. eigenvalues --    0.11316   0.11919   0.12529   0.12890   0.12979

 Mulliken charges:
               1
     1  C   -0.301898
     2  N   -0.379445
     3  C   -0.147949
     4  C   -0.133146
     5  N   -0.514917
     6  C    0.346630
     7  C   -0.159807
     8  C   -0.187590
     9  C    0.500665
    10  N   -0.739074
    11  C    0.669830
    12  N   -0.455130
    13  C   -0.005502
    14  C    0.086828
    15  C   -0.305114
    16  C    0.309568
    17  C   -0.091112
    18  O   -0.604745
    19  N   -0.437576
    20  N   -0.316688
    21  C   -0.113619
    22  C   -0.268894
    23  C   -0.267444
    24  C   -0.265257
    25  C   -0.119245
    26  C    0.545691
    27  N   -0.592079
    28  N   -0.447154
    29  C   -0.026387
    30  C   -0.142823
    31  C   -0.131704
    32  H    0.119960
    33  H    0.152034
    34  H    0.152273
    35  H    0.154013
    36  H    0.142346
    37  H    0.138198
    38  H    0.150055
    39  H    0.133896
    40  H    0.127026
    41  H    0.332659
    42  H    0.139867
    43  H    0.131744
    44  H    0.164549
    45  H    0.133338
    46  H    0.384894
    47  H    0.142181
    48  H    0.156552
    49  H    0.135101
    50  H    0.150836
    51  H    0.135334
    52  H    0.131233
    53  H    0.141007
    54  H    0.134320
    55  H    0.151085
    56  H    0.145441
    57  H    0.135086
    58  H    0.159568
    59  H    0.150527
    60  H    0.146915
    61  H    0.123049
 Sum of Mulliken charges =  -0.00000

 Dipole moment (field-independent basis, Debye):
    X=              2.5413    Y=              2.0630    Z=             -0.6091  Tot=              3.3294
 Quadrupole moment (field-independent basis, Debye-Ang):
   XX=           -159.7759   YY=           -164.3737   ZZ=           -183.9333
   XY=              5.5825   XZ=             -0.0960   YZ=              1.6570

 Normal termination of Gaussian 16 at Sat Nov  5 11:28:38 2022.
