 Gaussian 16, Revision B.01,
 Gaussian 16:  ES64L-G16RevB.01 20-Dec-2017

 -----------------------------
 #p b3lyp/6-31g(d) opt SCF=XQC
 -----------------------------

 ------------------------------
 Gaussian input prepared by ASE
 ------------------------------
 Symbolic Z-matrix:
 Charge =  0 Multiplicity = 1

 SCF Done:  E(RB3LYP) =  -1499.07474623     A.U. after   15 cycles
 SCF Done:  E(RB3LYP) =  -1499.08061268     A.U. after   13 cycles
 SCF Done:  E(RB3LYP) =  -1499.08218343     A.U. after   12 cycles
 SCF Done:  E(RB3LYP) =  -1499.08241262     A.U. after   11 cycles
 SCF Done:  E(RB3LYP) =  -1499.08244406     A.U. after   10 cycles
 SCF Done:  E(RB3LYP) =  -1499.08246081     A.U. after    9 cycles
 SCF Done:  E(RB3LYP) =  -1499.08246602     A.U. after    9 cycles
 SCF Done:  E(RB3LYP) =  -1499.08246891     A.U. after    9 cycles
 SCF Done:  E(RB3LYP) =  -1499.08247135     A.U. after    9 cycles
 SCF Done:  E(RB3LYP) =  -1499.08247314     A.U. after    8 cycles
 SCF Done:  E(RB3LYP) =  -1499.08275605     A.U. after   10 cycles
 SCF Done:  E(RB3LYP) =  -1499.08275669     A.U. after    9 cycles
 SCF Done:  E(RB3LYP) =  -1499.08275749     A.U. after    9 cycles
 SCF Done:  E(RB3LYP) =  -1499.08275731     A.U. after    9 cycles
 SCF Done:  E(RB3LYP) =  -1499.08275559     A.U. after   10 cycles
 SCF Done:  E(RB3LYP) =  -1499.08276135     A.U. after   10 cycles
 SCF Done:  E(RB3LYP) =  -1499.08276197     A.U. after    8 cycles
 SCF Done:  E(RB3LYP) =  -1499.08276252     A.U. after    9 cycles
 SCF Done:  E(RB3LYP) =  -1499.08276255     A.U. after    7 cycles
 SCF Done:  E(RB3LYP) =  -1499.08276259     A.U. after    6 cycles
 Optimization completed.
    -- Stationary point found.

                         Standard orientation:
 ---------------------------------------------------------------------
 Center     Atomic      Atomic             Coordinates (Angstroms)
 Number     Number       Type             X           Y           Z
 ---------------------------------------------------------------------
      1          6           0        4.038600    4.056660    0.009446
      2          7           0        2.877763    3.238217    0.331952
      3          6           0        1.940781    3.748571    1.328987
      4          6           0        2.831509    1.912440   -0.006277
      5          7           0        1.849137    1.152335    0.440333
      6          6           0        1.898579   -0.135707    0.004957
      7          6           0        2.854190   -0.708675   -0.848696
      8          6           0        2.463301   -2.064154   -0.995677
      9          6           0        3.079410   -3.161204   -1.820289
     10          8           0        2.542472   -4.432215   -1.511486
     11          7           0        1.364597   -2.304505   -0.301461
     12          7           0        1.015533   -1.122192    0.314237
     13          6           0       -0.156095   -1.136273    1.202354
     14          6           0       -1.412471   -0.581970    0.538715
     15          6           0       -1.441630    0.597325   -0.215148
     16          6           0       -2.626536    1.066848   -0.780661
     17          6           0       -3.821014    0.363639   -0.601047
     18          6           0       -5.120220    0.896314   -1.169606
     19          6           0       -5.882501    1.840526   -0.257608
     20          9           0       -5.946227   -0.162213   -1.482649
     21          9           0       -4.859258    1.554671   -2.352564
     22          6           0       -3.820000   -0.815591    0.146301
     23          6           0       -2.625263   -1.255326    0.697024
     24          9           0       -2.646168   -2.401907    1.422552
     25          6           0        0.128274   -0.481337    2.546067
     26          6           0        0.880355   -1.257245    3.598438
     27          6           0       -0.596929   -0.997567    3.765516
     28          6           0        3.934766    0.097496   -1.330009
     29          8           0        4.869466   -0.195515   -2.061258
     30          7           0        3.829596    1.433138   -0.827933
     31          1           0        4.215115    4.093904   -1.072621
     32          1           0        3.842323    5.078430    0.337487
     33          1           0        4.954999    3.710410    0.509700
     34          1           0        1.757743    4.808493    1.131875
     35          1           0        2.329256    3.638242    2.351310
     36          1           0        1.002960    3.201267    1.254437
     37          1           0        2.942662   -2.917998   -2.888200
     38          1           0        4.161800   -3.189565   -1.648195
     39          1           0        1.652758   -4.276807   -1.151523
     40          1           0       -0.321508   -2.201381    1.373840
     41          1           0       -0.520056    1.151193   -0.361101
     42          1           0       -2.621490    1.974051   -1.375503
     43          1           0       -5.269314    2.715181   -0.024566
     44          1           0       -6.797913    2.164336   -0.761583
     45          1           0       -6.143545    1.333751    0.675300
     46          1           0       -4.722274   -1.398871    0.289899
     47          1           0        0.312086    0.587082    2.495336
     48          1           0        1.196902   -2.268225    3.354731
     49          1           0        1.578454   -0.714733    4.229813
     50          1           0       -1.282266   -1.829869    3.631936
     51          1           0       -0.916863   -0.274421    4.510547
     52          1           0        4.578529    2.034837   -1.143628
 ---------------------------------------------------------------------

 The electronic state is 1-A.
 Alpha  occ. eigenvalues --  -24.71505 -24.69744 -24.69736 -19.12256 -19.12017
 Alpha  occ. eigenvalues --  -14.40964 -14.39645 -14.39585 -14.35236 -14.33616
 Alpha  occ. eigenvalues --  -10.35311 -10.32662 -10.30157 -10.28035 -10.26565
 Alpha  occ. eigenvalues --  -10.25559 -10.24786 -10.23891 -10.22459 -10.21885
 Alpha  occ. eigenvalues --  -10.21394 -10.21320 -10.20585 -10.20397 -10.20230
 Alpha  occ. eigenvalues --  -10.20075 -10.19714 -10.19208 -10.19126 -10.18634
 Alpha  occ. eigenvalues --   -1.23804  -1.22421  -1.18135  -1.05739  -1.04312
 Alpha  occ. eigenvalues --   -1.01752  -0.99953  -0.94584  -0.91110  -0.88701
 Alpha  occ. eigenvalues --   -0.86833  -0.84022  -0.80070  -0.79468  -0.76291
 Alpha  occ. eigenvalues --   -0.75754  -0.75499  -0.72495  -0.72136  -0.69235
 Alpha  occ. eigenvalues --   -0.66349  -0.64184  -0.62997  -0.62710  -0.60741
 Alpha  occ. eigenvalues --   -0.60185  -0.59056  -0.58259  -0.56312  -0.55840
 Alpha  occ. eigenvalues --   -0.54774  -0.54034  -0.53634  -0.51015  -0.50665
 Alpha  occ. eigenvalues --   -0.50168  -0.49830  -0.49771  -0.48725  -0.48319
 Alpha  occ. eigenvalues --   -0.47904  -0.47324  -0.46239  -0.46060  -0.45911
 Alpha  occ. eigenvalues --   -0.44526  -0.44170  -0.43807  -0.43627  -0.43448
 Alpha  occ. eigenvalues --   -0.43162  -0.42270  -0.41973  -0.41633  -0.41248
 Alpha  occ. eigenvalues --   -0.40813  -0.40468  -0.39471  -0.39277  -0.38195
 Alpha  occ. eigenvalues --   -0.38151  -0.37597  -0.37534  -0.36899  -0.36378
 Alpha  occ. eigenvalues --   -0.35584  -0.33090  -0.32854  -0.30679  -0.30612
 Alpha  occ. eigenvalues --   -0.30220  -0.29443  -0.28766  -0.27589  -0.26436
 Alpha  occ. eigenvalues --   -0.26383  -0.25874  -0.25109  -0.24002  -0.21537
 Alpha virt. eigenvalues --   -0.02649  -0.01300  -0.00796  -0.00526   0.04577
 Alpha virt. eigenvalues --    0.05292   0.08649   0.08740   0.09186   0.09724
 Alpha virt. eigenvalues --    0.10561   0.11342   0.11551   0.11683   0.12071

 Mulliken charges:
               1
     1  C   -0.343394
     2  N   -0.469081
     3  C   -0.315399
     4  C    0.809662
     5  N   -0.638278
     6  C    0.606003
     7  C   -0.104039
     8  C    0.271423
     9  C   -0.056973
    10  O   -0.629052
    11  N   -0.388366
    12  N   -0.397332
    13  C   -0.092572
    14  C    0.110140
    15  C   -0.193715
    16  C   -0.171446
    17  C    0.041585
    18  C    0.593247
    19  C   -0.489359
    20  F   -0.302792
    21  F   -0.303938
    22  C   -0.240413
    23  C    0.333163
    24  F   -0.296899
    25  C   -0.093070
    26  C   -0.313874
    27  C   -0.319131
    28  C    0.559146
    29  O   -0.519124
    30  N   -0.737981
    31  H    0.175832
    32  H    0.180687
    33  H    0.174592
    34  H    0.158950
    35  H    0.163139
    36  H    0.206690
    37  H    0.147471
    38  H    0.167131
    39  H    0.410994
    40  H    0.182302
    41  H    0.165705
    42  H    0.146058
    43  H    0.163669
    44  H    0.175680
    45  H    0.166132
    46  H    0.161413
    47  H    0.165331
    48  H    0.165076
    49  H    0.152845
    50  H    0.164562
    51  H    0.151582
    52  H    0.346020
 Sum of Mulliken charges =  -0.00000

 Dipole moment (field-independent basis, Debye):
    X=             -0.3079    Y=              9.1301    Z=              4.4883  Tot=             10.1783
 Quadrupole moment (field-independent basis, Debye-Ang):
   XX=           -175.6722   YY=           -163.4162   ZZ=           -177.3408
   XY=             24.5153   XZ=              3.3294   YZ=             -2.5925

 Normal termination of Gaussian 16 at Fri Nov  4 20:29:47 2022.
