 Gaussian 16, Revision B.01,
 Gaussian 16:  ES64L-G16RevB.01 20-Dec-2017

 -------------------------------------------------------------------
 #p b3lyp/6-31g(d) 6D 10F nosymm GFInput td=(50-50,nstate=2) SCF=XQC
 -------------------------------------------------------------------

 ------------------------------
 Gaussian input prepared by ASE
 ------------------------------
 Symbolic Z-matrix:
 Charge =  0 Multiplicity = 1

                          Input orientation:
 ---------------------------------------------------------------------
 Center     Atomic      Atomic             Coordinates (Angstroms)
 Number     Number       Type             X           Y           Z
 ---------------------------------------------------------------------
      1          6           0       -4.623586    1.633139   -2.292320
      2          7           0       -3.267004    1.201169   -1.984929
      3          6           0       -2.292226    1.193304   -3.072230
      4          6           0       -2.988740    0.507604   -0.837864
      5          7           0       -1.791045   -0.017787   -0.659634
      6          6           0       -1.631814   -0.650766    0.534114
      7          6           0       -2.581784   -0.785276    1.558649
      8          6           0       -1.930314   -1.519922    2.582175
      9          6           0       -2.431793   -1.937475    3.937631
     10          8           0       -1.570099   -2.864727    4.567567
     11          7           0       -0.690741   -1.807531    2.224970
     12          7           0       -0.504588   -1.275244    0.967666
     13          6           0        0.791490   -1.508480    0.313872
     14          6           0        1.732454   -0.312399    0.414491
     15          6           0        1.343399    1.009776    0.168750
     16          6           0        2.254866    2.061433    0.255373
     17          6           0        3.589105    1.812827    0.589357
     18          6           0        4.594625    2.945011    0.634367
     19          6           0        5.287478    3.243032   -0.683012
     20          9           0        5.560751    2.656631    1.574688
     21          9           0        3.962348    4.093981    1.059829
     22          6           0        4.003696    0.503395    0.839587
     23          6           0        3.073164   -0.520804    0.743728
     24          9           0        3.496929   -1.786661    0.987663
     25          6           0        0.637326   -2.007713   -1.115243
     26          6           0        0.304444   -3.459067   -1.355881
     27          6           0        1.687242   -2.941265   -1.668077
     28          6           0       -3.890448   -0.234731    1.375578
     29          8           0       -4.859842   -0.246617    2.120145
     30          7           0       -3.994155    0.405038    0.100030
     31          1           0       -5.014349    2.307865   -1.520658
     32          1           0       -4.603560    2.193775   -3.227967
     33          1           0       -5.319905    0.790802   -2.416979
     34          1           0       -2.397339    2.117235   -3.647637
     35          1           0       -2.435452    0.336185   -3.745330
     36          1           0       -1.288397    1.141292   -2.654823
     37          1           0       -2.567799   -1.033657    4.556419
     38          1           0       -3.423476   -2.394693    3.840138
     39          1           0       -0.685783   -2.721768    4.189598
     40          1           0        1.224991   -2.314542    0.908487
     41          1           0        0.309966    1.214281   -0.091183
     42          1           0        1.926424    3.079952    0.077539
     43          1           0        4.550227    3.518806   -1.441785
     44          1           0        5.987215    4.071796   -0.540394
     45          1           0        5.835965    2.362237   -1.027461
     46          1           0        5.024937    0.274046    1.121367
     47          1           0        0.209408   -1.283195   -1.800690
     48          1           0        0.183957   -4.103056   -0.488450
     49          1           0       -0.359586   -3.699406   -2.181469
     50          1           0        2.503347   -3.230225   -1.011776
     51          1           0        1.975456   -2.822636   -2.708861
     52          1           0       -4.907387    0.805036   -0.069130
 ---------------------------------------------------------------------

 SCF Done:  E(RB3LYP) =  -1499.08275105     A.U. after   15 cycles

 Excitation energies and oscillator strengths:

 Excited state symmetry could not be determined.
 Excited State   1:      Triplet-?Sym    3.6988 eV  335.20 nm  f=0.0000  <S**2>=2.000
     105 ->111         0.34305
     105 ->113         0.11994
     106 ->111         0.12206
     107 ->111        -0.19856
     107 ->113        -0.14880
     108 ->111         0.29684
     108 ->112         0.11053
     108 ->113        -0.35343
     108 ->114        -0.10035
     109 ->111         0.14394
 This state for optimization and/or second-order correction.
 Total Energy, E(TD-HF/TD-DFT) =  -1498.94682302
 Copying the excited state density for this state as the 1-particle RhoCI density.

 Excited state symmetry could not be determined.
 Excited State   2:      Triplet-?Sym    3.7253 eV  332.81 nm  f=0.0000  <S**2>=2.000
     110 ->111         0.13940
     110 ->112         0.63209
     110 ->113         0.21996

 Excited state symmetry could not be determined.
 Excited State   3:      Singlet-?Sym    4.5642 eV  271.64 nm  f=0.0113  <S**2>=0.000
     110 ->111         0.70263

 Excited state symmetry could not be determined.
 Excited State   4:      Singlet-?Sym    4.9850 eV  248.71 nm  f=0.1855  <S**2>=0.000
     109 ->114        -0.10371
     110 ->112         0.56447
     110 ->113        -0.18302
     110 ->114         0.33780

 Alpha  occ. eigenvalues --  -24.71505 -24.69744 -24.69736 -19.12256 -19.12017
 Alpha  occ. eigenvalues --  -14.40964 -14.39645 -14.39585 -14.35236 -14.33616
 Alpha  occ. eigenvalues --  -10.35310 -10.32662 -10.30157 -10.28035 -10.26565
 Alpha  occ. eigenvalues --  -10.25559 -10.24786 -10.23891 -10.22459 -10.21885
 Alpha  occ. eigenvalues --  -10.21394 -10.21320 -10.20585 -10.20397 -10.20230
 Alpha  occ. eigenvalues --  -10.20075 -10.19713 -10.19208 -10.19125 -10.18634
 Alpha  occ. eigenvalues --   -1.23804  -1.22421  -1.18135  -1.05739  -1.04312
 Alpha  occ. eigenvalues --   -1.01752  -0.99953  -0.94584  -0.91110  -0.88701
 Alpha  occ. eigenvalues --   -0.86833  -0.84022  -0.80070  -0.79468  -0.76291
 Alpha  occ. eigenvalues --   -0.75754  -0.75499  -0.72495  -0.72136  -0.69235
 Alpha  occ. eigenvalues --   -0.66349  -0.64184  -0.62997  -0.62710  -0.60741
 Alpha  occ. eigenvalues --   -0.60185  -0.59056  -0.58259  -0.56312  -0.55839
 Alpha  occ. eigenvalues --   -0.54774  -0.54034  -0.53634  -0.51015  -0.50665
 Alpha  occ. eigenvalues --   -0.50168  -0.49830  -0.49771  -0.48725  -0.48319
 Alpha  occ. eigenvalues --   -0.47904  -0.47324  -0.46239  -0.46060  -0.45911
 Alpha  occ. eigenvalues --   -0.44526  -0.44171  -0.43807  -0.43627  -0.43448
 Alpha  occ. eigenvalues --   -0.43162  -0.42270  -0.41973  -0.41633  -0.41248
 Alpha  occ. eigenvalues --   -0.40813  -0.40468  -0.39471  -0.39277  -0.38195
 Alpha  occ. eigenvalues --   -0.38151  -0.37597  -0.37534  -0.36899  -0.36378
 Alpha  occ. eigenvalues --   -0.35584  -0.33090  -0.32854  -0.30678  -0.30612
 Alpha  occ. eigenvalues --   -0.30220  -0.29443  -0.28766  -0.27589  -0.26436
 Alpha  occ. eigenvalues --   -0.26383  -0.25874  -0.25109  -0.24002  -0.21537
 Alpha virt. eigenvalues --   -0.02649  -0.01300  -0.00796  -0.00526   0.04577
 Alpha virt. eigenvalues --    0.05292   0.08649   0.08740   0.09186   0.09724
 Alpha virt. eigenvalues --    0.10561   0.11342   0.11551   0.11683   0.12071

 Mulliken charges:
               1
     1  C   -0.343396
     2  N   -0.469080
     3  C   -0.315395
     4  C    0.809651
     5  N   -0.638282
     6  C    0.605985
     7  C   -0.103981
     8  C    0.271419
     9  C   -0.056972
    10  O   -0.629052
    11  N   -0.388362
    12  N   -0.397360
    13  C   -0.092540
    14  C    0.110138
    15  C   -0.193708
    16  C   -0.171447
    17  C    0.041598
    18  C    0.593239
    19  C   -0.489353
    20  F   -0.302790
    21  F   -0.303937
    22  C   -0.240426
    23  C    0.333177
    24  F   -0.296908
    25  C   -0.093070
    26  C   -0.313872
    27  C   -0.319137
    28  C    0.559108
    29  O   -0.519121
    30  N   -0.737963
    31  H    0.175833
    32  H    0.180688
    33  H    0.174591
    34  H    0.158949
    35  H    0.163139
    36  H    0.206689
    37  H    0.147471
    38  H    0.167130
    39  H    0.410994
    40  H    0.182300
    41  H    0.165701
    42  H    0.146055
    43  H    0.163667
    44  H    0.175678
    45  H    0.166130
    46  H    0.161413
    47  H    0.165331
    48  H    0.165071
    49  H    0.152841
    50  H    0.164561
    51  H    0.151582
    52  H    0.346020
 Sum of Mulliken charges =  -0.00000

 Dipole moment (field-independent basis, Debye):
    X=             -0.8921    Y=              3.5644    Z=             -9.4920  Tot=             10.1783
 Quadrupole moment (field-independent basis, Debye-Ang):
   XX=           -165.7737   YY=           -176.9165   ZZ=           -182.0045
   XY=            -14.7721   XZ=             18.4073   YZ=              0.8115

 Normal termination of Gaussian 16 at Sat Nov  5 11:44:11 2022.
