 Gaussian 16, Revision B.01,
 Gaussian 16:  ES64L-G16RevB.01 20-Dec-2017

 -------------------------------------------------------------------
 #p b3lyp/6-31g(d) 6D 10F nosymm GFInput td=(50-50,nstate=2) SCF=XQC
 -------------------------------------------------------------------

 ------------------------------
 Gaussian input prepared by ASE
 ------------------------------
 Symbolic Z-matrix:
 Charge =  0 Multiplicity = 1

                          Input orientation:
 ---------------------------------------------------------------------
 Center     Atomic      Atomic             Coordinates (Angstroms)
 Number     Number       Type             X           Y           Z
 ---------------------------------------------------------------------
      1          6           0       10.536234    1.679005   -0.358661
      2          6           0        9.695220    0.488943   -0.682699
      3          7           0       10.213217   -0.615804   -1.163919
      4          8           0        9.089102   -1.454329   -1.318342
      5          6           0        8.017468   -0.746620   -0.907127
      6          6           0        6.699272   -1.363425   -0.952116
      7          6           0        6.537385   -2.689118   -1.420323
      8          6           0        5.287314   -3.291574   -1.469022
      9          6           0        4.174830   -2.555196   -1.041266
     10          7           0        2.841048   -2.913861   -0.987714
     11          6           0        2.242657   -1.840935   -0.507178
     12          7           0        0.881112   -1.794632   -0.299044
     13          6           0        0.110341   -0.752775    0.195244
     14          6           0       -1.282535   -0.934957    0.320065
     15          6           0       -2.058386    0.102218    0.817924
     16          6           0       -3.551403   -0.084130    1.032874
     17          7           0       -4.313122    1.105375    0.641875
     18          6           0       -4.289070    1.316806   -0.807924
     19          6           0       -5.081622    0.236002   -1.577752
     20          7           0       -6.246658   -0.141880   -0.779284
     21          6           0       -6.671864   -1.437890   -0.752454
     22          8           0       -6.183262   -2.351396   -1.397950
     23          6           0       -6.762536    0.878735    0.114237
     24          6           0       -5.694433    1.300989    1.189388
     25          6           0       -5.939261    0.498561    2.476387
     26          6           0       -5.871700    2.797434    1.508568
     27          6           0       -1.415316    1.303268    1.166113
     28          6           0       -0.041915    1.387245    1.002845
     29          7           0        0.725267    0.390101    0.530228
     30          7           0        3.080312   -0.794465   -0.236852
     31          6           0        4.356514   -1.223920   -0.573971
     32          6           0        5.595995   -0.608494   -0.518935
     33          7           0        8.332248    0.459763   -0.503990
     34          1           0       10.436968    1.937230    0.701076
     35          1           0       10.208111    2.546265   -0.941555
     36          1           0       11.585923    1.474533   -0.580697
     37          1           0        7.414282   -3.238336   -1.745838
     38          1           0        5.165399   -4.308294   -1.828363
     39          1           0        0.414441   -2.655378   -0.551457
     40          1           0       -1.738435   -1.878533    0.029636
     41          1           0       -3.697713   -0.254763    2.101936
     42          1           0       -3.871465   -1.010099    0.525427
     43          1           0       -3.252130    1.336660   -1.156040
     44          1           0       -4.703037    2.308868   -1.017684
     45          1           0       -4.495623   -0.670360   -1.747037
     46          1           0       -5.389866    0.612375   -2.563911
     47          1           0       -7.530634   -1.580786   -0.066349
     48          1           0       -7.665474    0.495923    0.600367
     49          1           0       -7.066666    1.752198   -0.478366
     50          1           0       -5.200191    0.735210    3.249110
     51          1           0       -6.923593    0.762891    2.877427
     52          1           0       -5.931014   -0.583060    2.304126
     53          1           0       -5.645176    3.423078    0.638657
     54          1           0       -5.200283    3.094437    2.320159
     55          1           0       -6.902933    3.013188    1.815050
     56          1           0       -1.990518    2.142708    1.539412
     57          1           0        0.489708    2.300429    1.262414
     58          1           0        2.739274    0.085754    0.136327
     59          1           0        5.738192    0.406130   -0.163055
 ---------------------------------------------------------------------

 SCF Done:  E(RB3LYP) =  -1480.57193476     A.U. after   15 cycles

 Excitation energies and oscillator strengths:

 Excited state symmetry could not be determined.
 Excited State   1:      Triplet-?Sym    2.8982 eV  427.79 nm  f=0.0000  <S**2>=2.000
     115 ->121        -0.11836
     116 ->122        -0.11569
     118 ->119         0.57956
     118 ->120         0.30197
 This state for optimization and/or second-order correction.
 Total Energy, E(TD-HF/TD-DFT) =  -1480.46542724
 Copying the excited state density for this state as the 1-particle RhoCI density.

 Excited state symmetry could not be determined.
 Excited State   2:      Triplet-?Sym    3.4227 eV  362.24 nm  f=0.0000  <S**2>=2.000
     115 ->119        -0.21206
     115 ->120         0.14514
     116 ->119        -0.14059
     118 ->119        -0.33216
     118 ->120         0.51504
     118 ->121         0.10826

 Excited state symmetry could not be determined.
 Excited State   3:      Singlet-?Sym    3.7897 eV  327.16 nm  f=0.5111  <S**2>=0.000
     118 ->119         0.66748
     118 ->120        -0.21103

 Excited state symmetry could not be determined.
 Excited State   4:      Singlet-?Sym    4.0210 eV  308.34 nm  f=0.5902  <S**2>=0.000
     118 ->119         0.20905
     118 ->120         0.66057

 Alpha  occ. eigenvalues --  -19.22568 -19.12238 -14.39530 -14.38264 -14.37785
 Alpha  occ. eigenvalues --  -14.36812 -14.35010 -14.34855 -14.32107 -14.31288
 Alpha  occ. eigenvalues --  -10.29763 -10.29013 -10.28918 -10.27946 -10.25126
 Alpha  occ. eigenvalues --  -10.24397 -10.24208 -10.24197 -10.23628 -10.23110
 Alpha  occ. eigenvalues --  -10.23059 -10.23020 -10.22462 -10.21503 -10.21271
 Alpha  occ. eigenvalues --  -10.20293 -10.20184 -10.20169 -10.19614 -10.19327
 Alpha  occ. eigenvalues --  -10.18869 -10.18786 -10.18489  -1.14167  -1.03916
 Alpha  occ. eigenvalues --   -1.03738  -0.98691  -0.97032  -0.93387  -0.92468
 Alpha  occ. eigenvalues --   -0.92070  -0.88100  -0.86938  -0.83761  -0.83471
 Alpha  occ. eigenvalues --   -0.81436  -0.77938  -0.76031  -0.74609  -0.74080
 Alpha  occ. eigenvalues --   -0.72710  -0.72506  -0.70744  -0.69945  -0.66740
 Alpha  occ. eigenvalues --   -0.66129  -0.65021  -0.62872  -0.62235  -0.60836
 Alpha  occ. eigenvalues --   -0.59048  -0.58644  -0.57771  -0.55976  -0.54619
 Alpha  occ. eigenvalues --   -0.54261  -0.53262  -0.52673  -0.51537  -0.50910
 Alpha  occ. eigenvalues --   -0.50109  -0.49089  -0.48736  -0.47840  -0.47662
 Alpha  occ. eigenvalues --   -0.47002  -0.46731  -0.45870  -0.45418  -0.44708
 Alpha  occ. eigenvalues --   -0.44048  -0.43769  -0.43396  -0.43088  -0.42966
 Alpha  occ. eigenvalues --   -0.42504  -0.42119  -0.41573  -0.41247  -0.40477
 Alpha  occ. eigenvalues --   -0.40113  -0.39920  -0.39586  -0.38974  -0.38630
 Alpha  occ. eigenvalues --   -0.38408  -0.37566  -0.37383  -0.37027  -0.36823
 Alpha  occ. eigenvalues --   -0.35871  -0.35711  -0.35153  -0.33569  -0.32098
 Alpha  occ. eigenvalues --   -0.31052  -0.30276  -0.29520  -0.28986  -0.28105
 Alpha  occ. eigenvalues --   -0.27966  -0.27653  -0.26110  -0.25754  -0.24972
 Alpha  occ. eigenvalues --   -0.22788  -0.22751  -0.20062
 Alpha virt. eigenvalues --   -0.04568  -0.03675  -0.01806   0.00803   0.01857
 Alpha virt. eigenvalues --    0.03896   0.05409   0.06701   0.06995   0.08660
 Alpha virt. eigenvalues --    0.08951   0.09113   0.09709   0.10000   0.10280

 Mulliken charges:
               1
     1  C   -0.520884
     2  C    0.426865
     3  N   -0.195940
     4  O   -0.399756
     5  C    0.531915
     6  C    0.052641
     7  C   -0.185569
     8  C   -0.196497
     9  C    0.265804
    10  N   -0.591489
    11  C    0.752339
    12  N   -0.771356
    13  C    0.602811
    14  C   -0.276019
    15  C    0.175359
    16  C   -0.212813
    17  N   -0.415151
    18  C   -0.186558
    19  C   -0.142067
    20  N   -0.364041
    21  C    0.345845
    22  O   -0.473098
    23  C   -0.184983
    24  C    0.247185
    25  C   -0.491991
    26  C   -0.442296
    27  C   -0.195041
    28  C    0.053270
    29  N   -0.554753
    30  N   -0.748757
    31  C    0.366330
    32  C   -0.214950
    33  N   -0.524992
    34  H    0.176841
    35  H    0.176812
    36  H    0.179144
    37  H    0.155013
    38  H    0.141723
    39  H    0.356695
    40  H    0.144413
    41  H    0.173889
    42  H    0.152430
    43  H    0.167799
    44  H    0.151344
    45  H    0.182834
    46  H    0.155445
    47  H    0.101771
    48  H    0.159863
    49  H    0.153397
    50  H    0.161489
    51  H    0.154298
    52  H    0.160051
    53  H    0.147990
    54  H    0.153771
    55  H    0.140506
    56  H    0.148103
    57  H    0.147516
    58  H    0.361885
    59  H    0.163612
 Sum of Mulliken charges =  -0.00000

 Dipole moment (field-independent basis, Debye):
    X=             -8.7536    Y=              5.6334    Z=              3.5745  Tot=             11.0063
 Quadrupole moment (field-independent basis, Debye-Ang):
   XX=           -222.6188   YY=           -196.3109   ZZ=           -193.5522
   XY=              0.2863   XZ=             -2.4527   YZ=             -6.3944

 Normal termination of Gaussian 16 at Sat Nov  5 11:37:38 2022.
