 Gaussian 16, Revision B.01,
 Gaussian 16:  ES64L-G16RevB.01 20-Dec-2017

 -----------------------------
 #p b3lyp/6-31g(d) opt SCF=XQC
 -----------------------------

 ------------------------------
 Gaussian input prepared by ASE
 ------------------------------
 Symbolic Z-matrix:
 Charge =  0 Multiplicity = 1

 SCF Done:  E(RB3LYP) =  -1480.56229059     A.U. after   15 cycles
 SCF Done:  E(RB3LYP) =  -1480.56890770     A.U. after   12 cycles
 SCF Done:  E(RB3LYP) =  -1480.57097480     A.U. after   12 cycles
 SCF Done:  E(RB3LYP) =  -1480.57160156     A.U. after   11 cycles
 SCF Done:  E(RB3LYP) =  -1480.57176368     A.U. after   12 cycles
 SCF Done:  E(RB3LYP) =  -1480.57178600     A.U. after   11 cycles
 SCF Done:  E(RB3LYP) =  -1480.57186986     A.U. after   10 cycles
 SCF Done:  E(RB3LYP) =  -1480.57190606     A.U. after   10 cycles
 SCF Done:  E(RB3LYP) =  -1480.57191919     A.U. after   10 cycles
 SCF Done:  E(RB3LYP) =  -1480.57192398     A.U. after    9 cycles
 SCF Done:  E(RB3LYP) =  -1480.57192898     A.U. after    9 cycles
 SCF Done:  E(RB3LYP) =  -1480.57193255     A.U. after    9 cycles
 SCF Done:  E(RB3LYP) =  -1480.57193489     A.U. after    9 cycles
 SCF Done:  E(RB3LYP) =  -1480.57193684     A.U. after    9 cycles
 SCF Done:  E(RB3LYP) =  -1480.57193731     A.U. after    8 cycles
 Optimization completed.
    -- Stationary point found.

                         Standard orientation:
 ---------------------------------------------------------------------
 Center     Atomic      Atomic             Coordinates (Angstroms)
 Number     Number       Type             X           Y           Z
 ---------------------------------------------------------------------
      1          6           0        9.519620   -2.856385    0.582635
      2          6           0        8.812931   -1.552651    0.411111
      3          7           0        9.461776   -0.413962    0.358686
      4          8           0        8.429786    0.533930    0.194066
      5          6           0        7.270810   -0.154817    0.166654
      6          6           0        6.018021    0.569371    0.004839
      7          6           0        6.009404    1.978804   -0.122879
      8          6           0        4.823356    2.683895   -0.278254
      9          6           0        3.619984    1.967006   -0.306782
     10          7           0        2.321469    2.419003   -0.448350
     11          6           0        1.595553    1.318393   -0.405216
     12          7           0        0.222017    1.343752   -0.514871
     13          6           0       -0.673600    0.284924   -0.489777
     14          6           0       -2.051798    0.554674   -0.618924
     15          6           0       -2.952374   -0.500835   -0.598817
     16          6           0       -4.437459   -0.253420   -0.806990
     17          7           0       -5.259583   -1.079360    0.081803
     18          6           0       -5.127517   -0.671591    1.483045
     19          6           0       -5.756549    0.712946    1.759244
     20          7           0       -6.950659    0.854275    0.927509
     21          6           0       -7.266168    2.061251    0.375398
     22          8           0       -6.648301    3.098723    0.553669
     23          6           0       -7.626151   -0.379713    0.570931
     24          6           0       -6.694773   -1.327361   -0.271441
     25          6           0       -6.982189   -1.109098   -1.764743
     26          6           0       -7.024225   -2.790912    0.078023
     27          6           0       -2.445201   -1.802192   -0.435909
     28          6           0       -1.074741   -1.965129   -0.312488
     29          7           0       -0.188327   -0.955257   -0.338205
     30          7           0        2.315639    0.166966   -0.245429
     31          6           0        3.647863    0.550680   -0.176746
     32          6           0        4.821757   -0.167557   -0.021182
     33          7           0        7.446878   -1.446771    0.296349
     34          1           0        9.307310   -3.517928   -0.264043
     35          1           0        9.171663   -3.360655    1.490494
     36          1           0       10.598085   -2.698009    0.651796
     37          1           0        6.954306    2.510856   -0.097790
     38          1           0        4.818996    3.764691   -0.376071
     39          1           0       -0.146970    2.278234   -0.628759
     40          1           0       -2.399829    1.578497   -0.733767
     41          1           0       -4.661238   -0.526312   -1.840852
     42          1           0       -4.633274    0.829211   -0.723767
     43          1           0       -4.069603   -0.662023    1.761526
     44          1           0       -5.603593   -1.433644    2.109291
     45          1           0       -5.083973    1.535454    1.504950
     46          1           0       -6.008484    0.816933    2.824559
     47          1           0       -8.166243    2.002491   -0.268851
     48          1           0       -8.532535   -0.133923    0.008596
     49          1           0       -7.949968   -0.888262    1.489154
     50          1           0       -6.335559   -1.726620   -2.397092
     51          1           0       -8.016360   -1.403141   -1.973653
     52          1           0       -6.868143   -0.061978   -2.065042
     53          1           0       -6.776361   -3.020502    1.119820
     54          1           0       -6.453201   -3.471422   -0.561138
     55          1           0       -8.092656   -2.996585   -0.063673
     56          1           0       -3.119160   -2.650120   -0.395083
     57          1           0       -0.646308   -2.957248   -0.185806
     58          1           0        1.870711   -0.744130   -0.197510
     59          1           0        4.846729   -1.247312    0.078003
 ---------------------------------------------------------------------

 The electronic state is 1-A.
 Alpha  occ. eigenvalues --  -19.22568 -19.12238 -14.39531 -14.38264 -14.37785
 Alpha  occ. eigenvalues --  -14.36812 -14.35010 -14.34855 -14.32107 -14.31288
 Alpha  occ. eigenvalues --  -10.29763 -10.29013 -10.28918 -10.27946 -10.25126
 Alpha  occ. eigenvalues --  -10.24397 -10.24208 -10.24197 -10.23628 -10.23110
 Alpha  occ. eigenvalues --  -10.23059 -10.23020 -10.22462 -10.21503 -10.21271
 Alpha  occ. eigenvalues --  -10.20293 -10.20184 -10.20169 -10.19614 -10.19327
 Alpha  occ. eigenvalues --  -10.18869 -10.18786 -10.18489  -1.14167  -1.03916
 Alpha  occ. eigenvalues --   -1.03738  -0.98691  -0.97032  -0.93387  -0.92468
 Alpha  occ. eigenvalues --   -0.92070  -0.88100  -0.86938  -0.83761  -0.83472
 Alpha  occ. eigenvalues --   -0.81436  -0.77938  -0.76031  -0.74609  -0.74080
 Alpha  occ. eigenvalues --   -0.72710  -0.72506  -0.70744  -0.69945  -0.66740
 Alpha  occ. eigenvalues --   -0.66129  -0.65021  -0.62872  -0.62235  -0.60836
 Alpha  occ. eigenvalues --   -0.59048  -0.58644  -0.57771  -0.55976  -0.54619
 Alpha  occ. eigenvalues --   -0.54261  -0.53262  -0.52673  -0.51537  -0.50910
 Alpha  occ. eigenvalues --   -0.50109  -0.49089  -0.48736  -0.47840  -0.47662
 Alpha  occ. eigenvalues --   -0.47002  -0.46731  -0.45870  -0.45418  -0.44708
 Alpha  occ. eigenvalues --   -0.44048  -0.43769  -0.43396  -0.43088  -0.42966
 Alpha  occ. eigenvalues --   -0.42504  -0.42120  -0.41573  -0.41247  -0.40477
 Alpha  occ. eigenvalues --   -0.40113  -0.39920  -0.39586  -0.38974  -0.38630
 Alpha  occ. eigenvalues --   -0.38408  -0.37566  -0.37383  -0.37027  -0.36823
 Alpha  occ. eigenvalues --   -0.35871  -0.35711  -0.35153  -0.33569  -0.32098
 Alpha  occ. eigenvalues --   -0.31052  -0.30276  -0.29520  -0.28986  -0.28105
 Alpha  occ. eigenvalues --   -0.27966  -0.27653  -0.26110  -0.25754  -0.24972
 Alpha  occ. eigenvalues --   -0.22788  -0.22751  -0.20062
 Alpha virt. eigenvalues --   -0.04568  -0.03675  -0.01806   0.00803   0.01857
 Alpha virt. eigenvalues --    0.03896   0.05409   0.06700   0.06995   0.08660
 Alpha virt. eigenvalues --    0.08951   0.09113   0.09709   0.10000   0.10280

 Mulliken charges:
               1
     1  C   -0.520886
     2  C    0.426866
     3  N   -0.195940
     4  O   -0.399753
     5  C    0.531914
     6  C    0.052620
     7  C   -0.185567
     8  C   -0.196498
     9  C    0.265814
    10  N   -0.591488
    11  C    0.752359
    12  N   -0.771372
    13  C    0.602800
    14  C   -0.275987
    15  C    0.175348
    16  C   -0.212807
    17  N   -0.415150
    18  C   -0.186555
    19  C   -0.142087
    20  N   -0.364019
    21  C    0.345850
    22  O   -0.473102
    23  C   -0.184975
    24  C    0.247143
    25  C   -0.491991
    26  C   -0.442278
    27  C   -0.195021
    28  C    0.053246
    29  N   -0.554745
    30  N   -0.748768
    31  C    0.366308
    32  C   -0.214920
    33  N   -0.524990
    34  H    0.176841
    35  H    0.176813
    36  H    0.179144
    37  H    0.155014
    38  H    0.141723
    39  H    0.356696
    40  H    0.144408
    41  H    0.173889
    42  H    0.152425
    43  H    0.167802
    44  H    0.151345
    45  H    0.182835
    46  H    0.155448
    47  H    0.101769
    48  H    0.159862
    49  H    0.153396
    50  H    0.161489
    51  H    0.154301
    52  H    0.160054
    53  H    0.147988
    54  H    0.153769
    55  H    0.140504
    56  H    0.148096
    57  H    0.147518
    58  H    0.361885
    59  H    0.163611
 Sum of Mulliken charges =  -0.00000

 Dipole moment (field-independent basis, Debye):
    X=             -9.4733    Y=             -5.5823    Z=             -0.4813  Tot=             11.0063
 Quadrupole moment (field-independent basis, Debye-Ang):
   XX=           -206.2171   YY=           -197.7674   ZZ=           -189.4275
   XY=             10.5361   XZ=              3.7318   YZ=             -3.4076

 Normal termination of Gaussian 16 at Fri Nov  4 18:48:27 2022.
