 Gaussian 16, Revision B.01,
 Gaussian 16:  ES64L-G16RevB.01 20-Dec-2017

 -----------------------------
 #p b3lyp/6-31g(d) opt SCF=XQC
 -----------------------------

 ------------------------------
 Gaussian input prepared by ASE
 ------------------------------
 Symbolic Z-matrix:
 Charge =  0 Multiplicity = 1

 SCF Done:  E(RB3LYP) =  -2209.73235740     A.U. after   15 cycles
 SCF Done:  E(RB3LYP) =  -2209.74597003     A.U. after   13 cycles
 SCF Done:  E(RB3LYP) =  -2209.74332837     A.U. after   13 cycles
 SCF Done:  E(RB3LYP) =  -2209.72119271     A.U. after   14 cycles
 SCF Done:  E(RB3LYP) =  -2209.72853691     A.U. after   13 cycles
 SCF Done:  E(RB3LYP) =  -2209.74694774     A.U. after   11 cycles
 SCF Done:  E(RB3LYP) =  -2209.74960352     A.U. after   12 cycles
 SCF Done:  E(RB3LYP) =  -2209.75221210     A.U. after   12 cycles
 SCF Done:  E(RB3LYP) =  -2209.75127398     A.U. after   13 cycles
 SCF Done:  E(RB3LYP) =  -2209.75398768     A.U. after   12 cycles
 SCF Done:  E(RB3LYP) =  -2209.75413745     A.U. after   12 cycles
 SCF Done:  E(RB3LYP) =  -2209.75424964     A.U. after   11 cycles
 SCF Done:  E(RB3LYP) =  -2209.75429132     A.U. after   11 cycles
 SCF Done:  E(RB3LYP) =  -2209.75431530     A.U. after   10 cycles
 SCF Done:  E(RB3LYP) =  -2209.75431978     A.U. after    9 cycles
 SCF Done:  E(RB3LYP) =  -2209.75432095     A.U. after    8 cycles
 SCF Done:  E(RB3LYP) =  -2209.75432145     A.U. after    7 cycles
 SCF Done:  E(RB3LYP) =  -2209.75432169     A.U. after    7 cycles
 SCF Done:  E(RB3LYP) =  -2209.75432175     A.U. after    7 cycles
 Optimization completed.
    -- Stationary point found.

                         Standard orientation:
 ---------------------------------------------------------------------
 Center     Atomic      Atomic             Coordinates (Angstroms)
 Number     Number       Type             X           Y           Z
 ---------------------------------------------------------------------
      1          7           0       -0.203650    4.291980    1.317159
      2          6           0        1.033832    3.860064    0.668154
      3          6           0        0.738322    3.135401   -0.662448
      4          6           0       -0.044212    1.851757   -0.490542
      5          6           0       -1.436651    1.913925   -0.409885
      6          6           0       -2.226910    0.786671   -0.202118
      7         16           0       -4.015587    1.164362   -0.348311
      8          7           0       -4.642381    0.765136    1.157576
      9          8           0       -4.129584    2.626256   -0.410561
     10          8           0       -4.538838    0.349176   -1.442815
     11          6           0       -1.612603   -0.471771   -0.071352
     12         16           0       -2.523537   -2.010300    0.309225
     13          7           0       -2.047588   -2.227433    1.913579
     14          8           0       -2.012556   -3.052382   -0.581920
     15          8           0       -3.968568   -1.786139    0.391480
     16          6           0       -0.208507   -0.563348   -0.192539
     17          6           0        0.512443   -1.863624   -0.201448
     18          7           0        1.114629   -2.353198   -1.321103
     19          7           0        1.663303   -3.490002   -0.984691
     20          7           0        1.388110   -3.653885    0.301512
     21          7           0        0.684084   -2.666584    0.847891
     22          6           0        0.577394    0.596188   -0.384962
     23          6           0        2.070437    0.485658   -0.450355
     24          6           0        2.762653    0.508753   -1.704059
     25          6           0        4.131635    0.429798   -1.751325
     26          6           0        4.873785    0.320691   -0.552494
     27          7           0        6.183948    0.231477   -0.341325
     28          6           0        6.319387    0.143180    1.012203
     29          6           0        5.102650    0.176016    1.663787
     30          7           0        4.159656    0.290877    0.663807
     31          6           0        2.789925    0.373417    0.711248
     32          1           0       -0.016603    4.603334    2.267693
     33          1           0       -0.599066    5.091628    0.824789
     34          1           0        1.546539    3.167243    1.345650
     35          1           0        1.744585    4.677832    0.455248
     36          1           0        1.688815    2.942509   -1.167498
     37          1           0        0.168957    3.815546   -1.309237
     38          1           0       -1.934181    2.870375   -0.503548
     39          1           0       -5.385587    1.425500    1.376282
     40          1           0       -4.936366   -0.209849    1.174506
     41          1           0       -2.758188   -2.784115    2.386296
     42          1           0       -1.116891   -2.647722    1.965939
     43          1           0        1.697418   -4.464664    0.822227
     44          1           0        2.183644    0.568859   -2.619342
     45          1           0        4.677258    0.437058   -2.688161
     46          1           0        7.296258    0.058718    1.471399
     47          1           0        4.827978    0.132631    2.706761
     48          1           0        2.335520    0.339616    1.694859
 ---------------------------------------------------------------------

 The electronic state is 1-A.
 Alpha  occ. eigenvalues --  -89.13168 -89.11489 -19.15893 -19.15501 -19.13991
 Alpha  occ. eigenvalues --  -19.13835 -14.48441 -14.43396 -14.42584 -14.41127
 Alpha  occ. eigenvalues --  -14.38496 -14.37343 -14.36003 -14.32704 -14.31712
 Alpha  occ. eigenvalues --  -10.28210 -10.26268 -10.25642 -10.25587 -10.25186
 Alpha  occ. eigenvalues --  -10.25160 -10.23914 -10.22943 -10.22791 -10.22663
 Alpha  occ. eigenvalues --  -10.22445 -10.21800 -10.21635 -10.21304 -10.21219
 Alpha  occ. eigenvalues --  -10.20583  -8.15634  -8.13957  -6.12116  -6.12049
 Alpha  occ. eigenvalues --   -6.11972  -6.10433  -6.10359  -6.10312  -1.17278
 Alpha  occ. eigenvalues --   -1.12699  -1.10867  -1.03970  -1.01630  -0.99708
 Alpha  occ. eigenvalues --   -0.97375  -0.92849  -0.91843  -0.91297  -0.90620
 Alpha  occ. eigenvalues --   -0.89998  -0.88972  -0.85005  -0.81625  -0.80625
 Alpha  occ. eigenvalues --   -0.76680  -0.74821  -0.74374  -0.71181  -0.69827
 Alpha  occ. eigenvalues --   -0.68752  -0.66858  -0.64973  -0.63509  -0.62392
 Alpha  occ. eigenvalues --   -0.61936  -0.61395  -0.59261  -0.58518  -0.56050
 Alpha  occ. eigenvalues --   -0.54536  -0.53987  -0.53814  -0.53098  -0.51579
 Alpha  occ. eigenvalues --   -0.50909  -0.50585  -0.50156  -0.49860  -0.48868
 Alpha  occ. eigenvalues --   -0.48685  -0.47758  -0.46995  -0.46784  -0.46616
 Alpha  occ. eigenvalues --   -0.45713  -0.45504  -0.44336  -0.43907  -0.43266
 Alpha  occ. eigenvalues --   -0.41410  -0.41392  -0.40204  -0.39336  -0.38547
 Alpha  occ. eigenvalues --   -0.38133  -0.37663  -0.36686  -0.36634  -0.35418
 Alpha  occ. eigenvalues --   -0.35136  -0.34633  -0.34330  -0.33708  -0.33251
 Alpha  occ. eigenvalues --   -0.32932  -0.32624  -0.31876  -0.31433  -0.31392
 Alpha  occ. eigenvalues --   -0.30927  -0.29964  -0.29620  -0.28305  -0.27616
 Alpha  occ. eigenvalues --   -0.27527  -0.27270  -0.25079  -0.24783  -0.21966
 Alpha virt. eigenvalues --   -0.06258  -0.05522  -0.04702  -0.03725  -0.00801
 Alpha virt. eigenvalues --    0.00925   0.02962   0.04769   0.05673   0.05887
 Alpha virt. eigenvalues --    0.06466   0.06881   0.07515   0.08266   0.08597

 Mulliken charges:
               1
     1  N   -0.710990
     2  C   -0.133753
     3  C   -0.358959
     4  C    0.179259
     5  C   -0.177061
     6  C   -0.187007
     7  S    1.213712
     8  N   -0.833445
     9  O   -0.544889
    10  O   -0.493361
    11  C   -0.207966
    12  S    1.248645
    13  N   -0.839926
    14  O   -0.509360
    15  O   -0.552998
    16  C    0.119864
    17  C    0.372822
    18  N   -0.306458
    19  N   -0.020785
    20  N   -0.188047
    21  N   -0.340856
    22  C   -0.008805
    23  C   -0.040336
    24  C   -0.113935
    25  C   -0.181902
    26  C    0.517157
    27  N   -0.504480
    28  C   -0.022739
    29  C   -0.008862
    30  N   -0.470243
    31  C    0.048905
    32  H    0.305200
    33  H    0.301638
    34  H    0.143249
    35  H    0.129947
    36  H    0.161755
    37  H    0.156110
    38  H    0.202842
    39  H    0.358834
    40  H    0.386900
    41  H    0.356623
    42  H    0.376111
    43  H    0.378104
    44  H    0.159092
    45  H    0.166319
    46  H    0.144302
    47  H    0.156515
    48  H    0.173258
 Sum of Mulliken charges =  -0.00000

 Dipole moment (field-independent basis, Debye):
    X=              3.2030    Y=              0.7951    Z=              7.7931  Tot=              8.4631
 Quadrupole moment (field-independent basis, Debye-Ang):
   XX=           -220.2753   YY=           -167.3613   ZZ=           -184.1483
   XY=              0.1056   XZ=             -5.3037   YZ=            -14.7264

 Normal termination of Gaussian 16 at Fri Nov  4 19:21:53 2022.
