 Gaussian 16, Revision B.01,
 Gaussian 16:  ES64L-G16RevB.01 20-Dec-2017

 -------------------------------------------------------------------
 #p b3lyp/6-31g(d) 6D 10F nosymm GFInput td=(50-50,nstate=2) SCF=XQC
 -------------------------------------------------------------------

 ------------------------------
 Gaussian input prepared by ASE
 ------------------------------
 Symbolic Z-matrix:
 Charge =  0 Multiplicity = 1

                          Input orientation:
 ---------------------------------------------------------------------
 Center     Atomic      Atomic             Coordinates (Angstroms)
 Number     Number       Type             X           Y           Z
 ---------------------------------------------------------------------
      1          7           0        1.498818    3.408470    1.705510
      2          6           0        2.282577    2.542388    0.825313
      3          6           0        1.564242    2.327422   -0.524038
      4          6           0        0.240492    1.605728   -0.395592
      5          6           0       -0.905948    2.343624   -0.094856
      6          6           0       -2.152281    1.751117    0.089455
      7         16           0       -3.486269    2.996890    0.268099
      8          7           0       -4.126985    2.694668    1.790627
      9          8           0       -2.824691    4.299576    0.407124
     10          8           0       -4.429744    2.776097   -0.826143
     11          6           0       -2.277623    0.355686   -0.033868
     12         16           0       -3.829607   -0.555406    0.287020
     13          7           0       -3.430862   -1.277032    1.759394
     14          8           0       -3.998253   -1.525843   -0.795100
     15          8           0       -4.936155    0.345360    0.617629
     16          6           0       -1.139321   -0.405341   -0.379794
     17          6           0       -1.205125   -1.863697   -0.661634
     18          7           0       -1.023223   -2.371154   -1.912769
     19          7           0       -1.127180   -3.669235   -1.809245
     20          7           0       -1.360762   -3.908779   -0.526683
     21          7           0       -1.407925   -2.823218    0.240313
     22          6           0        0.121172    0.213743   -0.544364
     23          6           0        1.328965   -0.618419   -0.851632
     24          6           0        1.845945   -0.713529   -2.183982
     25          6           0        2.965909   -1.460013   -2.450481
     26          6           0        3.620311   -2.148817   -1.403011
     27          7           0        4.702171   -2.922529   -1.408434
     28          6           0        4.861765   -3.317395   -0.113526
     29          6           0        3.887616   -2.799027    0.716183
     30          7           0        3.078689   -2.041386   -0.104797
     31          6           0        1.959971   -1.291532    0.162435
     32          1           0        1.883873    3.400016    2.647372
     33          1           0        1.546798    4.373980    1.383474
     34          1           0        2.402460    1.573534    1.324131
     35          1           0        3.299482    2.914662    0.609537
     36          1           0        2.238241    1.780605   -1.189196
     37          1           0        1.391610    3.308358   -0.985635
     38          1           0       -0.836361    3.418537    0.009189
     39          1           0       -4.399939    3.585083    2.201632
     40          1           0       -4.884552    2.016578    1.730649
     41          1           0       -4.294058   -1.477457    2.262414
     42          1           0       -2.855078   -2.109667    1.615263
     43          1           0       -1.485889   -4.845648   -0.165023
     44          1           0        1.323681   -0.200981   -2.984696
     45          1           0        3.371129   -1.553788   -3.451691
     46          1           0        5.679218   -3.965652    0.175965
     47          1           0        3.701085   -2.891817    1.775295
     48          1           0        1.621610   -1.274759    1.192168
 ---------------------------------------------------------------------

 SCF Done:  E(RB3LYP) =  -2209.75432798     A.U. after   16 cycles

 Excitation energies and oscillator strengths:

 Excited state symmetry could not be determined.
 Excited State   1:      Triplet-?Sym    2.8492 eV  435.16 nm  f=0.0000  <S**2>=2.000
     118 ->123        -0.10941
     118 ->124        -0.11658
     120 ->121         0.28211
     120 ->123         0.44767
     120 ->124         0.38714
 This state for optimization and/or second-order correction.
 Total Energy, E(TD-HF/TD-DFT) =  -2209.64962305
 Copying the excited state density for this state as the 1-particle RhoCI density.

 Excited state symmetry could not be determined.
 Excited State   2:      Triplet-?Sym    3.4281 eV  361.67 nm  f=0.0000  <S**2>=2.000
     113 ->121        -0.10096
     116 ->122         0.24889
     116 ->123         0.15590
     116 ->124        -0.12346
     117 ->121        -0.48792
     117 ->122        -0.13440
     118 ->121        -0.11977

 Excited state symmetry could not be determined.
 Excited State   3:      Singlet-?Sym    3.7308 eV  332.33 nm  f=0.0110  <S**2>=0.000
     120 ->121         0.69398
     120 ->122        -0.11289

 Excited state symmetry could not be determined.
 Excited State   4:      Singlet-?Sym    3.8946 eV  318.35 nm  f=0.0044  <S**2>=0.000
     120 ->121         0.11593
     120 ->122         0.69198

 Alpha  occ. eigenvalues --  -89.13168 -89.11489 -19.15893 -19.15501 -19.13991
 Alpha  occ. eigenvalues --  -19.13834 -14.48441 -14.43396 -14.42584 -14.41127
 Alpha  occ. eigenvalues --  -14.38496 -14.37343 -14.36003 -14.32704 -14.31712
 Alpha  occ. eigenvalues --  -10.28210 -10.26268 -10.25641 -10.25587 -10.25187
 Alpha  occ. eigenvalues --  -10.25160 -10.23914 -10.22944 -10.22791 -10.22663
 Alpha  occ. eigenvalues --  -10.22445 -10.21800 -10.21635 -10.21304 -10.21219
 Alpha  occ. eigenvalues --  -10.20583  -8.15634  -8.13957  -6.12116  -6.12049
 Alpha  occ. eigenvalues --   -6.11973  -6.10433  -6.10359  -6.10312  -1.17278
 Alpha  occ. eigenvalues --   -1.12699  -1.10867  -1.03970  -1.01630  -0.99708
 Alpha  occ. eigenvalues --   -0.97375  -0.92849  -0.91844  -0.91297  -0.90620
 Alpha  occ. eigenvalues --   -0.89998  -0.88972  -0.85005  -0.81625  -0.80625
 Alpha  occ. eigenvalues --   -0.76680  -0.74821  -0.74374  -0.71181  -0.69827
 Alpha  occ. eigenvalues --   -0.68752  -0.66858  -0.64973  -0.63509  -0.62392
 Alpha  occ. eigenvalues --   -0.61936  -0.61395  -0.59262  -0.58518  -0.56050
 Alpha  occ. eigenvalues --   -0.54536  -0.53987  -0.53814  -0.53098  -0.51579
 Alpha  occ. eigenvalues --   -0.50909  -0.50585  -0.50156  -0.49860  -0.48869
 Alpha  occ. eigenvalues --   -0.48685  -0.47758  -0.46995  -0.46784  -0.46616
 Alpha  occ. eigenvalues --   -0.45713  -0.45504  -0.44336  -0.43907  -0.43266
 Alpha  occ. eigenvalues --   -0.41410  -0.41392  -0.40204  -0.39336  -0.38547
 Alpha  occ. eigenvalues --   -0.38133  -0.37663  -0.36686  -0.36634  -0.35418
 Alpha  occ. eigenvalues --   -0.35136  -0.34633  -0.34330  -0.33708  -0.33251
 Alpha  occ. eigenvalues --   -0.32932  -0.32624  -0.31876  -0.31433  -0.31392
 Alpha  occ. eigenvalues --   -0.30927  -0.29964  -0.29620  -0.28305  -0.27616
 Alpha  occ. eigenvalues --   -0.27527  -0.27271  -0.25079  -0.24783  -0.21966
 Alpha virt. eigenvalues --   -0.06258  -0.05522  -0.04702  -0.03725  -0.00801
 Alpha virt. eigenvalues --    0.00925   0.02962   0.04769   0.05673   0.05887
 Alpha virt. eigenvalues --    0.06466   0.06881   0.07515   0.08266   0.08597

 Mulliken charges:
               1
     1  N   -0.710985
     2  C   -0.133754
     3  C   -0.358977
     4  C    0.179266
     5  C   -0.177062
     6  C   -0.187000
     7  S    1.213737
     8  N   -0.833452
     9  O   -0.544889
    10  O   -0.493365
    11  C   -0.207942
    12  S    1.248532
    13  N   -0.839882
    14  O   -0.509360
    15  O   -0.552974
    16  C    0.119837
    17  C    0.372825
    18  N   -0.306461
    19  N   -0.020782
    20  N   -0.188048
    21  N   -0.340865
    22  C   -0.008783
    23  C   -0.040318
    24  C   -0.113925
    25  C   -0.181922
    26  C    0.517179
    27  N   -0.504476
    28  C   -0.022743
    29  C   -0.008858
    30  N   -0.470253
    31  C    0.048892
    32  H    0.305199
    33  H    0.301638
    34  H    0.143249
    35  H    0.129947
    36  H    0.161758
    37  H    0.156112
    38  H    0.202843
    39  H    0.358831
    40  H    0.386900
    41  H    0.356628
    42  H    0.376112
    43  H    0.378104
    44  H    0.159091
    45  H    0.166319
    46  H    0.144302
    47  H    0.156516
    48  H    0.173257
 Sum of Mulliken charges =  -0.00000

 Dipole moment (field-independent basis, Debye):
    X=              3.6598    Y=             -2.3925    Z=              7.2461  Tot=              8.4631
 Quadrupole moment (field-independent basis, Debye-Ang):
   XX=           -212.0434   YY=           -177.4484   ZZ=           -188.9646
   XY=             25.8250   XZ=            -11.5109   YZ=            -10.5662

 Normal termination of Gaussian 16 at Sat Nov  5 11:28:42 2022.
