 Gaussian 16, Revision B.01,
 Gaussian 16:  ES64L-G16RevB.01 20-Dec-2017

 -----------------------------
 #p b3lyp/6-31g(d) opt SCF=XQC
 -----------------------------

 ------------------------------
 Gaussian input prepared by ASE
 ------------------------------
 Symbolic Z-matrix:
 Charge =  0 Multiplicity = 1

 SCF Done:  E(RB3LYP) =  -589.462770288     A.U. after   15 cycles
 SCF Done:  E(RB3LYP) =  -589.464644664     A.U. after   12 cycles
 SCF Done:  E(RB3LYP) =  -589.464871872     A.U. after   11 cycles
 SCF Done:  E(RB3LYP) =  -589.464895596     A.U. after   10 cycles
 SCF Done:  E(RB3LYP) =  -589.464898214     A.U. after    9 cycles
 Optimization completed.
    -- Stationary point found.

                         Standard orientation:
 ---------------------------------------------------------------------
 Center     Atomic      Atomic             Coordinates (Angstroms)
 Number     Number       Type             X           Y           Z
 ---------------------------------------------------------------------
      1          6           0        3.574791   -0.656629    0.000000
      2          8           0        2.198506   -1.052863    0.000000
      3          6           0        1.286252   -0.063565   -0.000000
      4          7           0        1.641277    1.208014    0.000000
      5          6           0        0.693347    2.176872    0.000000
      6          6           0       -0.666779    1.921654    0.000000
      7          6           0       -1.043925    0.569076   -0.000000
      8          6           0       -0.081406   -0.427836   -0.000000
      9          8           0       -0.555402   -1.700983    0.000000
     10          6           0       -1.995857   -1.611447    0.000000
     11          6           0       -2.351565   -0.111679   -0.000001
     12          8           0       -3.473145    0.354078    0.000000
     13          1           0        3.810696   -0.064670   -0.889322
     14          1           0        4.139653   -1.589679   -0.000001
     15          1           0        3.810697   -0.064671    0.889323
     16          1           0        1.071268    3.196008    0.000000
     17          1           0       -1.405594    2.715540    0.000000
     18          1           0       -2.382243   -2.114578   -0.892081
     19          1           0       -2.382243   -2.114577    0.892082
 ---------------------------------------------------------------------

 The electronic state is 1-A.
 Alpha  occ. eigenvalues --  -19.20525 -19.19269 -19.15039 -14.34370 -10.29405
 Alpha  occ. eigenvalues --  -10.29103 -10.27200 -10.26221 -10.24101 -10.23051
 Alpha  occ. eigenvalues --  -10.21323 -10.20788  -1.10315  -1.08261  -1.04750
 Alpha  occ. eigenvalues --   -0.94720  -0.82383  -0.78456  -0.75502  -0.71746
 Alpha  occ. eigenvalues --   -0.65172  -0.63597  -0.57943  -0.53567  -0.52845
 Alpha  occ. eigenvalues --   -0.50888  -0.49698  -0.47753  -0.47736  -0.46020
 Alpha  occ. eigenvalues --   -0.43528  -0.41884  -0.41620  -0.40998  -0.39325
 Alpha  occ. eigenvalues --   -0.38437  -0.35679  -0.35408  -0.33598  -0.28073
 Alpha  occ. eigenvalues --   -0.27902  -0.25947  -0.22785
 Alpha virt. eigenvalues --   -0.07175  -0.00662   0.03567   0.08960   0.10663
 Alpha virt. eigenvalues --    0.11449   0.11892   0.13197   0.15489   0.15656
 Alpha virt. eigenvalues --    0.16597   0.16818   0.17672   0.19887   0.21791

 Mulliken charges:
               1
     1  C   -0.206968
     2  O   -0.482509
     3  C    0.538282
     4  N   -0.508697
     5  C    0.021817
     6  C   -0.194034
     7  C    0.100370
     8  C    0.262957
     9  O   -0.512402
    10  C   -0.122756
    11  C    0.353636
    12  O   -0.454841
    13  H    0.167626
    14  H    0.166307
    15  H    0.167626
    16  H    0.148145
    17  H    0.159385
    18  H    0.198029
    19  H    0.198029
 Sum of Mulliken charges =  -0.00000

 Dipole moment (field-independent basis, Debye):
    X=              1.7565    Y=             -0.5126    Z=             -0.0000  Tot=              1.8298
 Quadrupole moment (field-independent basis, Debye-Ang):
   XX=            -69.8769   YY=            -64.0242   ZZ=            -66.4765
   XY=              3.7368   XZ=              0.0000   YZ=             -0.0000

 1\1\GINC-NODE57\FOpt\RB3LYP\6-31G(d)\C8H7N1O3\WYKGROUP\04-Nov-2022\0\\
 #p b3lyp/6-31g(d) opt SCF=XQC\\Gaussian input prepared by ASE\\0,1\C,3
 .3337650399,-0.095868905,0.0870195571\O,2.0505030272,-0.7300604946,0.0
 401072863\C,0.9770300213,0.0813700062,0.0276910945\N,1.0998803301,1.39
 55201369,0.0572400153\C,-0.0050466806,2.1805054335,0.0434563186\C,-1.2
 975186268,1.6879304139,-0.0008707265\C,-1.4277092128,0.2901577072,-0.0
 322873394\C,-0.3034364712,-0.5198412035,-0.0184874601\O,-0.5430359749,
 -1.8566544677,-0.0516034857\C,-1.9758995784,-2.0242829493,-0.093179426

 Normal termination of Gaussian 16 at Fri Nov  4 18:20:06 2022.
