 Gaussian 16, Revision B.01,
 Gaussian 16:  ES64L-G16RevB.01 20-Dec-2017

 -------------------------------------------------------------------
 #p b3lyp/6-31g(d) 6D 10F nosymm GFInput td=(50-50,nstate=2) SCF=XQC
 -------------------------------------------------------------------

 ------------------------------
 Gaussian input prepared by ASE
 ------------------------------
 Symbolic Z-matrix:
 Charge =  0 Multiplicity = 1

                          Input orientation:
 ---------------------------------------------------------------------
 Center     Atomic      Atomic             Coordinates (Angstroms)
 Number     Number       Type             X           Y           Z
 ---------------------------------------------------------------------
      1          6           0        3.333765   -0.095869    0.087020
      2          8           0        2.050503   -0.730060    0.040107
      3          6           0        0.977030    0.081370    0.027691
      4          7           0        1.099880    1.395520    0.057240
      5          6           0       -0.005047    2.180505    0.043456
      6          6           0       -1.297519    1.687930   -0.000871
      7          6           0       -1.427709    0.290158   -0.032287
      8          6           0       -0.303436   -0.519841   -0.018487
      9          8           0       -0.543036   -1.856654   -0.051603
     10          6           0       -1.975900   -2.024283   -0.093179
     11          6           0       -2.592796   -0.611791   -0.081400
     12          8           0       -3.778971   -0.352640   -0.107862
     13          1           0        3.484144    0.546216   -0.785949
     14          1           0        4.055508   -0.913629    0.089925
     15          1           0        3.436721    0.510677    0.991709
     16          1           0        0.185268    3.250339    0.069921
     17          1           0       -2.165597    2.337884   -0.011035
     18          1           0       -2.242619   -2.570091   -1.003783
     19          1           0       -2.290189   -2.605738    0.779390
 ---------------------------------------------------------------------

 SCF Done:  E(RB3LYP) =  -589.464900308     A.U. after   16 cycles

 Excitation energies and oscillator strengths:

 Excited state symmetry could not be determined.
 Excited State   1:      Triplet-?Sym    2.7472 eV  451.31 nm  f=0.0000  <S**2>=2.000
      43 -> 44         0.69873
 This state for optimization and/or second-order correction.
 Total Energy, E(TD-HF/TD-DFT) =  -589.363942936
 Copying the excited state density for this state as the 1-particle RhoCI density.

 Excited state symmetry could not be determined.
 Excited State   2:      Triplet-?Sym    3.1967 eV  387.85 nm  f=0.0000  <S**2>=2.000
      42 -> 44         0.68465
      42 -> 46         0.14117

 Excited state symmetry could not be determined.
 Excited State   3:      Singlet-?Sym    3.6717 eV  337.68 nm  f=0.0001  <S**2>=0.000
      42 -> 44         0.69453
      42 -> 46         0.10146

 Excited state symmetry could not be determined.
 Excited State   4:      Singlet-?Sym    3.7713 eV  328.75 nm  f=0.0921  <S**2>=0.000
      41 -> 45        -0.10611
      43 -> 44         0.69730

 Alpha  occ. eigenvalues --  -19.20525 -19.19269 -19.15039 -14.34369 -10.29405
 Alpha  occ. eigenvalues --  -10.29103 -10.27200 -10.26221 -10.24101 -10.23051
 Alpha  occ. eigenvalues --  -10.21323 -10.20788  -1.10315  -1.08261  -1.04750
 Alpha  occ. eigenvalues --   -0.94720  -0.82383  -0.78456  -0.75502  -0.71746
 Alpha  occ. eigenvalues --   -0.65173  -0.63597  -0.57943  -0.53567  -0.52845
 Alpha  occ. eigenvalues --   -0.50888  -0.49698  -0.47753  -0.47736  -0.46020
 Alpha  occ. eigenvalues --   -0.43528  -0.41884  -0.41620  -0.40998  -0.39325
 Alpha  occ. eigenvalues --   -0.38437  -0.35679  -0.35408  -0.33598  -0.28073
 Alpha  occ. eigenvalues --   -0.27902  -0.25947  -0.22785
 Alpha virt. eigenvalues --   -0.07175  -0.00662   0.03567   0.08960   0.10663
 Alpha virt. eigenvalues --    0.11449   0.11892   0.13197   0.15489   0.15656
 Alpha virt. eigenvalues --    0.16597   0.16818   0.17672   0.19887   0.21791

 Mulliken charges:
               1
     1  C   -0.206967
     2  O   -0.482513
     3  C    0.538285
     4  N   -0.508687
     5  C    0.021813
     6  C   -0.194021
     7  C    0.100387
     8  C    0.262932
     9  O   -0.512392
    10  C   -0.122769
    11  C    0.353628
    12  O   -0.454848
    13  H    0.167626
    14  H    0.166306
    15  H    0.167626
    16  H    0.148144
    17  H    0.159386
    18  H    0.198033
    19  H    0.198033
 Sum of Mulliken charges =  -0.00000

 Dipole moment (field-independent basis, Debye):
    X=              1.8191    Y=             -0.1926    Z=              0.0447  Tot=              1.8298
 Quadrupole moment (field-independent basis, Debye-Ang):
   XX=            -72.0875   YY=            -62.8716   ZZ=            -66.4765
   XY=              2.3792   XZ=             -0.1021   YZ=              0.1355

 Normal termination of Gaussian 16 at Sat Nov  5 11:21:36 2022.
