 Gaussian 16, Revision B.01,
 Gaussian 16:  ES64L-G16RevB.01 20-Dec-2017

 -------------------------------------------------------------------
 #p b3lyp/6-31g(d) 6D 10F nosymm GFInput td=(50-50,nstate=2) SCF=XQC
 -------------------------------------------------------------------

 ------------------------------
 Gaussian input prepared by ASE
 ------------------------------
 Symbolic Z-matrix:
 Charge =  0 Multiplicity = 1

                          Input orientation:
 ---------------------------------------------------------------------
 Center     Atomic      Atomic             Coordinates (Angstroms)
 Number     Number       Type             X           Y           Z
 ---------------------------------------------------------------------
      1          6           0       -4.226643   -1.056901    0.770108
      2          8           0       -2.860932   -1.448328    0.776615
      3          6           0       -2.107747   -0.860814   -0.249371
      4          6           0       -0.700757   -1.384952   -0.185191
      5          6           0        0.162349   -0.379098   -0.016837
      6          6           0        1.621952   -0.418639    0.155086
      7          6           0        2.384344   -1.534331   -0.228977
      8          6           0        3.758266   -1.519104   -0.014728
      9          6           0        4.336533   -0.392475    0.570638
     10          6           0        3.500527    0.671790    0.911365
     11          7           0        2.179916    0.673473    0.713116
     12          6           0       -0.605474    0.927432   -0.019275
     13          8           0       -0.228955    1.657217   -1.154895
     14          6           0       -0.779658    2.964990   -1.194930
     15          8           0       -1.980271    0.547070   -0.074329
     16          1           0       -4.723490   -1.639958    1.549191
     17          1           0       -4.337516    0.012235    0.986424
     18          1           0       -4.699788   -1.274814   -0.200402
     19          1           0       -2.610185   -1.046757   -1.215259
     20          1           0       -0.486489   -2.446671   -0.221678
     21          1           0        1.905100   -2.387778   -0.698135
     22          1           0        4.368973   -2.369557   -0.305819
     23          1           0        5.405250   -0.334285    0.753245
     24          1           0        3.913169    1.571312    1.365913
     25          1           0       -0.450879    1.535193    0.882200
     26          1           0       -0.360209    3.455423   -2.076755
     27          1           0       -0.503982    3.540649   -0.298236
     28          1           0       -1.873404    2.937677   -1.279083
 ---------------------------------------------------------------------

 SCF Done:  E(RB3LYP) =  -707.370280964     A.U. after   14 cycles

 Excitation energies and oscillator strengths:

 Excited state symmetry could not be determined.
 Excited State   1:      Triplet-?Sym    3.0392 eV  407.94 nm  f=0.0000  <S**2>=2.000
      49 -> 58        -0.12977
      50 -> 57         0.13187
      55 -> 56         0.65925
      55 -> 57         0.11979
 This state for optimization and/or second-order correction.
 Total Energy, E(TD-HF/TD-DFT) =  -707.258590882
 Copying the excited state density for this state as the 1-particle RhoCI density.

 Excited state symmetry could not be determined.
 Excited State   2:      Triplet-?Sym    3.9717 eV  312.17 nm  f=0.0000  <S**2>=2.000
      52 -> 56         0.18300
      52 -> 57        -0.13840
      53 -> 56        -0.33742
      53 -> 57         0.18813
      54 -> 56         0.45404
      54 -> 57        -0.25501

 Excited state symmetry could not be determined.
 Excited State   3:      Singlet-?Sym    4.4846 eV  276.47 nm  f=0.0046  <S**2>=0.000
      52 -> 56         0.15704
      53 -> 56        -0.35846
      54 -> 56         0.57124
      55 -> 56        -0.11919

 Excited state symmetry could not be determined.
 Excited State   4:      Singlet-?Sym    4.8816 eV  253.98 nm  f=0.0645  <S**2>=0.000
      53 -> 56         0.45317
      54 -> 56         0.37470
      55 -> 56         0.33140
      55 -> 57        -0.15526

 Alpha  occ. eigenvalues --  -19.14871 -19.14480 -19.14323 -14.33146 -10.28307
 Alpha  occ. eigenvalues --  -10.27762 -10.23658 -10.22551 -10.22258 -10.21821
 Alpha  occ. eigenvalues --  -10.21256 -10.20358 -10.20260 -10.20142 -10.19638
 Alpha  occ. eigenvalues --   -1.07434  -1.03516  -0.99149  -0.94501  -0.81541
 Alpha  occ. eigenvalues --   -0.80637  -0.75916  -0.73593  -0.68950  -0.65561
 Alpha  occ. eigenvalues --   -0.63766  -0.63406  -0.57930  -0.57089  -0.53533
 Alpha  occ. eigenvalues --   -0.50751  -0.50063  -0.48449  -0.48283  -0.47614
 Alpha  occ. eigenvalues --   -0.46247  -0.44554  -0.43397  -0.42776  -0.41463
 Alpha  occ. eigenvalues --   -0.40634  -0.40266  -0.39499  -0.37157  -0.35740
 Alpha  occ. eigenvalues --   -0.34639  -0.33771  -0.31244  -0.30343  -0.28633
 Alpha  occ. eigenvalues --   -0.27033  -0.26905  -0.25711  -0.25327  -0.23945
 Alpha virt. eigenvalues --   -0.04643  -0.02189   0.03943   0.09109   0.11045
 Alpha virt. eigenvalues --    0.11831   0.12362   0.13445   0.14734   0.14852
 Alpha virt. eigenvalues --    0.15325   0.16336   0.16675   0.17102   0.17278

 Mulliken charges:
               1
     1  C   -0.204597
     2  O   -0.463943
     3  C    0.353479
     4  C   -0.221785
     5  C    0.076371
     6  C    0.286892
     7  C   -0.155178
     8  C   -0.105452
     9  C   -0.141671
    10  C    0.045639
    11  N   -0.482256
    12  C    0.334573
    13  O   -0.461861
    14  C   -0.201383
    15  O   -0.530413
    16  H    0.157743
    17  H    0.159104
    18  H    0.129049
    19  H    0.121266
    20  H    0.150928
    21  H    0.141146
    22  H    0.145352
    23  H    0.140563
    24  H    0.142707
    25  H    0.141285
    26  H    0.156067
    27  H    0.135029
    28  H    0.151345
 Sum of Mulliken charges =  -0.00000

 Dipole moment (field-independent basis, Debye):
    X=              1.2300    Y=             -1.0884    Z=             -0.5061  Tot=              1.7186
 Quadrupole moment (field-independent basis, Debye-Ang):
   XX=            -69.8425   YY=            -79.3892   ZZ=            -89.4973
   XY=             -3.5007   XZ=              2.2149   YZ=              2.6725

 Normal termination of Gaussian 16 at Sat Nov  5 11:23:21 2022.
