 Gaussian 16, Revision B.01,
 Gaussian 16:  ES64L-G16RevB.01 20-Dec-2017

 -----------------------------
 #p b3lyp/6-31g(d) opt SCF=XQC
 -----------------------------

 ------------------------------
 Gaussian input prepared by ASE
 ------------------------------
 Symbolic Z-matrix:
 Charge =  0 Multiplicity = 1

 SCF Done:  E(RB3LYP) =  -707.368046264     A.U. after   14 cycles
 SCF Done:  E(RB3LYP) =  -707.370104204     A.U. after   12 cycles
 SCF Done:  E(RB3LYP) =  -707.370240273     A.U. after   11 cycles
 SCF Done:  E(RB3LYP) =  -707.370269106     A.U. after   10 cycles
 SCF Done:  E(RB3LYP) =  -707.370274664     A.U. after    9 cycles
 SCF Done:  E(RB3LYP) =  -707.370278988     A.U. after    9 cycles
 SCF Done:  E(RB3LYP) =  -707.370279640     A.U. after    8 cycles
 SCF Done:  E(RB3LYP) =  -707.370279737     A.U. after    7 cycles
 SCF Done:  E(RB3LYP) =  -707.370279821     A.U. after    7 cycles
 SCF Done:  E(RB3LYP) =  -707.370279853     A.U. after    7 cycles
 Optimization completed.
    -- Stationary point found.

                         Standard orientation:
 ---------------------------------------------------------------------
 Center     Atomic      Atomic             Coordinates (Angstroms)
 Number     Number       Type             X           Y           Z
 ---------------------------------------------------------------------
      1          6           0       -4.329648   -1.207388    0.577407
      2          8           0       -2.963134   -1.572959    0.445412
      3          6           0       -2.242680   -0.734934   -0.417009
      4          6           0       -0.832774   -1.243098   -0.528344
      5          6           0        0.031820   -0.304480   -0.132734
      6          6           0        1.496013   -0.371100   -0.017564
      7          6           0        2.250105   -1.343543   -0.695219
      8          6           0        3.629744   -1.368936   -0.522751
      9          6           0        4.221672   -0.423081    0.314697
     10          6           0        3.392870    0.509928    0.939389
     11          7           0        2.066941    0.548150    0.785212
     12          6           0       -0.739808    0.951110    0.220342
     13          8           0       -0.399560    1.950675   -0.701117
     14          6           0       -0.955289    3.219377   -0.390135
     15          8           0       -2.114440    0.582832    0.108417
     16          1           0       -4.801247   -1.975324    1.195187
     17          1           0       -4.437364   -0.230190    1.062813
     18          1           0       -4.830808   -1.175237   -0.402923
     19          1           0       -2.773082   -0.673367   -1.383880
     20          1           0       -0.616376   -2.257952   -0.840966
     21          1           0        1.759765   -2.053917   -1.353316
     22          1           0        4.234161   -2.110306   -1.038520
     23          1           0        5.295168   -0.402100    0.476114
     24          1           0        3.816059    1.267869    1.597008
     25          1           0       -0.560327    1.310101    1.242518
     26          1           0       -0.563824    3.923182   -1.128710
     27          1           0       -0.654824    3.549841    0.615824
     28          1           0       -2.050966    3.202839   -0.447816
 ---------------------------------------------------------------------

 The electronic state is 1-A.
 Alpha  occ. eigenvalues --  -19.14871 -19.14480 -19.14323 -14.33146 -10.28307
 Alpha  occ. eigenvalues --  -10.27762 -10.23658 -10.22551 -10.22258 -10.21821
 Alpha  occ. eigenvalues --  -10.21256 -10.20358 -10.20260 -10.20142 -10.19638
 Alpha  occ. eigenvalues --   -1.07434  -1.03516  -0.99149  -0.94501  -0.81541
 Alpha  occ. eigenvalues --   -0.80637  -0.75916  -0.73593  -0.68950  -0.65561
 Alpha  occ. eigenvalues --   -0.63766  -0.63406  -0.57930  -0.57089  -0.53533
 Alpha  occ. eigenvalues --   -0.50751  -0.50063  -0.48449  -0.48283  -0.47614
 Alpha  occ. eigenvalues --   -0.46247  -0.44554  -0.43397  -0.42776  -0.41463
 Alpha  occ. eigenvalues --   -0.40634  -0.40266  -0.39499  -0.37157  -0.35740
 Alpha  occ. eigenvalues --   -0.34639  -0.33771  -0.31244  -0.30343  -0.28633
 Alpha  occ. eigenvalues --   -0.27033  -0.26905  -0.25711  -0.25327  -0.23945
 Alpha virt. eigenvalues --   -0.04643  -0.02189   0.03943   0.09109   0.11045
 Alpha virt. eigenvalues --    0.11831   0.12362   0.13445   0.14734   0.14852
 Alpha virt. eigenvalues --    0.15325   0.16335   0.16675   0.17102   0.17278

 Mulliken charges:
               1
     1  C   -0.204599
     2  O   -0.463935
     3  C    0.353448
     4  C   -0.221807
     5  C    0.076384
     6  C    0.286903
     7  C   -0.155191
     8  C   -0.105433
     9  C   -0.141686
    10  C    0.045646
    11  N   -0.482259
    12  C    0.334612
    13  O   -0.461875
    14  C   -0.201381
    15  O   -0.530414
    16  H    0.157744
    17  H    0.159104
    18  H    0.129050
    19  H    0.121270
    20  H    0.150926
    21  H    0.141147
    22  H    0.145351
    23  H    0.140564
    24  H    0.142707
    25  H    0.141284
    26  H    0.156067
    27  H    0.135029
    28  H    0.151345
 Sum of Mulliken charges =  -0.00000

 Dipole moment (field-independent basis, Debye):
    X=              1.2178    Y=             -0.9099    Z=             -0.8016  Tot=              1.7186
 Quadrupole moment (field-independent basis, Debye-Ang):
   XX=            -70.0261   YY=            -81.5530   ZZ=            -87.5471
   XY=             -3.5027   XZ=              0.7839   YZ=              4.9068

 Normal termination of Gaussian 16 at Fri Nov  4 18:40:02 2022.
