 Gaussian 16, Revision B.01,
 Gaussian 16:  ES64L-G16RevB.01 20-Dec-2017

 -----------------------------
 #p b3lyp/6-31g(d) opt SCF=XQC
 -----------------------------

 ------------------------------
 Gaussian input prepared by ASE
 ------------------------------
 Symbolic Z-matrix:
 Charge =  0 Multiplicity = 1

 SCF Done:  E(RB3LYP) =  -1568.27788761     A.U. after   15 cycles
 SCF Done:  E(RB3LYP) =  -1568.28264093     A.U. after   13 cycles
 SCF Done:  E(RB3LYP) =  -1568.28533595     A.U. after   13 cycles
 SCF Done:  E(RB3LYP) =  -1568.28645555     A.U. after   12 cycles
 SCF Done:  E(RB3LYP) =  -1568.28668536     A.U. after   12 cycles
 SCF Done:  E(RB3LYP) =  -1568.28686818     A.U. after   12 cycles
 SCF Done:  E(RB3LYP) =  -1568.28696597     A.U. after   11 cycles
 SCF Done:  E(RB3LYP) =  -1568.28701295     A.U. after   12 cycles
 SCF Done:  E(RB3LYP) =  -1568.28705753     A.U. after   11 cycles
 SCF Done:  E(RB3LYP) =  -1568.28708342     A.U. after   10 cycles
 SCF Done:  E(RB3LYP) =  -1568.28709581     A.U. after   10 cycles
 SCF Done:  E(RB3LYP) =  -1568.28710707     A.U. after   10 cycles
 SCF Done:  E(RB3LYP) =  -1568.28711332     A.U. after   10 cycles
 SCF Done:  E(RB3LYP) =  -1568.28711487     A.U. after    8 cycles
 SCF Done:  E(RB3LYP) =  -1568.28711530     A.U. after    8 cycles
 SCF Done:  E(RB3LYP) =  -1568.28711542     A.U. after    7 cycles
 SCF Done:  E(RB3LYP) =  -1568.28711547     A.U. after    7 cycles
 SCF Done:  E(RB3LYP) =  -1568.28711549     A.U. after    7 cycles
 Optimization completed.
    -- Stationary point found.

                         Standard orientation:
 ---------------------------------------------------------------------
 Center     Atomic      Atomic             Coordinates (Angstroms)
 Number     Number       Type             X           Y           Z
 ---------------------------------------------------------------------
      1          6           0        4.092665    6.008506   -0.068344
      2          7           0        3.377872    5.068207   -0.117202
      3          6           0        2.557527    3.963352   -0.164130
      4          6           0        1.328330    3.988287   -0.839233
      5          6           0        0.525076    2.858162   -0.876595
      6          6           0        0.920728    1.664692   -0.240271
      7          6           0       -0.004056    0.524547   -0.298455
      8          7           0       -1.299793    0.665790   -0.490970
      9          6           0       -1.847286   -0.595911   -0.489726
     10          6           0       -3.284727   -0.912891   -0.748032
     11          8           0       -3.576806   -2.031662   -1.188937
     12          7           0       -4.247268    0.042114   -0.532047
     13          6           0       -4.128158    1.244466    0.300393
     14          6           0       -4.940569    1.084229    1.595489
     15          6           0       -6.397428    0.698479    1.302056
     16          6           0       -6.475522   -0.532258    0.389155
     17          7           0       -7.865427   -0.766725   -0.015717
     18          6           0       -5.631773   -0.290494   -0.873417
     19          6           0       -0.855769   -1.547312   -0.301059
     20          6           0       -0.887574   -3.038799   -0.253645
     21          7           0        0.321186   -0.822614   -0.166816
     22          6           0        1.618962   -1.412548   -0.070436
     23          6           0        2.470138   -1.437830   -1.168738
     24          7           0        3.697350   -1.978226   -1.127887
     25          6           0        4.121195   -2.527065    0.000928
     26          8           0        5.337256   -3.082463    0.092706
     27          6           0        6.159877   -3.046500   -1.082855
     28          6           0        3.313874   -2.556246    1.161647
     29          9           0        3.785572   -3.126587    2.278594
     30          6           0        2.056832   -1.996094    1.132200
     31          6           0        2.145510    1.642941    0.447216
     32          6           0        2.940542    2.777320    0.473514
     33          9           0        4.106452    2.746415    1.137128
     34          1           0        1.024286    4.904312   -1.334549
     35          1           0       -0.425261    2.878069   -1.396736
     36          1           0       -3.080037    1.446236    0.503556
     37          1           0       -4.518622    2.094932   -0.277590
     38          1           0       -4.900605    2.022180    2.163759
     39          1           0       -4.466055    0.312435    2.216908
     40          1           0       -6.912713    1.527895    0.797650
     41          1           0       -6.939447    0.510662    2.239347
     42          1           0       -6.024657   -1.389736    0.922568
     43          1           0       -8.445259   -0.894422    0.813178
     44          1           0       -7.927053   -1.640100   -0.538759
     45          1           0       -6.069628    0.547785   -1.432061
     46          1           0       -5.618252   -1.173630   -1.512570
     47          1           0       -0.573382   -3.425737    0.723986
     48          1           0       -1.904259   -3.367740   -0.464852
     49          1           0       -0.218094   -3.473759   -1.006079
     50          1           0        2.158439   -1.002040   -2.114716
     51          1           0        7.088264   -3.538745   -0.792290
     52          1           0        5.681939   -3.581978   -1.907891
     53          1           0        6.351253   -2.014982   -1.391280
     54          1           0        1.435282   -2.003698    2.021251
     55          1           0        2.494254    0.770575    0.984024
 ---------------------------------------------------------------------

 The electronic state is 1-A.
 Alpha  occ. eigenvalues --  -24.73480 -24.72769 -19.20837 -19.10349 -14.41892
 Alpha  occ. eigenvalues --  -14.38088 -14.36260 -14.35675 -14.33323 -14.31298
 Alpha  occ. eigenvalues --  -10.31274 -10.30667 -10.29961 -10.28509 -10.27042
 Alpha  occ. eigenvalues --  -10.26800 -10.26611 -10.25590 -10.25263 -10.24422
 Alpha  occ. eigenvalues --  -10.24153 -10.23664 -10.22716 -10.22345 -10.22053
 Alpha  occ. eigenvalues --  -10.21938 -10.21285 -10.21271 -10.21159 -10.20444
 Alpha  occ. eigenvalues --  -10.19518 -10.18708 -10.18237  -1.24822  -1.24102
 Alpha  occ. eigenvalues --   -1.10308  -1.04268  -1.02261  -0.97253  -0.97045
 Alpha  occ. eigenvalues --   -0.93063  -0.91452  -0.88559  -0.88164  -0.83469
 Alpha  occ. eigenvalues --   -0.81618  -0.79373  -0.78448  -0.77870  -0.77363
 Alpha  occ. eigenvalues --   -0.74136  -0.73216  -0.71953  -0.69298  -0.67960
 Alpha  occ. eigenvalues --   -0.66738  -0.65711  -0.64821  -0.62415  -0.61787
 Alpha  occ. eigenvalues --   -0.60619  -0.59554  -0.57885  -0.56784  -0.56437
 Alpha  occ. eigenvalues --   -0.55853  -0.54051  -0.53316  -0.52607  -0.51493
 Alpha  occ. eigenvalues --   -0.50589  -0.49256  -0.48534  -0.48343  -0.47708
 Alpha  occ. eigenvalues --   -0.47557  -0.47466  -0.46988  -0.46597  -0.46553
 Alpha  occ. eigenvalues --   -0.46275  -0.45853  -0.44520  -0.43931  -0.43292
 Alpha  occ. eigenvalues --   -0.42609  -0.42041  -0.41826  -0.41594  -0.41397
 Alpha  occ. eigenvalues --   -0.41343  -0.40857  -0.40188  -0.39949  -0.38998
 Alpha  occ. eigenvalues --   -0.38742  -0.38180  -0.37408  -0.36924  -0.36486
 Alpha  occ. eigenvalues --   -0.36120  -0.35537  -0.34861  -0.34050  -0.33761
 Alpha  occ. eigenvalues --   -0.32065  -0.31482  -0.30642  -0.30614  -0.29077
 Alpha  occ. eigenvalues --   -0.28679  -0.28176  -0.26850  -0.25376  -0.24746
 Alpha  occ. eigenvalues --   -0.23763  -0.22892  -0.22240
 Alpha virt. eigenvalues --   -0.06470  -0.05174  -0.03404  -0.02122  -0.01106
 Alpha virt. eigenvalues --    0.01710   0.02370   0.06638   0.07122   0.07930
 Alpha virt. eigenvalues --    0.07976   0.09694   0.10105   0.10684   0.10895

 Mulliken charges:
               1
     1  C   -0.062784
     2  N   -0.312271
     3  C    0.227206
     4  C   -0.129152
     5  C   -0.176244
     6  C    0.132626
     7  C    0.416053
     8  N   -0.548357
     9  C    0.119786
    10  C    0.561831
    11  O   -0.549647
    12  N   -0.438289
    13  C   -0.160229
    14  C   -0.264869
    15  C   -0.269177
    16  C    0.034262
    17  N   -0.727701
    18  C   -0.143261
    19  C    0.326595
    20  C   -0.538948
    21  N   -0.620017
    22  C    0.189488
    23  C    0.048694
    24  N   -0.511214
    25  C    0.520797
    26  O   -0.475929
    27  C   -0.211201
    28  C    0.326227
    29  F   -0.270843
    30  C   -0.181651
    31  C   -0.265537
    32  C    0.380234
    33  F   -0.273100
    34  H    0.167352
    35  H    0.174018
    36  H    0.195074
    37  H    0.140924
    38  H    0.138653
    39  H    0.136029
    40  H    0.145052
    41  H    0.127997
    42  H    0.116952
    43  H    0.294684
    44  H    0.298637
    45  H    0.149822
    46  H    0.180828
    47  H    0.156631
    48  H    0.226304
    49  H    0.167781
    50  H    0.171232
    51  H    0.173653
    52  H    0.172174
    53  H    0.173892
    54  H    0.178262
    55  H    0.160672
 Sum of Mulliken charges =  -0.00000

 Dipole moment (field-independent basis, Debye):
    X=             -0.5989    Y=             -3.7128    Z=              0.9965  Tot=              3.8906
 Quadrupole moment (field-independent basis, Debye-Ang):
   XX=           -191.0959   YY=           -207.9750   ZZ=           -186.6898
   XY=            -25.4540   XZ=            -19.9597   YZ=             -3.0116

 Normal termination of Gaussian 16 at Fri Nov  4 19:17:40 2022.
