 Gaussian 16, Revision B.01,
 Gaussian 16:  ES64L-G16RevB.01 20-Dec-2017

 -------------------------------------------------------------------
 #p b3lyp/6-31g(d) 6D 10F nosymm GFInput td=(50-50,nstate=2) SCF=XQC
 -------------------------------------------------------------------

 ------------------------------
 Gaussian input prepared by ASE
 ------------------------------
 Symbolic Z-matrix:
 Charge =  0 Multiplicity = 1

                          Input orientation:
 ---------------------------------------------------------------------
 Center     Atomic      Atomic             Coordinates (Angstroms)
 Number     Number       Type             X           Y           Z
 ---------------------------------------------------------------------
      1          6           0        4.376166    6.358283    0.996208
      2          7           0        3.721452    5.397183    0.783807
      3          6           0        2.972243    4.267199    0.543608
      4          6           0        1.706366    4.337996   -0.056270
      5          6           0        0.976364    3.182670   -0.293156
      6          6           0        1.484442    1.917086    0.061772
      7          6           0        0.632789    0.747153   -0.192165
      8          7           0       -0.678417    0.827453   -0.293343
      9          6           0       -1.142924   -0.445040   -0.531319
     10          6           0       -2.569811   -0.809014   -0.786173
     11          8           0       -2.815061   -1.832184   -1.437579
     12          7           0       -3.577173    0.006540   -0.333111
     13          6           0       -3.486541    1.017988    0.725923
     14          6           0       -4.209360    0.535062    1.993707
     15          6           0       -5.653254    0.109733    1.691037
     16          6           0       -5.705943   -0.909835    0.545653
     17          7           0       -7.099391   -1.159656    0.162734
     18          6           0       -4.955214   -0.351677   -0.674722
     19          6           0       -0.083105   -1.337931   -0.589586
     20          6           0       -0.016439   -2.805517   -0.853284
     21          7           0        1.050859   -0.570135   -0.359263
     22          6           0        2.387184   -1.068417   -0.445782
     23          6           0        3.172093   -0.804005   -1.561763
     24          7           0        4.431678   -1.247835   -1.689062
     25          6           0        4.955535   -1.983287   -0.719641
     26          8           0        6.207971   -2.453040   -0.799825
     27          6           0        6.955960   -2.115149   -1.977231
     28          6           0        4.221479   -2.310368    0.444003
     29          9           0        4.793686   -3.060783    1.395220
     30          6           0        2.931582   -1.851832    0.587891
     31          6           0        2.746447    1.846524    0.674608
     32          6           0        3.467333    3.007657    0.901939
     33          9           0        4.669869    2.928652    1.492150
     34          1           0        1.315626    5.310762   -0.335429
     35          1           0       -0.002265    3.237649   -0.755048
     36          1           0       -2.443362    1.251692    0.920096
     37          1           0       -3.964041    1.937267    0.356141
     38          1           0       -4.196186    1.336767    2.742957
     39          1           0       -3.650613   -0.310062    2.418628
     40          1           0       -6.249420    0.984027    1.394272
     41          1           0       -6.126004   -0.306446    2.591525
     42          1           0       -5.170448   -1.822290    0.867753
     43          1           0       -7.620043   -1.497758    0.971552
     44          1           0       -7.135619   -1.909245   -0.527887
     45          1           0       -5.478005    0.548192   -1.026056
     46          1           0       -4.922791   -1.081342   -1.484147
     47          1           0        0.378908   -3.360169    0.007101
     48          1           0       -1.020626   -3.159318   -1.083263
     49          1           0        0.634073   -3.025463   -1.708860
     50          1           0        2.777963   -0.207989   -2.381135
     51          1           0        7.929470   -2.585603   -1.837278
     52          1           0        6.465572   -2.504214   -2.873887
     53          1           0        7.062364   -1.030923   -2.071641
     54          1           0        2.365217   -2.088208    1.482401
     55          1           0        3.181363    0.911198    1.001441
 ---------------------------------------------------------------------

 SCF Done:  E(RB3LYP) =  -1568.28711758     A.U. after   15 cycles

 Excitation energies and oscillator strengths:

 Excited state symmetry could not be determined.
 Excited State   1:      Triplet-?Sym    2.8134 eV  440.69 nm  f=0.0000  <S**2>=2.000
     112 ->119        -0.14928
     113 ->122         0.12180
     115 ->119        -0.10801
     118 ->119         0.64232
 This state for optimization and/or second-order correction.
 Total Energy, E(TD-HF/TD-DFT) =  -1568.18372766
 Copying the excited state density for this state as the 1-particle RhoCI density.

 Excited state symmetry could not be determined.
 Excited State   2:      Triplet-?Sym    3.6436 eV  340.28 nm  f=0.0000  <S**2>=2.000
     107 ->120         0.18798
     109 ->120         0.13979
     114 ->120         0.36647
     114 ->121         0.47125
     115 ->120        -0.11454
     115 ->121        -0.14340

 Excited state symmetry could not be determined.
 Excited State   3:      Singlet-?Sym    3.9442 eV  314.35 nm  f=0.4826  <S**2>=0.000
     117 ->119        -0.13841
     118 ->119         0.65996
     118 ->120         0.18099

 Excited state symmetry could not be determined.
 Excited State   4:      Singlet-?Sym    3.9995 eV  310.00 nm  f=0.0210  <S**2>=0.000
     117 ->119         0.68429
     118 ->119         0.11414

 Alpha  occ. eigenvalues --  -24.73481 -24.72769 -19.20837 -19.10349 -14.41892
 Alpha  occ. eigenvalues --  -14.38088 -14.36260 -14.35675 -14.33323 -14.31298
 Alpha  occ. eigenvalues --  -10.31274 -10.30667 -10.29961 -10.28508 -10.27042
 Alpha  occ. eigenvalues --  -10.26800 -10.26611 -10.25590 -10.25263 -10.24422
 Alpha  occ. eigenvalues --  -10.24153 -10.23664 -10.22716 -10.22345 -10.22053
 Alpha  occ. eigenvalues --  -10.21938 -10.21285 -10.21271 -10.21159 -10.20444
 Alpha  occ. eigenvalues --  -10.19518 -10.18708 -10.18237  -1.24822  -1.24102
 Alpha  occ. eigenvalues --   -1.10308  -1.04268  -1.02261  -0.97253  -0.97045
 Alpha  occ. eigenvalues --   -0.93063  -0.91452  -0.88559  -0.88164  -0.83469
 Alpha  occ. eigenvalues --   -0.81618  -0.79373  -0.78448  -0.77870  -0.77363
 Alpha  occ. eigenvalues --   -0.74136  -0.73216  -0.71953  -0.69298  -0.67960
 Alpha  occ. eigenvalues --   -0.66738  -0.65710  -0.64821  -0.62415  -0.61787
 Alpha  occ. eigenvalues --   -0.60619  -0.59554  -0.57885  -0.56784  -0.56437
 Alpha  occ. eigenvalues --   -0.55853  -0.54051  -0.53316  -0.52607  -0.51493
 Alpha  occ. eigenvalues --   -0.50589  -0.49256  -0.48534  -0.48343  -0.47708
 Alpha  occ. eigenvalues --   -0.47557  -0.47466  -0.46988  -0.46597  -0.46553
 Alpha  occ. eigenvalues --   -0.46275  -0.45853  -0.44520  -0.43931  -0.43292
 Alpha  occ. eigenvalues --   -0.42609  -0.42041  -0.41826  -0.41594  -0.41397
 Alpha  occ. eigenvalues --   -0.41343  -0.40857  -0.40188  -0.39949  -0.38998
 Alpha  occ. eigenvalues --   -0.38742  -0.38180  -0.37408  -0.36924  -0.36486
 Alpha  occ. eigenvalues --   -0.36120  -0.35537  -0.34861  -0.34050  -0.33761
 Alpha  occ. eigenvalues --   -0.32065  -0.31482  -0.30642  -0.30614  -0.29077
 Alpha  occ. eigenvalues --   -0.28679  -0.28175  -0.26850  -0.25376  -0.24746
 Alpha  occ. eigenvalues --   -0.23763  -0.22892  -0.22240
 Alpha virt. eigenvalues --   -0.06470  -0.05174  -0.03404  -0.02122  -0.01106
 Alpha virt. eigenvalues --    0.01710   0.02370   0.06638   0.07122   0.07930
 Alpha virt. eigenvalues --    0.07976   0.09694   0.10105   0.10684   0.10895

 Mulliken charges:
               1
     1  C   -0.062782
     2  N   -0.312274
     3  C    0.227212
     4  C   -0.129160
     5  C   -0.176246
     6  C    0.132634
     7  C    0.416029
     8  N   -0.548362
     9  C    0.119788
    10  C    0.561843
    11  O   -0.549655
    12  N   -0.438275
    13  C   -0.160233
    14  C   -0.264862
    15  C   -0.269205
    16  C    0.034254
    17  N   -0.727700
    18  C   -0.143249
    19  C    0.326579
    20  C   -0.538944
    21  N   -0.619979
    22  C    0.189470
    23  C    0.048693
    24  N   -0.511213
    25  C    0.520802
    26  O   -0.475926
    27  C   -0.211203
    28  C    0.326224
    29  F   -0.270844
    30  C   -0.181650
    31  C   -0.265531
    32  C    0.380230
    33  F   -0.273098
    34  H    0.167353
    35  H    0.174019
    36  H    0.195075
    37  H    0.140922
    38  H    0.138654
    39  H    0.136029
    40  H    0.145056
    41  H    0.128002
    42  H    0.116957
    43  H    0.294684
    44  H    0.298638
    45  H    0.149818
    46  H    0.180825
    47  H    0.156632
    48  H    0.226304
    49  H    0.167780
    50  H    0.171229
    51  H    0.173654
    52  H    0.172175
    53  H    0.173893
    54  H    0.178264
    55  H    0.160670
 Sum of Mulliken charges =  -0.00000

 Dipole moment (field-independent basis, Debye):
    X=             -0.3002    Y=             -3.8725    Z=              0.2249  Tot=              3.8906
 Quadrupole moment (field-independent basis, Debye-Ang):
   XX=           -190.6317   YY=           -210.2355   ZZ=           -186.6610
   XY=            -22.5585   XZ=            -23.9526   YZ=             -7.9249

 Normal termination of Gaussian 16 at Sat Nov  5 11:43:38 2022.
