 Gaussian 16, Revision B.01,
 Gaussian 16:  ES64L-G16RevB.01 20-Dec-2017

 -----------------------------
 #p b3lyp/6-31g(d) opt SCF=XQC
 -----------------------------

 ------------------------------
 Gaussian input prepared by ASE
 ------------------------------
 Symbolic Z-matrix:
 Charge =  0 Multiplicity = 1

 SCF Done:  E(RB3LYP) =  -1073.90306702     A.U. after   15 cycles
 SCF Done:  E(RB3LYP) =  -1073.90856034     A.U. after   12 cycles
 SCF Done:  E(RB3LYP) =  -1073.90935659     A.U. after   12 cycles
 SCF Done:  E(RB3LYP) =  -1073.90992286     A.U. after   12 cycles
 SCF Done:  E(RB3LYP) =  -1073.91020257     A.U. after   10 cycles
 SCF Done:  E(RB3LYP) =  -1073.91024267     A.U. after   11 cycles
 SCF Done:  E(RB3LYP) =  -1073.91030419     A.U. after   10 cycles
 SCF Done:  E(RB3LYP) =  -1073.91033268     A.U. after   10 cycles
 SCF Done:  E(RB3LYP) =  -1073.91035712     A.U. after   10 cycles
 SCF Done:  E(RB3LYP) =  -1073.91037630     A.U. after   10 cycles
 SCF Done:  E(RB3LYP) =  -1073.91040851     A.U. after   10 cycles
 SCF Done:  E(RB3LYP) =  -1073.91042696     A.U. after   10 cycles
 SCF Done:  E(RB3LYP) =  -1073.91044405     A.U. after   10 cycles
 SCF Done:  E(RB3LYP) =  -1073.91045376     A.U. after    9 cycles
 SCF Done:  E(RB3LYP) =  -1073.91045894     A.U. after    9 cycles
 SCF Done:  E(RB3LYP) =  -1073.91046155     A.U. after    8 cycles
 SCF Done:  E(RB3LYP) =  -1073.91046358     A.U. after    9 cycles
 SCF Done:  E(RB3LYP) =  -1073.91046466     A.U. after    9 cycles
 SCF Done:  E(RB3LYP) =  -1073.91046513     A.U. after    8 cycles
 SCF Done:  E(RB3LYP) =  -1073.91046514     A.U. after    7 cycles
 Optimization completed.
    -- Stationary point found.

                         Standard orientation:
 ---------------------------------------------------------------------
 Center     Atomic      Atomic             Coordinates (Angstroms)
 Number     Number       Type             X           Y           Z
 ---------------------------------------------------------------------
      1          6           0        1.014420   -0.787398    2.271026
      2          6           0        0.538188   -1.346624    0.923692
      3          6           0        1.118833   -2.733218    0.613307
      4          7           0        0.721883   -0.394248   -0.204657
      5          6           0       -0.473836   -0.027857   -0.967656
      6          6           0       -1.361962    0.987914   -0.265106
      7          6           0       -0.797356    2.174335    0.225449
      8          6           0       -1.572840    3.129555    0.877747
      9          6           0       -2.941108    2.914745    1.058159
     10          6           0       -3.520569    1.747880    0.567916
     11          6           0       -2.741522    0.792583   -0.094562
     12          7           0       -3.404419   -0.364597   -0.647988
     13          6           0       -4.058336   -0.226097   -1.948539
     14          6           0       -3.508474   -1.501026    0.131292
     15          8           0       -2.918353   -1.667516    1.177335
     16          8           0       -4.315614   -2.485876   -0.360093
     17          6           0        1.910784    0.142137   -0.624722
     18          8           0        2.000145    0.983244   -1.514916
     19          8           0        2.965216   -0.368039    0.059192
     20          6           0        4.336000    0.093307   -0.213708
     21          6           0        4.731467   -0.249871   -1.654320
     22          6           0        4.462740    1.591665    0.083620
     23          6           0        5.167292   -0.723558    0.780190
     24          1           0        2.101769   -0.694198    2.313390
     25          1           0        0.568400    0.195119    2.457069
     26          1           0        0.692574   -1.460558    3.073620
     27          1           0       -0.547132   -1.453586    1.001930
     28          1           0        2.209231   -2.703054    0.545773
     29          1           0        0.838193   -3.437741    1.404482
     30          1           0        0.722867   -3.117458   -0.333801
     31          1           0       -0.129301    0.384120   -1.919116
     32          1           0       -1.042427   -0.937884   -1.177488
     33          1           0        0.264642    2.343548    0.074992
     34          1           0       -1.110168    4.041518    1.245337
     35          1           0       -3.551981    3.650231    1.574018
     36          1           0       -4.582393    1.559422    0.700907
     37          1           0       -5.148035   -0.090342   -1.867357
     38          1           0       -3.654104    0.656517   -2.446191
     39          1           0       -3.847479   -1.090189   -2.591377
     40          1           0       -4.841839   -2.181386   -1.115231
     41          1           0        5.789767   -0.011765   -1.811483
     42          1           0        4.593362   -1.320800   -1.840572
     43          1           0        4.131401    0.314070   -2.369359
     44          1           0        4.131056    1.805395    1.105926
     45          1           0        5.512428    1.895048   -0.002369
     46          1           0        3.866687    2.181642   -0.613629
     47          1           0        6.228768   -0.475993    0.673315
     48          1           0        5.043168   -1.796462    0.600541
     49          1           0        4.864813   -0.508644    1.810333
 ---------------------------------------------------------------------

 The electronic state is 1-A.
 Alpha  occ. eigenvalues --  -19.19446 -19.17056 -19.11636 -19.10443 -14.37926
 Alpha  occ. eigenvalues --  -14.35105 -10.33742 -10.31874 -10.25117 -10.24791
 Alpha  occ. eigenvalues --  -10.23296 -10.21821 -10.21198 -10.20183 -10.19709
 Alpha  occ. eigenvalues --  -10.19535 -10.19444 -10.19013 -10.17544 -10.16861
 Alpha  occ. eigenvalues --  -10.16772 -10.16305 -10.16041  -1.10323  -1.08388
 Alpha  occ. eigenvalues --   -1.01214  -0.99377  -0.95232  -0.92487  -0.85366
 Alpha  occ. eigenvalues --   -0.80280  -0.77748  -0.75679  -0.75235  -0.72507
 Alpha  occ. eigenvalues --   -0.69177  -0.68761  -0.68608  -0.67385  -0.63726
 Alpha  occ. eigenvalues --   -0.62486  -0.60710  -0.60108  -0.58247  -0.55785
 Alpha  occ. eigenvalues --   -0.51721  -0.50739  -0.49598  -0.49148  -0.48576
 Alpha  occ. eigenvalues --   -0.47833  -0.46307  -0.45545  -0.44843  -0.44514
 Alpha  occ. eigenvalues --   -0.43675  -0.43164  -0.43074  -0.42665  -0.42311
 Alpha  occ. eigenvalues --   -0.41945  -0.41353  -0.40404  -0.40225  -0.39816
 Alpha  occ. eigenvalues --   -0.39604  -0.38408  -0.37871  -0.37029  -0.36936
 Alpha  occ. eigenvalues --   -0.36284  -0.35850  -0.35634  -0.35323  -0.34218
 Alpha  occ. eigenvalues --   -0.34087  -0.33464  -0.33069  -0.31861  -0.31107
 Alpha  occ. eigenvalues --   -0.28103  -0.27459  -0.25949  -0.25846  -0.25413
 Alpha  occ. eigenvalues --   -0.24778  -0.22678
 Alpha virt. eigenvalues --   -0.01014  -0.00905   0.04398   0.04794   0.06023
 Alpha virt. eigenvalues --    0.07934   0.08932   0.10238   0.10564   0.11591
 Alpha virt. eigenvalues --    0.12720   0.12864   0.13253   0.13803   0.14420

 Mulliken charges:
               1
     1  C   -0.453425
     2  C    0.015170
     3  C   -0.445420
     4  N   -0.448988
     5  C   -0.243954
     6  C    0.178079
     7  C   -0.201396
     8  C   -0.116093
     9  C   -0.144011
    10  C   -0.125143
    11  C    0.188807
    12  N   -0.529580
    13  C   -0.358294
    14  C    0.738005
    15  O   -0.480590
    16  O   -0.592617
    17  C    0.826754
    18  O   -0.558960
    19  O   -0.529749
    20  C    0.321862
    21  C   -0.465512
    22  C   -0.467930
    23  C   -0.455387
    24  H    0.159074
    25  H    0.150655
    26  H    0.145585
    27  H    0.193934
    28  H    0.160040
    29  H    0.146279
    30  H    0.138764
    31  H    0.194962
    32  H    0.155631
    33  H    0.160491
    34  H    0.134867
    35  H    0.134843
    36  H    0.131105
    37  H    0.164133
    38  H    0.196632
    39  H    0.171951
    40  H    0.413049
    41  H    0.138359
    42  H    0.144702
    43  H    0.188705
    44  H    0.144898
    45  H    0.139546
    46  H    0.187348
    47  H    0.144238
    48  H    0.154123
    49  H    0.154459
 Sum of Mulliken charges =  -0.00000

 Dipole moment (field-independent basis, Debye):
    X=             -1.7742    Y=              1.3886    Z=             -2.3548  Tot=              3.2589
 Quadrupole moment (field-independent basis, Debye-Ang):
   XX=           -112.3111   YY=           -139.9660   ZZ=           -137.8088
   XY=             -7.6348   XZ=             17.7190   YZ=             10.4326

 Normal termination of Gaussian 16 at Fri Nov  4 19:07:19 2022.
