 Gaussian 16, Revision B.01,
 Gaussian 16:  ES64L-G16RevB.01 20-Dec-2017

 -------------------------------------------------------------------
 #p b3lyp/6-31g(d) 6D 10F nosymm GFInput td=(50-50,nstate=2) SCF=XQC
 -------------------------------------------------------------------

 ------------------------------
 Gaussian input prepared by ASE
 ------------------------------
 Symbolic Z-matrix:
 Charge =  0 Multiplicity = 1

                          Input orientation:
 ---------------------------------------------------------------------
 Center     Atomic      Atomic             Coordinates (Angstroms)
 Number     Number       Type             X           Y           Z
 ---------------------------------------------------------------------
      1          6           0       -0.352876    2.261774   -0.897053
      2          6           0        0.005491    0.849396   -1.378303
      3          6           0       -0.563655    0.528971   -2.767378
      4          7           0       -0.313580   -0.208470   -0.381785
      5          6           0        0.791573   -1.063796    0.057771
      6          6           0        1.715112   -0.400986    1.068658
      7          6           0        1.167994    0.198565    2.212432
      8          6           0        1.976272    0.819261    3.161504
      9          6           0        3.361060    0.857063    2.983228
     10          6           0        3.922441    0.257351    1.859447
     11          6           0        3.109630   -0.373128    0.910649
     12          7           0        3.747605   -1.043181   -0.197862
     13          6           0        4.267818   -2.392119    0.021148
     14          6           0        3.958634   -0.333688   -1.364764
     15          8           0        3.477919    0.754741   -1.598007
     16          8           0        4.741335   -0.947496   -2.299369
     17          6           0       -1.552205   -0.486077    0.134349
     18          8           0       -1.751158   -1.321620    1.011945
     19          8           0       -2.520472    0.270088   -0.440558
     20          6           0       -3.923639    0.152570   -0.011985
     21          6           0       -4.447601   -1.258503   -0.301577
     22          6           0       -4.062638    0.533236    1.466296
     23          6           0       -4.631205    1.180617   -0.900028
     24          1           0       -1.433126    2.412621   -0.841260
     25          1           0        0.081523    2.451814    0.089896
     26          1           0        0.064163    2.996121   -1.595408
     27          1           0        1.095836    0.817979   -1.453419
     28          1           0       -1.655867    0.567781   -2.769593
     29          1           0       -0.187846    1.254387   -3.497863
     30          1           0       -0.251104   -0.469293   -3.094831
     31          1           0        0.344775   -1.956683    0.501425
     32          1           0        1.362241   -1.371182   -0.822755
     33          1           0        0.092090    0.158977    2.353763
     34          1           0        1.526267    1.273435    4.040188
     35          1           0        3.998436    1.347191    3.713804
     36          1           0        4.997011    0.278655    1.699696
     37          1           0        5.356032   -2.409219    0.188375
     38          1           0        3.792627   -2.805204    0.912003
     39          1           0        4.019647   -3.053079   -0.819030
     40          1           0        5.182921   -1.733867   -1.943724
     41          1           0       -5.522401   -1.301761   -0.091036
     42          1           0       -4.298424   -1.509026   -1.357814
     43          1           0       -3.935894   -1.999457    0.313674
     44          1           0       -3.639200    1.528239    1.643704
     45          1           0       -5.123770    0.563092    1.739036
     46          1           0       -3.553920   -0.188379    2.106598
     47          1           0       -5.704538    1.188121   -0.682446
     48          1           0       -4.495241    0.937903   -1.958994
     49          1           0       -4.236094    2.186267   -0.722745
 ---------------------------------------------------------------------

 SCF Done:  E(RB3LYP) =  -1073.91046818     A.U. after   14 cycles

 Excitation energies and oscillator strengths:

 Excited state symmetry could not be determined.
 Excited State   1:      Triplet-?Sym    3.6896 eV  336.04 nm  f=0.0000  <S**2>=2.000
      83 -> 89        -0.12972
      84 -> 88        -0.25023
      85 -> 89         0.43410
      86 -> 88         0.39218
      87 -> 88         0.22526
      87 -> 89        -0.10545
 This state for optimization and/or second-order correction.
 Total Energy, E(TD-HF/TD-DFT) =  -1073.77487945
 Copying the excited state density for this state as the 1-particle RhoCI density.

 Excited state symmetry could not be determined.
 Excited State   2:      Triplet-?Sym    4.5920 eV  270.00 nm  f=0.0000  <S**2>=2.000
      83 -> 89         0.12533
      84 -> 88        -0.18004
      84 -> 89        -0.12169
      85 -> 88         0.16244
      85 -> 89        -0.32562
      86 -> 88         0.26747
      86 -> 89         0.28362
      87 -> 88         0.15928
      87 -> 89         0.35060

 Excited state symmetry could not be determined.
 Excited State   3:      Singlet-?Sym    5.0973 eV  243.23 nm  f=0.0219  <S**2>=0.000
      86 -> 89         0.10146
      87 -> 88         0.67814

 Excited state symmetry could not be determined.
 Excited State   4:      Singlet-?Sym    5.1514 eV  240.68 nm  f=0.0065  <S**2>=0.000
      85 -> 88        -0.18905
      87 -> 88        -0.12119
      87 -> 89         0.65515

 Alpha  occ. eigenvalues --  -19.19446 -19.17056 -19.11636 -19.10443 -14.37926
 Alpha  occ. eigenvalues --  -14.35105 -10.33742 -10.31874 -10.25117 -10.24791
 Alpha  occ. eigenvalues --  -10.23296 -10.21821 -10.21198 -10.20183 -10.19709
 Alpha  occ. eigenvalues --  -10.19535 -10.19444 -10.19013 -10.17544 -10.16861
 Alpha  occ. eigenvalues --  -10.16772 -10.16305 -10.16041  -1.10323  -1.08388
 Alpha  occ. eigenvalues --   -1.01214  -0.99377  -0.95232  -0.92487  -0.85366
 Alpha  occ. eigenvalues --   -0.80280  -0.77748  -0.75679  -0.75235  -0.72507
 Alpha  occ. eigenvalues --   -0.69177  -0.68761  -0.68608  -0.67385  -0.63726
 Alpha  occ. eigenvalues --   -0.62486  -0.60710  -0.60108  -0.58247  -0.55785
 Alpha  occ. eigenvalues --   -0.51721  -0.50739  -0.49598  -0.49148  -0.48576
 Alpha  occ. eigenvalues --   -0.47833  -0.46307  -0.45545  -0.44843  -0.44514
 Alpha  occ. eigenvalues --   -0.43675  -0.43164  -0.43074  -0.42665  -0.42311
 Alpha  occ. eigenvalues --   -0.41945  -0.41353  -0.40404  -0.40225  -0.39816
 Alpha  occ. eigenvalues --   -0.39604  -0.38408  -0.37871  -0.37029  -0.36936
 Alpha  occ. eigenvalues --   -0.36284  -0.35850  -0.35634  -0.35323  -0.34218
 Alpha  occ. eigenvalues --   -0.34087  -0.33464  -0.33069  -0.31861  -0.31107
 Alpha  occ. eigenvalues --   -0.28103  -0.27459  -0.25949  -0.25846  -0.25413
 Alpha  occ. eigenvalues --   -0.24778  -0.22678
 Alpha virt. eigenvalues --   -0.01014  -0.00905   0.04398   0.04794   0.06023
 Alpha virt. eigenvalues --    0.07935   0.08932   0.10238   0.10564   0.11591
 Alpha virt. eigenvalues --    0.12720   0.12864   0.13253   0.13803   0.14420

 Mulliken charges:
               1
     1  C   -0.453424
     2  C    0.015179
     3  C   -0.445422
     4  N   -0.448993
     5  C   -0.243943
     6  C    0.178083
     7  C   -0.201402
     8  C   -0.116095
     9  C   -0.144010
    10  C   -0.125146
    11  C    0.188808
    12  N   -0.529582
    13  C   -0.358294
    14  C    0.738021
    15  O   -0.480597
    16  O   -0.592619
    17  C    0.826721
    18  O   -0.558947
    19  O   -0.529737
    20  C    0.321862
    21  C   -0.465504
    22  C   -0.467938
    23  C   -0.455400
    24  H    0.159069
    25  H    0.150653
    26  H    0.145586
    27  H    0.193934
    28  H    0.160038
    29  H    0.146280
    30  H    0.138764
    31  H    0.194962
    32  H    0.155629
    33  H    0.160493
    34  H    0.134867
    35  H    0.134843
    36  H    0.131104
    37  H    0.164133
    38  H    0.196632
    39  H    0.171950
    40  H    0.413049
    41  H    0.138356
    42  H    0.144705
    43  H    0.188705
    44  H    0.144906
    45  H    0.139546
    46  H    0.187346
    47  H    0.144240
    48  H    0.154126
    49  H    0.154463
 Sum of Mulliken charges =  -0.00000

 Dipole moment (field-independent basis, Debye):
    X=              1.4973    Y=             -2.4436    Z=              1.5517  Tot=              3.2590
 Quadrupole moment (field-independent basis, Debye-Ang):
   XX=           -115.2449   YY=           -132.9966   ZZ=           -140.2567
   XY=            -20.7315   XZ=             10.9180   YZ=              8.6315

 Normal termination of Gaussian 16 at Sat Nov  5 11:34:39 2022.
