 Gaussian 16, Revision B.01,
 Gaussian 16:  ES64L-G16RevB.01 20-Dec-2017

 -----------------------------
 #p b3lyp/6-31g(d) opt SCF=XQC
 -----------------------------

 ------------------------------
 Gaussian input prepared by ASE
 ------------------------------
 Symbolic Z-matrix:
 Charge =  0 Multiplicity = 1

 SCF Done:  E(RB3LYP) =  -563.945935887     A.U. after   13 cycles
 SCF Done:  E(RB3LYP) =  -563.949383721     A.U. after   10 cycles
 SCF Done:  E(RB3LYP) =  -563.949655202     A.U. after   10 cycles
 SCF Done:  E(RB3LYP) =  -563.949696337     A.U. after    9 cycles
 SCF Done:  E(RB3LYP) =  -563.949700637     A.U. after    8 cycles
 SCF Done:  E(RB3LYP) =  -563.949702128     A.U. after    8 cycles
 SCF Done:  E(RB3LYP) =  -563.949702760     A.U. after    7 cycles
 SCF Done:  E(RB3LYP) =  -563.949702817     A.U. after    6 cycles
 SCF Done:  E(RB3LYP) =  -563.949702761     A.U. after    6 cycles
 Optimization completed.
    -- Stationary point found.

                         Standard orientation:
 ---------------------------------------------------------------------
 Center     Atomic      Atomic             Coordinates (Angstroms)
 Number     Number       Type             X           Y           Z
 ---------------------------------------------------------------------
      1          6           0       -3.238411    1.861858   -0.000569
      2          6           0       -3.192479    0.434984   -0.565743
      3          6           0       -3.290704   -0.619222    0.571241
      4          6           0       -1.844905   -0.955205    0.942618
      5          6           0       -1.114310   -1.944654    0.064379
      6          6           0       -0.918263   -0.462631   -0.162130
      7          6           0        0.441702    0.202810    0.055345
      8          6           0        1.188379   -0.214294    1.333706
      9          6           0        2.438390    0.672324    1.571811
     10          6           0        3.025661    1.251377    0.263820
     11          6           0        2.874414    0.286823   -0.919911
     12          7           0        3.729298   -0.893959   -0.699082
     13          6           0        1.361598   -0.011293   -1.176847
     14          6           0       -1.828820    0.144270   -1.250546
     15          1           0       -4.190265    2.056445    0.508232
     16          1           0       -2.433363    2.021557    0.728234
     17          1           0       -3.122561    2.609238   -0.794771
     18          1           0       -4.018516    0.320039   -1.279476
     19          1           0       -3.826897   -1.515688    0.232285
     20          1           0       -3.846978   -0.227642    1.430925
     21          1           0       -1.552654   -0.902817    1.987971
     22          1           0       -1.690887   -2.512055   -0.665699
     23          1           0       -0.302863   -2.510295    0.516662
     24          1           0        0.245879    1.283606    0.144314
     25          1           0        1.486945   -1.268732    1.248396
     26          1           0        0.527892   -0.157013    2.206095
     27          1           0        3.202752    0.090142    2.100232
     28          1           0        2.178604    1.502758    2.239741
     29          1           0        2.506442    2.184902    0.010943
     30          1           0        4.083143    1.500799    0.400266
     31          1           0        3.282398    0.775303   -1.813667
     32          1           0        3.645617   -1.523347   -1.497148
     33          1           0        3.392114   -1.424611    0.103235
     34          1           0        1.263623   -1.052634   -1.513676
     35          1           0        0.999202    0.611885   -2.005018
     36          1           0       -1.953668   -0.549130   -2.092453
     37          1           0       -1.394560    1.062120   -1.665076
 ---------------------------------------------------------------------

 The electronic state is 1-A.
 Alpha  occ. eigenvalues --  -14.30343 -10.20368 -10.18743 -10.18481 -10.18335
 Alpha  occ. eigenvalues --  -10.18119 -10.17813 -10.17743 -10.17659 -10.17555
 Alpha  occ. eigenvalues --  -10.17488 -10.17121 -10.17108 -10.17028  -0.88063
 Alpha  occ. eigenvalues --   -0.87262  -0.80345  -0.77638  -0.73823  -0.71514
 Alpha  occ. eigenvalues --   -0.69411  -0.67655  -0.61811  -0.60353  -0.58261
 Alpha  occ. eigenvalues --   -0.54597  -0.53667  -0.51665  -0.49728  -0.49318
 Alpha  occ. eigenvalues --   -0.46232  -0.44787  -0.44421  -0.42813  -0.42316
 Alpha  occ. eigenvalues --   -0.40717  -0.40465  -0.38875  -0.38203  -0.37673
 Alpha  occ. eigenvalues --   -0.37175  -0.36191  -0.35851  -0.35147  -0.33845
 Alpha  occ. eigenvalues --   -0.32341  -0.32033  -0.31725  -0.30545  -0.29808
 Alpha  occ. eigenvalues --   -0.29252  -0.26794  -0.25277  -0.22307
 Alpha virt. eigenvalues --    0.06803   0.08398   0.09617   0.10121   0.11124
 Alpha virt. eigenvalues --    0.12301   0.12529   0.13139   0.14100   0.14343
 Alpha virt. eigenvalues --    0.14987   0.15243   0.15702   0.16069   0.16935

 Mulliken charges:
               1
     1  C   -0.451291
     2  C   -0.069312
     3  C   -0.282060
     4  C   -0.143620
     5  C   -0.335224
     6  C    0.117434
     7  C   -0.105982
     8  C   -0.291829
     9  C   -0.280918
    10  C   -0.252098
    11  C    0.014119
    12  N   -0.717238
    13  C   -0.279364
    14  C   -0.310556
    15  H    0.140021
    16  H    0.146298
    17  H    0.139297
    18  H    0.117010
    19  H    0.133430
    20  H    0.134289
    21  H    0.134348
    22  H    0.137869
    23  H    0.142083
    24  H    0.119950
    25  H    0.123211
    26  H    0.137037
    27  H    0.139227
    28  H    0.135712
    29  H    0.129181
    30  H    0.145335
    31  H    0.126041
    32  H    0.290170
    33  H    0.294249
    34  H    0.124205
    35  H    0.129887
    36  H    0.133385
    37  H    0.135703
 Sum of Mulliken charges =  -0.00000

 Dipole moment (field-independent basis, Debye):
    X=             -1.2883    Y=             -0.2052    Z=             -0.1046  Tot=              1.3088
 Quadrupole moment (field-independent basis, Debye-Ang):
   XX=            -98.7737   YY=            -86.9224   ZZ=            -86.6335
   XY=             -1.1164   XZ=              0.6367   YZ=              0.6934

 Normal termination of Gaussian 16 at Fri Nov  4 18:41:15 2022.
