 Gaussian 16, Revision B.01,
 Gaussian 16:  ES64L-G16RevB.01 20-Dec-2017

 -------------------------------------------------------------------
 #p b3lyp/6-31g(d) 6D 10F nosymm GFInput td=(50-50,nstate=2) SCF=XQC
 -------------------------------------------------------------------

 ------------------------------
 Gaussian input prepared by ASE
 ------------------------------
 Symbolic Z-matrix:
 Charge =  0 Multiplicity = 1

                          Input orientation:
 ---------------------------------------------------------------------
 Center     Atomic      Atomic             Coordinates (Angstroms)
 Number     Number       Type             X           Y           Z
 ---------------------------------------------------------------------
      1          6           0       -3.278909    1.571856    0.606840
      2          6           0       -3.190636    0.245732   -0.161994
      3          6           0       -3.149268   -0.963127    0.813033
      4          6           0       -1.664339   -1.251224    1.043524
      5          6           0       -0.940930   -2.055323   -0.012027
      6          6           0       -0.846249   -0.546420   -0.031531
      7          6           0        0.485177    0.170640    0.198121
      8          6           0        1.341343   -0.372695    1.354614
      9          6           0        2.552025    0.552561    1.643511
     10          6           0        3.013076    1.348958    0.400846
     11          6           0        2.835609    0.553958   -0.899516
     12          7           0        3.769957   -0.586568   -0.905149
     13          6           0        1.328180    0.195095   -1.105372
     14          6           0       -1.863331    0.146533   -0.962903
     15          1           0       -4.202775    1.628500    1.195084
     16          1           0       -2.435740    1.679970    1.301201
     17          1           0       -3.261388    2.430276   -0.075481
     18          1           0       -4.056227    0.178285   -0.833684
     19          1           0       -3.655452   -1.836242    0.380028
     20          1           0       -3.666111   -0.735273    1.752602
     21          1           0       -1.303798   -1.328131    2.065783
     22          1           0       -1.533295   -2.550700   -0.780859
     23          1           0       -0.069023   -2.623989    0.303173
     24          1           0        0.234424    1.212444    0.455320
     25          1           0        1.693166   -1.382137    1.098669
     26          1           0        0.740734   -0.483763    2.264295
     27          1           0        3.383264   -0.046370    2.034327
     28          1           0        2.292044    1.260789    2.439792
     29          1           0        2.424970    2.272191    0.318535
     30          1           0        4.061451    1.646452    0.508107
     31          1           0        3.152005    1.190251   -1.735512
     32          1           0        3.667328   -1.100682   -1.779904
     33          1           0        3.520151   -1.246837   -0.169867
     34          1           0        1.266882   -0.792200   -1.583843
     35          1           0        0.874150    0.903783   -1.810472
     36          1           0       -2.006335   -0.427335   -1.887794
     37          1           0       -1.512130    1.140744   -1.264679
 ---------------------------------------------------------------------

 SCF Done:  E(RB3LYP) =  -563.949710901     A.U. after   12 cycles

 Excitation energies and oscillator strengths:

 Excited state symmetry could not be determined.
 Excited State   1:      Triplet-?Sym    6.4717 eV  191.58 nm  f=0.0000  <S**2>=2.000
      54 -> 55         0.61118
      54 -> 56        -0.27215
      54 -> 61        -0.10634
 This state for optimization and/or second-order correction.
 Total Energy, E(TD-HF/TD-DFT) =  -563.711881900
 Copying the excited state density for this state as the 1-particle RhoCI density.

 Excited state symmetry could not be determined.
 Excited State   2:      Singlet-?Sym    6.8665 eV  180.56 nm  f=0.0089  <S**2>=0.000
      54 -> 55         0.66227
      54 -> 56        -0.20795

 Excited state symmetry could not be determined.
 Excited State   3:      Triplet-?Sym    7.3687 eV  168.26 nm  f=0.0000  <S**2>=2.000
      54 -> 55         0.24792
      54 -> 56         0.56279
      54 -> 57         0.24410
      54 -> 58         0.14918

 Excited state symmetry could not be determined.
 Excited State   4:      Singlet-?Sym    7.5067 eV  165.17 nm  f=0.0064  <S**2>=0.000
      54 -> 55         0.19454
      54 -> 56         0.62543
      54 -> 57         0.17483
      54 -> 58         0.14437

 Alpha  occ. eigenvalues --  -14.30343 -10.20368 -10.18743 -10.18481 -10.18335
 Alpha  occ. eigenvalues --  -10.18119 -10.17813 -10.17743 -10.17659 -10.17555
 Alpha  occ. eigenvalues --  -10.17488 -10.17121 -10.17108 -10.17028  -0.88063
 Alpha  occ. eigenvalues --   -0.87262  -0.80345  -0.77638  -0.73823  -0.71514
 Alpha  occ. eigenvalues --   -0.69411  -0.67655  -0.61811  -0.60353  -0.58261
 Alpha  occ. eigenvalues --   -0.54597  -0.53667  -0.51665  -0.49728  -0.49318
 Alpha  occ. eigenvalues --   -0.46232  -0.44787  -0.44421  -0.42813  -0.42316
 Alpha  occ. eigenvalues --   -0.40717  -0.40465  -0.38876  -0.38203  -0.37673
 Alpha  occ. eigenvalues --   -0.37175  -0.36191  -0.35851  -0.35147  -0.33845
 Alpha  occ. eigenvalues --   -0.32341  -0.32033  -0.31725  -0.30545  -0.29808
 Alpha  occ. eigenvalues --   -0.29252  -0.26794  -0.25277  -0.22307
 Alpha virt. eigenvalues --    0.06803   0.08398   0.09617   0.10121   0.11124
 Alpha virt. eigenvalues --    0.12301   0.12529   0.13139   0.14100   0.14343
 Alpha virt. eigenvalues --    0.14987   0.15243   0.15702   0.16069   0.16935

 Mulliken charges:
               1
     1  C   -0.451302
     2  C   -0.069296
     3  C   -0.282059
     4  C   -0.143621
     5  C   -0.335227
     6  C    0.117413
     7  C   -0.105990
     8  C   -0.291828
     9  C   -0.280918
    10  C   -0.252103
    11  C    0.014130
    12  N   -0.717240
    13  C   -0.279377
    14  C   -0.310538
    15  H    0.140022
    16  H    0.146300
    17  H    0.139298
    18  H    0.117008
    19  H    0.133430
    20  H    0.134289
    21  H    0.134350
    22  H    0.137872
    23  H    0.142085
    24  H    0.119954
    25  H    0.123211
    26  H    0.137039
    27  H    0.139227
    28  H    0.135713
    29  H    0.129182
    30  H    0.145335
    31  H    0.126041
    32  H    0.290170
    33  H    0.294249
    34  H    0.124207
    35  H    0.129891
    36  H    0.133382
    37  H    0.135702
 Sum of Mulliken charges =  -0.00000

 Dipole moment (field-independent basis, Debye):
    X=             -1.2786    Y=             -0.2738    Z=             -0.0555  Tot=              1.3088
 Quadrupole moment (field-independent basis, Debye-Ang):
   XX=            -98.6022   YY=            -87.2941   ZZ=            -86.5561
   XY=             -1.8662   XZ=              0.9749   YZ=              0.7366

 Normal termination of Gaussian 16 at Sat Nov  5 11:26:36 2022.
