 Gaussian 16, Revision B.01,
 Gaussian 16:  ES64L-G16RevB.01 20-Dec-2017

 -------------------------------------------------------------------
 #p b3lyp/6-31g(d) 6D 10F nosymm GFInput td=(50-50,nstate=2) SCF=XQC
 -------------------------------------------------------------------

 ------------------------------
 Gaussian input prepared by ASE
 ------------------------------
 Symbolic Z-matrix:
 Charge =  0 Multiplicity = 1

                          Input orientation:
 ---------------------------------------------------------------------
 Center     Atomic      Atomic             Coordinates (Angstroms)
 Number     Number       Type             X           Y           Z
 ---------------------------------------------------------------------
      1          6           0       -3.110351   -2.351622   -0.796947
      2          6           0       -1.802366   -1.897024   -0.135497
      3         15           0       -1.263972   -0.172163   -0.629304
      4          6           0       -2.547237    0.819105    0.321952
      5          6           0       -2.290765    2.329937    0.267828
      6          7           0        0.157013   -0.041712    0.338818
      7          6           0        1.281389    0.810447   -0.044933
      8          6           0        2.642747    0.234848    0.392287
      9          6           0        2.928704   -1.117445   -0.270951
     10          6           0        3.760763    1.248086    0.109399
     11          1           0       -3.331579   -3.396250   -0.548601
     12          1           0       -3.965229   -1.750312   -0.467479
     13          1           0       -3.051587   -2.274895   -1.888935
     14          1           0       -0.980195   -2.557734   -0.435217
     15          1           0       -1.882894   -1.969789    0.959089
     16          1           0       -2.586135    0.475007    1.366748
     17          1           0       -3.527727    0.592991   -0.118608
     18          1           0       -1.327056    2.585731    0.723086
     19          1           0       -2.274615    2.693287   -0.766105
     20          1           0       -3.068223    2.884893    0.806340
     21          1           0        0.037815   -0.108171    1.347670
     22          1           0        1.262947    0.908183   -1.137657
     23          1           0        1.182837    1.831747    0.362309
     24          1           0        2.597753    0.078356    1.482533
     25          1           0        2.114100   -1.823303   -0.083714
     26          1           0        3.860839   -1.554356    0.106637
     27          1           0        3.030739   -1.002300   -1.358336
     28          1           0        3.576083    2.204934    0.612920
     29          1           0        4.731396    0.871128    0.451501
     30          1           0        3.844804    1.448398   -0.966831
 ---------------------------------------------------------------------

 SCF Done:  E(RB3LYP) =  -713.013361193     A.U. after   13 cycles

 Excitation energies and oscillator strengths:

 Excited state symmetry could not be determined.
 Excited State   1:      Triplet-?Sym    5.2807 eV  234.79 nm  f=0.0000  <S**2>=2.000
      44 -> 46         0.61432
      45 -> 46        -0.29705
 This state for optimization and/or second-order correction.
 Total Energy, E(TD-HF/TD-DFT) =  -712.819298633
 Copying the excited state density for this state as the 1-particle RhoCI density.

 Excited state symmetry could not be determined.
 Excited State   2:      Triplet-?Sym    5.7212 eV  216.71 nm  f=0.0000  <S**2>=2.000
      44 -> 47         0.58064
      44 -> 51         0.10673
      45 -> 46        -0.11533
      45 -> 47        -0.33512

 Excited state symmetry could not be determined.
 Excited State   3:      Singlet-?Sym    6.1503 eV  201.59 nm  f=0.0007  <S**2>=0.000
      44 -> 46         0.16322
      45 -> 46         0.68308

 Excited state symmetry could not be determined.
 Excited State   4:      Singlet-?Sym    6.5417 eV  189.53 nm  f=0.0857  <S**2>=0.000
      44 -> 46         0.65649
      45 -> 46        -0.16995
      45 -> 47         0.15650

 Alpha  occ. eigenvalues --  -77.08287 -14.31661 -10.20435 -10.18329 -10.17931
 Alpha  occ. eigenvalues --  -10.17894 -10.17692 -10.17586 -10.17065 -10.16302
 Alpha  occ. eigenvalues --   -6.54727  -4.71104  -4.70909  -4.70483  -0.88115
 Alpha  occ. eigenvalues --   -0.78713  -0.76249  -0.74615  -0.67525  -0.66767
 Alpha  occ. eigenvalues --   -0.62853  -0.60654  -0.56246  -0.53899  -0.46826
 Alpha  occ. eigenvalues --   -0.45733  -0.44805  -0.43954  -0.42941  -0.42327
 Alpha  occ. eigenvalues --   -0.42152  -0.38666  -0.37917  -0.37514  -0.36697
 Alpha  occ. eigenvalues --   -0.36455  -0.35447  -0.35227  -0.34238  -0.33005
 Alpha  occ. eigenvalues --   -0.32391  -0.31642  -0.30126  -0.22218  -0.21868
 Alpha virt. eigenvalues --    0.04952   0.06802   0.07947   0.09607   0.11210
 Alpha virt. eigenvalues --    0.12448   0.13109   0.13482   0.13924   0.14811
 Alpha virt. eigenvalues --    0.15652   0.16066   0.17047   0.17178   0.18102

 Mulliken charges:
               1
     1  C   -0.459210
     2  C   -0.435735
     3  P    0.533208
     4  C   -0.440908
     5  C   -0.450258
     6  N   -0.702147
     7  C   -0.111332
     8  C   -0.071686
     9  C   -0.437650
    10  C   -0.446099
    11  H    0.148093
    12  H    0.147760
    13  H    0.158047
    14  H    0.161657
    15  H    0.137964
    16  H    0.136898
    17  H    0.151398
    18  H    0.148413
    19  H    0.157085
    20  H    0.144555
    21  H    0.297936
    22  H    0.150622
    23  H    0.119039
    24  H    0.112969
    25  H    0.157048
    26  H    0.134478
    27  H    0.135735
    28  H    0.138238
    29  H    0.142805
    30  H    0.141078
 Sum of Mulliken charges =  -0.00000

 Dipole moment (field-independent basis, Debye):
    X=             -0.2902    Y=              0.1041    Z=              1.5665  Tot=              1.5966
 Quadrupole moment (field-independent basis, Debye-Ang):
   XX=            -71.6486   YY=            -73.1930   ZZ=            -73.9497
   XY=              1.0307   XZ=             -0.9351   YZ=              0.2262

 Normal termination of Gaussian 16 at Sat Nov  5 11:33:35 2022.
