 Gaussian 16, Revision B.01,
 Gaussian 16:  ES64L-G16RevB.01 20-Dec-2017

 -----------------------------
 #p b3lyp/6-31g(d) opt SCF=XQC
 -----------------------------

 ------------------------------
 Gaussian input prepared by ASE
 ------------------------------
 Symbolic Z-matrix:
 Charge =  0 Multiplicity = 1

 SCF Done:  E(RB3LYP) =  -713.003946430     A.U. after   13 cycles
 SCF Done:  E(RB3LYP) =  -713.007376342     A.U. after   12 cycles
 SCF Done:  E(RB3LYP) =  -713.007931134     A.U. after   10 cycles
 SCF Done:  E(RB3LYP) =  -713.008189130     A.U. after   11 cycles
 SCF Done:  E(RB3LYP) =  -713.008393691     A.U. after   10 cycles
 SCF Done:  E(RB3LYP) =  -713.008572935     A.U. after   10 cycles
 SCF Done:  E(RB3LYP) =  -713.008680474     A.U. after   11 cycles
 SCF Done:  E(RB3LYP) =  -713.008827140     A.U. after   10 cycles
 SCF Done:  E(RB3LYP) =  -713.009407212     A.U. after   11 cycles
 SCF Done:  E(RB3LYP) =  -712.993347836     A.U. after   12 cycles
 SCF Done:  E(RB3LYP) =  -713.012267138     A.U. after   13 cycles
 SCF Done:  E(RB3LYP) =  -713.012989548     A.U. after   12 cycles
 SCF Done:  E(RB3LYP) =  -713.013053059     A.U. after   11 cycles
 SCF Done:  E(RB3LYP) =  -713.013345044     A.U. after   10 cycles
 SCF Done:  E(RB3LYP) =  -713.013358405     A.U. after    9 cycles
 SCF Done:  E(RB3LYP) =  -713.013361972     A.U. after    9 cycles
 SCF Done:  E(RB3LYP) =  -713.013363211     A.U. after    8 cycles
 SCF Done:  E(RB3LYP) =  -713.013363721     A.U. after    8 cycles
 SCF Done:  E(RB3LYP) =  -713.013363786     A.U. after    7 cycles
 SCF Done:  E(RB3LYP) =  -713.013363803     A.U. after    6 cycles
 Optimization completed.
    -- Stationary point found.

                         Standard orientation:
 ---------------------------------------------------------------------
 Center     Atomic      Atomic             Coordinates (Angstroms)
 Number     Number       Type             X           Y           Z
 ---------------------------------------------------------------------
      1          6           0        3.365110    1.843208   -0.179352
      2          6           0        1.960788    1.519691    0.348109
      3         15           0        1.165255    0.037761   -0.476433
      4          6           0        2.199126   -1.323353    0.306348
      5          6           0        1.690849   -2.728383   -0.038424
      6          7           0       -0.313149   -0.007301    0.410002
      7          6           0       -1.541724   -0.559734   -0.158402
      8          6           0       -2.808047    0.162993    0.341458
      9          6           0       -2.816792    1.641761   -0.062918
     10          6           0       -4.064146   -0.564543   -0.158086
     11          1           0        3.746902    2.768729    0.267316
     12          1           0        4.082458    1.048455    0.054566
     13          1           0        3.360459    1.976597   -1.267454
     14          1           0        1.283992    2.360630    0.155489
     15          1           0        1.986002    1.378084    1.438619
     16          1           0        2.233010   -1.186109    1.397921
     17          1           0        3.228791   -1.201686   -0.056376
     18          1           0        0.671696   -2.884422    0.333606
     19          1           0        1.675367   -2.890297   -1.122327
     20          1           0        2.327337   -3.502094    0.407298
     21          1           0       -0.245788   -0.146498    1.416230
     22          1           0       -1.474022   -0.460423   -1.249040
     23          1           0       -1.644882   -1.638525    0.051793
     24          1           0       -2.803136    0.109528    1.442488
     25          1           0       -1.905995    2.143927    0.276420
     26          1           0       -3.681259    2.163888    0.364188
     27          1           0       -2.870866    1.744958   -1.154936
     28          1           0       -4.077398   -1.613879    0.161155
     29          1           0       -4.974606   -0.087059    0.221825
     30          1           0       -4.115826   -0.548952   -1.254693
 ---------------------------------------------------------------------

 The electronic state is 1-A.
 Alpha  occ. eigenvalues --  -77.08287 -14.31661 -10.20435 -10.18329 -10.17931
 Alpha  occ. eigenvalues --  -10.17894 -10.17692 -10.17586 -10.17065 -10.16302
 Alpha  occ. eigenvalues --   -6.54727  -4.71104  -4.70909  -4.70483  -0.88115
 Alpha  occ. eigenvalues --   -0.78713  -0.76249  -0.74615  -0.67525  -0.66767
 Alpha  occ. eigenvalues --   -0.62853  -0.60654  -0.56246  -0.53899  -0.46826
 Alpha  occ. eigenvalues --   -0.45733  -0.44805  -0.43954  -0.42941  -0.42327
 Alpha  occ. eigenvalues --   -0.42152  -0.38666  -0.37917  -0.37514  -0.36697
 Alpha  occ. eigenvalues --   -0.36455  -0.35447  -0.35227  -0.34238  -0.33005
 Alpha  occ. eigenvalues --   -0.32391  -0.31642  -0.30126  -0.22218  -0.21868
 Alpha virt. eigenvalues --    0.04952   0.06802   0.07947   0.09607   0.11210
 Alpha virt. eigenvalues --    0.12448   0.13109   0.13482   0.13924   0.14811
 Alpha virt. eigenvalues --    0.15652   0.16066   0.17047   0.17178   0.18103

 Mulliken charges:
               1
     1  C   -0.459213
     2  C   -0.435724
     3  P    0.533186
     4  C   -0.440902
     5  C   -0.450259
     6  N   -0.702149
     7  C   -0.111319
     8  C   -0.071689
     9  C   -0.437660
    10  C   -0.446095
    11  H    0.148094
    12  H    0.147762
    13  H    0.158049
    14  H    0.161658
    15  H    0.137966
    16  H    0.136899
    17  H    0.151398
    18  H    0.148412
    19  H    0.157084
    20  H    0.144555
    21  H    0.297936
    22  H    0.150618
    23  H    0.119037
    24  H    0.112969
    25  H    0.157050
    26  H    0.134479
    27  H    0.135738
    28  H    0.138237
    29  H    0.142805
    30  H    0.141077
 Sum of Mulliken charges =  -0.00000

 Dipole moment (field-independent basis, Debye):
    X=              0.1723    Y=             -0.4356    Z=              1.5263  Tot=              1.5966
 Quadrupole moment (field-independent basis, Debye-Ang):
   XX=            -71.5116   YY=            -73.3738   ZZ=            -73.7175
   XY=              0.5919   XZ=              0.9395   YZ=             -0.3125

 Normal termination of Gaussian 16 at Fri Nov  4 18:32:50 2022.
