 Gaussian 16, Revision B.01,
 Gaussian 16:  ES64L-G16RevB.01 20-Dec-2017

 -----------------------------
 #p b3lyp/6-31g(d) opt SCF=XQC
 -----------------------------

 ------------------------------
 Gaussian input prepared by ASE
 ------------------------------
 Symbolic Z-matrix:
 Charge =  0 Multiplicity = 1

 SCF Done:  E(RB3LYP) =  -1419.85937572     A.U. after   15 cycles
 SCF Done:  E(RB3LYP) =  -1419.86562831     A.U. after   14 cycles
 SCF Done:  E(RB3LYP) =  -1419.86675171     A.U. after   12 cycles
 SCF Done:  E(RB3LYP) =  -1419.86780884     A.U. after   13 cycles
 SCF Done:  E(RB3LYP) =  -1419.86840591     A.U. after   13 cycles
 SCF Done:  E(RB3LYP) =  -1419.86883723     A.U. after   12 cycles
 SCF Done:  E(RB3LYP) =  -1419.86897034     A.U. after   11 cycles
 SCF Done:  E(RB3LYP) =  -1419.86901108     A.U. after   11 cycles
 SCF Done:  E(RB3LYP) =  -1419.86902454     A.U. after   10 cycles
 SCF Done:  E(RB3LYP) =  -1419.86904133     A.U. after   10 cycles
 SCF Done:  E(RB3LYP) =  -1419.86904664     A.U. after    9 cycles
 SCF Done:  E(RB3LYP) =  -1419.86904814     A.U. after    9 cycles
 SCF Done:  E(RB3LYP) =  -1419.86904919     A.U. after    8 cycles
 SCF Done:  E(RB3LYP) =  -1419.86904974     A.U. after    7 cycles
 SCF Done:  E(RB3LYP) =  -1419.86905038     A.U. after    8 cycles
 SCF Done:  E(RB3LYP) =  -1419.86905055     A.U. after    7 cycles
 Optimization completed.
    -- Stationary point found.

                         Standard orientation:
 ---------------------------------------------------------------------
 Center     Atomic      Atomic             Coordinates (Angstroms)
 Number     Number       Type             X           Y           Z
 ---------------------------------------------------------------------
      1          6           0       -4.963456   -2.547104   -0.168334
      2          8           0       -3.837512   -2.261226    0.677774
      3          6           0       -2.758138   -1.736593    0.055776
      4          8           0       -2.722879   -1.524121   -1.139737
      5          6           0       -1.648544   -1.442039    1.057107
      6          6           0       -2.024654   -0.201214    1.936946
      7          6           0       -1.743849    1.174848    1.358426
      8          6           0       -0.978154    2.091479    2.082170
      9          6           0       -0.736217    3.373027    1.574226
     10          6           0       -1.231505    3.779103    0.337710
     11          6           0       -0.975205    5.154356   -0.222899
     12          6           0       -1.997274    2.845373   -0.394497
     13          8           0       -2.447214    3.287532   -1.606498
     14          6           0       -3.179056    2.386459   -2.426287
     15          6           0       -2.257425    1.570214    0.111264
     16          6           0       -0.272405   -1.326453    0.362994
     17          6           0        0.877316   -1.286393    1.413592
     18          6           0        2.246142   -0.992969    0.837742
     19          6           0        3.211733   -1.986734    0.707190
     20          6           0        4.469425   -1.687193    0.170536
     21          6           0        4.778468   -0.397226   -0.243799
     22          8           0        5.989162   -0.043932   -0.773665
     23          6           0        3.807767    0.623422   -0.115523
     24          8           0        4.195300    1.859904   -0.539654
     25          6           0        3.244310    2.909023   -0.475173
     26          6           0        2.562059    0.314311    0.424854
     27          6           0       -0.008854   -2.454176   -0.626638
     28          8           0        0.539712   -2.335210   -1.696171
     29          8           0       -0.414746   -3.654731   -0.129114
     30          6           0       -0.181104   -4.779309   -0.991011
     31          1           0       -4.684050   -3.256950   -0.950986
     32          1           0       -5.335953   -1.631720   -0.636487
     33          1           0       -5.720864   -2.976225    0.488126
     34          1           0       -1.633981   -2.301712    1.735785
     35          1           0       -3.088692   -0.295182    2.188400
     36          1           0       -1.489733   -0.289237    2.887835
     37          1           0       -0.574722    1.813587    3.052893
     38          1           0       -0.145190    4.075926    2.157483
     39          1           0       -0.362425    5.747152    0.463330
     40          1           0       -0.461253    5.102966   -1.190228
     41          1           0       -1.913101    5.694192   -0.400491
     42          1           0       -2.599886    1.482205   -2.650147
     43          1           0       -4.128177    2.096812   -1.956089
     44          1           0       -3.386025    2.927479   -3.351523
     45          1           0       -2.838699    0.869468   -0.473651
     46          1           0       -0.240127   -0.410237   -0.230643
     47          1           0        0.894061   -2.243427    1.949357
     48          1           0        0.628965   -0.514449    2.150141
     49          1           0        2.994846   -3.003612    1.024244
     50          1           0        5.220536   -2.469669    0.072556
     51          1           0        6.541576   -0.839602   -0.819480
     52          1           0        2.353766    2.685740   -1.077416
     53          1           0        3.745547    3.790073   -0.880591
     54          1           0        2.932658    3.112085    0.558413
     55          1           0        1.813968    1.092725    0.534166
     56          1           0        0.886519   -4.888397   -1.199356
     57          1           0       -0.714261   -4.652490   -1.937022
     58          1           0       -0.558164   -5.648493   -0.450339
 ---------------------------------------------------------------------

 The electronic state is 1-A.
 Alpha  occ. eigenvalues --  -19.19877 -19.18533 -19.17514 -19.16725 -19.16526
 Alpha  occ. eigenvalues --  -19.14250 -19.12345 -10.31830 -10.30161 -10.24656
 Alpha  occ. eigenvalues --  -10.24227 -10.23624 -10.23534 -10.23495 -10.23452
 Alpha  occ. eigenvalues --  -10.22906 -10.21178 -10.20079 -10.20048 -10.19642
 Alpha  occ. eigenvalues --  -10.19157 -10.19049 -10.18599 -10.18202 -10.18076
 Alpha  occ. eigenvalues --  -10.18071 -10.17976 -10.17780 -10.17514 -10.17486
 Alpha  occ. eigenvalues --   -1.10782  -1.09090  -1.06013  -1.05956  -1.03952
 Alpha  occ. eigenvalues --   -1.01896  -1.00265  -0.85652  -0.84440  -0.82620
 Alpha  occ. eigenvalues --   -0.78555  -0.76566  -0.74434  -0.74392  -0.73676
 Alpha  occ. eigenvalues --   -0.72669  -0.70728  -0.70005  -0.69065  -0.67552
 Alpha  occ. eigenvalues --   -0.64898  -0.62369  -0.60682  -0.59494  -0.57822
 Alpha  occ. eigenvalues --   -0.57274  -0.56583  -0.55228  -0.53538  -0.52232
 Alpha  occ. eigenvalues --   -0.51174  -0.50097  -0.49720  -0.49014  -0.48230
 Alpha  occ. eigenvalues --   -0.47923  -0.47420  -0.47227  -0.47049  -0.46431
 Alpha  occ. eigenvalues --   -0.45715  -0.45280  -0.44511  -0.44152  -0.43695
 Alpha  occ. eigenvalues --   -0.43107  -0.42725  -0.41960  -0.41816  -0.41296
 Alpha  occ. eigenvalues --   -0.41201  -0.40311  -0.39736  -0.39431  -0.39129
 Alpha  occ. eigenvalues --   -0.38770  -0.38333  -0.37625  -0.37175  -0.36164
 Alpha  occ. eigenvalues --   -0.36008  -0.35841  -0.35355  -0.35007  -0.34438
 Alpha  occ. eigenvalues --   -0.34168  -0.33958  -0.33620  -0.32749  -0.31686
 Alpha  occ. eigenvalues --   -0.31470  -0.31110  -0.30761  -0.30169  -0.29285
 Alpha  occ. eigenvalues --   -0.27485  -0.25758  -0.23881  -0.22483  -0.21331
 Alpha  occ. eigenvalues --   -0.19281
 Alpha virt. eigenvalues --   -0.00445   0.00749   0.01296   0.01626   0.01978
 Alpha virt. eigenvalues --    0.02879   0.07480   0.08123   0.09478   0.09981
 Alpha virt. eigenvalues --    0.10461   0.11196   0.11506   0.11857   0.12087

 Mulliken charges:
               1
     1  C   -0.219204
     2  O   -0.456185
     3  C    0.638217
     4  O   -0.497564
     5  C   -0.169207
     6  C   -0.386932
     7  C    0.167407
     8  C   -0.199020
     9  C   -0.194196
    10  C    0.126224
    11  C   -0.513750
    12  C    0.330536
    13  O   -0.512053
    14  C   -0.222530
    15  C   -0.265993
    16  C   -0.163399
    17  C   -0.385737
    18  C    0.179747
    19  C   -0.193437
    20  C   -0.194061
    21  C    0.303409
    22  O   -0.634154
    23  C    0.360001
    24  O   -0.502197
    25  C   -0.215871
    26  C   -0.270066
    27  C    0.640684
    28  O   -0.476364
    29  O   -0.469082
    30  C   -0.218436
    31  H    0.173778
    32  H    0.166761
    33  H    0.167254
    34  H    0.172141
    35  H    0.172096
    36  H    0.153890
    37  H    0.119378
    38  H    0.121693
    39  H    0.145320
    40  H    0.165049
    41  H    0.166376
    42  H    0.176435
    43  H    0.148590
    44  H    0.166780
    45  H    0.154065
    46  H    0.185352
    47  H    0.149622
    48  H    0.155843
    49  H    0.116327
    50  H    0.112869
    51  H    0.404859
    52  H    0.158371
    53  H    0.166414
    54  H    0.148488
    55  H    0.144856
    56  H    0.169776
    57  H    0.173391
    58  H    0.157437
 Sum of Mulliken charges =  -0.00000

 Dipole moment (field-independent basis, Debye):
    X=             -2.9912    Y=             -2.0694    Z=              1.8446  Tot=              4.0783
 Quadrupole moment (field-independent basis, Debye-Ang):
   XX=           -159.6882   YY=           -155.3729   ZZ=           -176.7649
   XY=             -1.9212   XZ=              5.1620   YZ=             -1.6976

 1\1\GINC-NODE90\FOpt\RB3LYP\6-31G(d)\C23H28O7\WYKGROUP\04-Nov-2022\0\\
 #p b3lyp/6-31g(d) opt SCF=XQC\\Gaussian input prepared by ASE\\0,1\C,3
 .3674339577,-3.9567922435,-1.719454321\O,2.5164661078,-2.8882709381,-2
 .1660975364\C,1.6699810416,-2.3892038759,-1.2378927501\O,1.6132557815,
 -2.8115425449,-0.100329601\C,0.8510941907,-1.2419665689,-1.8157292623\
 C,1.7500252444,0.0275403223,-2.0041365508\C,1.9678065798,0.9143039151,
 -0.7903382676\C,1.6788826357,2.2786430121,-0.8638869323\C,1.9024359886
 ,3.1127003157,0.2376018997\C,2.4040762369,2.6227064924,1.4406987244\C,

 Normal termination of Gaussian 16 at Fri Nov  4 19:02:24 2022.
