 Gaussian 16, Revision B.01,
 Gaussian 16:  ES64L-G16RevB.01 20-Dec-2017

 -------------------------------------------------------------------
 #p b3lyp/6-31g(d) 6D 10F nosymm GFInput td=(50-50,nstate=2) SCF=XQC
 -------------------------------------------------------------------

 ------------------------------
 Gaussian input prepared by ASE
 ------------------------------
 Symbolic Z-matrix:
 Charge =  0 Multiplicity = 1

                          Input orientation:
 ---------------------------------------------------------------------
 Center     Atomic      Atomic             Coordinates (Angstroms)
 Number     Number       Type             X           Y           Z
 ---------------------------------------------------------------------
      1          6           0        3.367434   -3.956792   -1.719454
      2          8           0        2.516466   -2.888271   -2.166098
      3          6           0        1.669981   -2.389204   -1.237893
      4          8           0        1.613256   -2.811543   -0.100330
      5          6           0        0.851094   -1.241967   -1.815729
      6          6           0        1.750025    0.027540   -2.004137
      7          6           0        1.967807    0.914304   -0.790338
      8          6           0        1.678883    2.278643   -0.863887
      9          6           0        1.902436    3.112700    0.237602
     10          6           0        2.404076    2.622706    1.440699
     11          6           0        2.645663    3.508701    2.635664
     12          6           0        2.685770    1.240753    1.513045
     13          8           0        3.161703    0.808143    2.718546
     14          6           0        3.416968   -0.579729    2.886571
     15          6           0        2.481218    0.403782    0.414345
     16          6           0       -0.431328   -0.987341   -0.991429
     17          6           0       -1.380245    0.001222   -1.732727
     18          6           0       -2.577363    0.451241   -0.922928
     19          6           0       -3.857425   -0.028888   -1.183498
     20          6           0       -4.946550    0.404139   -0.418117
     21          6           0       -4.773197    1.316873    0.615353
     22          8           0       -5.797917    1.777685    1.395710
     23          6           0       -3.478341    1.814911    0.890563
     24          8           0       -3.398513    2.710309    1.915671
     25          6           0       -2.116513    3.205822    2.262277
     26          6           0       -2.403572    1.380767    0.118724
     27          6           0       -1.193145   -2.265877   -0.666514
     28          8           0       -1.746527   -2.506221    0.379900
     29          8           0       -1.235842   -3.103211   -1.739204
     30          6           0       -1.957660   -4.326225   -1.526263
     31          1           0        2.769413   -4.799526   -1.363554
     32          1           0        4.019200   -3.617503   -0.909557
     33          1           0        3.957512   -4.243914   -2.590156
     34          1           0        0.568394   -1.565528   -2.823322
     35          1           0        2.714622   -0.316351   -2.398505
     36          1           0        1.308526    0.636676   -2.799190
     37          1           0        1.287306    2.700648   -1.786310
     38          1           0        1.679821    4.174574    0.157374
     39          1           0        2.369974    4.544627    2.415049
     40          1           0        2.067886    3.174012    3.505532
     41          1           0        3.699131    3.490301    2.939763
     42          1           0        2.518252   -1.181189    2.702775
     43          1           0        4.220282   -0.923309    2.221401
     44          1           0        3.732718   -0.700393    3.924523
     45          1           0        2.695542   -0.653607    0.498271
     46          1           0       -0.162520   -0.559452   -0.023157
     47          1           0       -1.714882   -0.469299   -2.665393
     48          1           0       -0.791065    0.880778   -2.014383
     49          1           0       -4.019503   -0.743229   -1.986648
     50          1           0       -5.945584    0.025087   -0.628561
     51          1           0       -6.614696    1.340429    1.109300
     52          1           0       -1.436452    2.396575    2.559358
     53          1           0       -2.275733    3.875940    3.109297
     54          1           0       -1.660788    3.767576    1.435592
     55          1           0       -1.407868    1.763477    0.317786
     56          1           0       -2.999526   -4.117636   -1.269100
     57          1           0       -1.502490   -4.902001   -0.715968
     58          1           0       -1.896115   -4.872740   -2.468343
 ---------------------------------------------------------------------

 SCF Done:  E(RB3LYP) =  -1419.86904565     A.U. after   15 cycles

 Excitation energies and oscillator strengths:

 Excited state symmetry could not be determined.
 Excited State   1:      Triplet-?Sym    3.5915 eV  345.21 nm  f=0.0000  <S**2>=2.000
     109 ->114         0.20498
     109 ->115        -0.28493
     111 ->114        -0.14988
     111 ->115         0.10486
     111 ->116         0.38143
     111 ->117         0.42389
 This state for optimization and/or second-order correction.
 Total Energy, E(TD-HF/TD-DFT) =  -1419.73705912
 Copying the excited state density for this state as the 1-particle RhoCI density.

 Excited state symmetry could not be determined.
 Excited State   2:      Triplet-?Sym    3.6446 eV  340.18 nm  f=0.0000  <S**2>=2.000
     108 ->112         0.32577
     108 ->113        -0.25070
     110 ->112         0.32214
     110 ->114        -0.38049
     110 ->115        -0.25827

 Excited state symmetry could not be determined.
 Excited State   3:      Singlet-?Sym    4.6700 eV  265.49 nm  f=0.0003  <S**2>=0.000
     111 ->112         0.70614

 Excited state symmetry could not be determined.
 Excited State   4:      Singlet-?Sym    4.9440 eV  250.78 nm  f=0.0319  <S**2>=0.000
     109 ->116        -0.19383
     109 ->117        -0.20751
     110 ->112         0.11869
     111 ->113        -0.26665
     111 ->114         0.41096
     111 ->115        -0.38817

 Alpha  occ. eigenvalues --  -19.19877 -19.18533 -19.17514 -19.16725 -19.16526
 Alpha  occ. eigenvalues --  -19.14250 -19.12344 -10.31830 -10.30161 -10.24656
 Alpha  occ. eigenvalues --  -10.24227 -10.23624 -10.23534 -10.23495 -10.23452
 Alpha  occ. eigenvalues --  -10.22906 -10.21178 -10.20079 -10.20048 -10.19642
 Alpha  occ. eigenvalues --  -10.19157 -10.19050 -10.18599 -10.18202 -10.18076
 Alpha  occ. eigenvalues --  -10.18071 -10.17976 -10.17780 -10.17513 -10.17486
 Alpha  occ. eigenvalues --   -1.10782  -1.09090  -1.06013  -1.05956  -1.03952
 Alpha  occ. eigenvalues --   -1.01896  -1.00265  -0.85652  -0.84440  -0.82620
 Alpha  occ. eigenvalues --   -0.78555  -0.76566  -0.74434  -0.74392  -0.73676
 Alpha  occ. eigenvalues --   -0.72669  -0.70728  -0.70005  -0.69065  -0.67552
 Alpha  occ. eigenvalues --   -0.64898  -0.62369  -0.60682  -0.59494  -0.57822
 Alpha  occ. eigenvalues --   -0.57274  -0.56583  -0.55228  -0.53538  -0.52232
 Alpha  occ. eigenvalues --   -0.51174  -0.50097  -0.49720  -0.49014  -0.48230
 Alpha  occ. eigenvalues --   -0.47923  -0.47420  -0.47227  -0.47049  -0.46431
 Alpha  occ. eigenvalues --   -0.45715  -0.45280  -0.44511  -0.44152  -0.43695
 Alpha  occ. eigenvalues --   -0.43107  -0.42725  -0.41960  -0.41816  -0.41296
 Alpha  occ. eigenvalues --   -0.41201  -0.40311  -0.39736  -0.39431  -0.39129
 Alpha  occ. eigenvalues --   -0.38770  -0.38333  -0.37625  -0.37175  -0.36164
 Alpha  occ. eigenvalues --   -0.36008  -0.35841  -0.35355  -0.35007  -0.34438
 Alpha  occ. eigenvalues --   -0.34168  -0.33958  -0.33620  -0.32749  -0.31686
 Alpha  occ. eigenvalues --   -0.31470  -0.31110  -0.30761  -0.30169  -0.29285
 Alpha  occ. eigenvalues --   -0.27485  -0.25758  -0.23881  -0.22483  -0.21331
 Alpha  occ. eigenvalues --   -0.19281
 Alpha virt. eigenvalues --   -0.00445   0.00749   0.01296   0.01626   0.01978
 Alpha virt. eigenvalues --    0.02879   0.07480   0.08123   0.09478   0.09981
 Alpha virt. eigenvalues --    0.10461   0.11195   0.11506   0.11857   0.12087

 Mulliken charges:
               1
     1  C   -0.219205
     2  O   -0.456183
     3  C    0.638216
     4  O   -0.497552
     5  C   -0.169265
     6  C   -0.386903
     7  C    0.167411
     8  C   -0.199021
     9  C   -0.194201
    10  C    0.126220
    11  C   -0.513747
    12  C    0.330537
    13  O   -0.512053
    14  C   -0.222528
    15  C   -0.265999
    16  C   -0.163366
    17  C   -0.385756
    18  C    0.179775
    19  C   -0.193445
    20  C   -0.194054
    21  C    0.303403
    22  O   -0.634153
    23  C    0.360005
    24  O   -0.502196
    25  C   -0.215876
    26  C   -0.270074
    27  C    0.640675
    28  O   -0.476350
    29  O   -0.469088
    30  C   -0.218434
    31  H    0.173779
    32  H    0.166763
    33  H    0.167254
    34  H    0.172145
    35  H    0.172095
    36  H    0.153889
    37  H    0.119378
    38  H    0.121693
    39  H    0.145320
    40  H    0.165051
    41  H    0.166376
    42  H    0.176439
    43  H    0.148584
    44  H    0.166780
    45  H    0.154061
    46  H    0.185350
    47  H    0.149623
    48  H    0.155843
    49  H    0.116323
    50  H    0.112869
    51  H    0.404859
    52  H    0.158372
    53  H    0.166413
    54  H    0.148491
    55  H    0.144852
    56  H    0.169777
    57  H    0.173392
    58  H    0.157437
 Sum of Mulliken charges =  -0.00000

 Dipole moment (field-independent basis, Debye):
    X=              2.1208    Y=             -1.8022    Z=             -2.9812  Tot=              4.0784
 Quadrupole moment (field-independent basis, Debye-Ang):
   XX=           -159.6622   YY=           -161.7718   ZZ=           -171.2103
   XY=             -0.7294   XZ=              8.1609   YZ=              7.9703

 Normal termination of Gaussian 16 at Sat Nov  5 11:42:19 2022.
