 Gaussian 16, Revision B.01,
 Gaussian 16:  ES64L-G16RevB.01 20-Dec-2017

 -------------------------------------------------------------------
 #p b3lyp/6-31g(d) 6D 10F nosymm GFInput td=(50-50,nstate=2) SCF=XQC
 -------------------------------------------------------------------

 ------------------------------
 Gaussian input prepared by ASE
 ------------------------------
 Symbolic Z-matrix:
 Charge =  0 Multiplicity = 1

                          Input orientation:
 ---------------------------------------------------------------------
 Center     Atomic      Atomic             Coordinates (Angstroms)
 Number     Number       Type             X           Y           Z
 ---------------------------------------------------------------------
      1          6           0        1.106097   -1.924822   -2.224778
      2          6           0        0.684641   -1.465178   -1.035211
      3          6           0        1.469605   -1.412296    0.203549
      4          6           0        0.985374   -0.733611    1.283471
      5          8           0       -0.153003    0.029789    1.086363
      6          6           0       -1.334020   -0.392334    1.796214
      7          6           0       -2.502599    0.372290    1.226562
      8          6           0       -3.038881    1.483998    1.882098
      9          6           0       -4.098916    2.160026    1.284506
     10          6           0       -4.597715    1.718975    0.058022
     11          6           0       -3.992006    0.591361   -0.525046
     12          7           0       -2.974928   -0.064360    0.051112
     13          6           0       -4.491532    0.038561   -1.844017
     14          6           0       -5.493162    0.982658   -2.544247
     15          7           0       -6.434610    1.663513   -1.658607
     16          6           0       -7.647703    0.982370   -1.194103
     17          6           0       -7.494251   -0.151745   -0.139308
     18          6           0       -8.813865   -0.954527   -0.031203
     19          8           0       -9.930228   -0.169989   -0.431337
     20          6           0       -9.912903    0.103337   -1.830089
     21          6           0       -8.498739    0.447587   -2.354903
     22          6           0       -5.725215    2.450341   -0.660771
     23          6           0        1.559352   -0.665853    2.653233
     24          6           0        1.412900    0.464442    3.366781
     25          6           0        2.211092   -1.887162    3.266819
     26          6           0        2.826558   -2.037468    0.221249
     27          6           0        3.001786   -3.396966   -0.063057
     28          6           0        4.298289   -3.915360   -0.024157
     29          6           0        5.371652   -3.091611    0.281634
     30          6           0        5.104784   -1.726927    0.546643
     31          7           0        6.108051   -0.842998    0.859593
     32          6           0        7.500635   -1.239908    1.060758
     33          6           0        8.206221    0.050318    1.506879
     34          6           0        7.071254    0.893923    2.103556
     35          6           0        7.407359    2.373306    2.236625
     36          8           0        8.479868    2.864169    1.997259
     37          8           0        6.392420    3.157044    2.709513
     38          6           0        5.834088    0.548422    1.220450
     39          6           0        5.623217    1.448786   -0.002802
     40          8           0        6.809303    1.496397   -0.770623
     41          6           0        6.695494    2.332925   -1.903814
     42          7           0        3.855621   -1.223439    0.511606
     43          1           0        0.438227   -1.925931   -3.081482
     44          1           0        2.110501   -2.302621   -2.390023
     45          1           0       -0.326879   -1.077523   -0.953940
     46          1           0       -1.485324   -1.466349    1.635749
     47          1           0       -1.219909   -0.202777    2.869727
     48          1           0       -2.634236    1.808062    2.836675
     49          1           0       -4.539784    3.028902    1.770201
     50          1           0       -4.942730   -0.945200   -1.660002
     51          1           0       -3.629326   -0.149932   -2.495750
     52          1           0       -6.044197    0.442025   -3.318691
     53          1           0       -4.925148    1.769393   -3.062246
     54          1           0       -8.242028    1.771222   -0.714821
     55          1           0       -7.225626    0.282533    0.830269
     56          1           0       -6.683703   -0.832428   -0.419492
     57          1           0       -9.014223   -1.262158    0.999037
     58          1           0       -8.761175   -1.870433   -0.643367
     59          1           0      -10.329553   -0.752681   -2.385897
     60          1           0      -10.591614    0.952056   -1.963290
     61          1           0       -8.562513    1.193716   -3.154403
     62          1           0       -8.029619   -0.446623   -2.785350
     63          1           0       -5.292427    3.333307   -1.161054
     64          1           0       -6.446478    2.837078    0.068693
     65          1           0        0.938243    1.343976    2.943285
     66          1           0        1.773404    0.536372    4.389611
     67          1           0        3.198504   -2.085417    2.841850
     68          1           0        2.329426   -1.749766    4.346505
     69          1           0        1.603458   -2.783877    3.099155
     70          1           0        2.148524   -4.022043   -0.300310
     71          1           0        4.471130   -4.968847   -0.230148
     72          1           0        6.382073   -3.482366    0.309768
     73          1           0        7.566704   -2.024689    1.830443
     74          1           0        7.937215   -1.644444    0.138679
     75          1           0        9.005875   -0.141558    2.226932
     76          1           0        8.630591    0.580572    0.653840
     77          1           0        6.847263    0.531487    3.118813
     78          1           0        5.600612    2.616507    2.869888
     79          1           0        4.899892    0.586976    1.794633
     80          1           0        5.340542    2.462168    0.330924
     81          1           0        4.785897    1.043704   -0.588639
     82          1           0        5.901329    1.986360   -2.583741
     83          1           0        7.654655    2.298637   -2.426455
     84          1           0        6.481042    3.374619   -1.618217
 ---------------------------------------------------------------------

 SCF Done:  E(RB3LYP) =  -1877.82911982     A.U. after   15 cycles

 Excitation energies and oscillator strengths:

 Excited state symmetry could not be determined.
 Excited State   1:      Triplet-?Sym    2.1871 eV  566.90 nm  f=0.0000  <S**2>=2.000
     152 ->155        -0.39769
     154 ->155         0.54714
 This state for optimization and/or second-order correction.
 Total Energy, E(TD-HF/TD-DFT) =  -1877.74874678
 Copying the excited state density for this state as the 1-particle RhoCI density.

 Excited state symmetry could not be determined.
 Excited State   2:      Triplet-?Sym    3.2243 eV  384.53 nm  f=0.0000  <S**2>=2.000
     152 ->155         0.40832
     154 ->155         0.35075
     154 ->157         0.24605
     154 ->158         0.24594
     154 ->159         0.18755

 Excited state symmetry could not be determined.
 Excited State   3:      Singlet-?Sym    3.6761 eV  337.27 nm  f=0.1010  <S**2>=0.000
     152 ->155         0.30550
     154 ->155         0.63024

 Excited state symmetry could not be determined.
 Excited State   4:      Singlet-?Sym    3.9487 eV  313.99 nm  f=0.0039  <S**2>=0.000
     152 ->156        -0.18286
     154 ->156         0.67613

 Alpha  occ. eigenvalues --  -19.19295 -19.16038 -19.14879 -19.14305 -19.13162
 Alpha  occ. eigenvalues --  -14.35354 -14.32717 -14.32569 -14.31512 -10.31586
 Alpha  occ. eigenvalues --  -10.25577 -10.23906 -10.23591 -10.23536 -10.23118
 Alpha  occ. eigenvalues --  -10.22993 -10.22832 -10.22814 -10.22667 -10.22463
 Alpha  occ. eigenvalues --  -10.22436 -10.22394 -10.22099 -10.21929 -10.21459
 Alpha  occ. eigenvalues --  -10.21328 -10.20775 -10.20245 -10.20153 -10.20097
 Alpha  occ. eigenvalues --  -10.19946 -10.18861 -10.18852 -10.18819 -10.18651
 Alpha  occ. eigenvalues --  -10.18633 -10.18076 -10.18024 -10.17962 -10.17938
 Alpha  occ. eigenvalues --  -10.17781 -10.16898  -1.09488  -1.04495  -1.03291
 Alpha  occ. eigenvalues --   -1.02839  -1.01455  -0.97553  -0.94623  -0.92564
 Alpha  occ. eigenvalues --   -0.91874  -0.82580  -0.81297  -0.80825  -0.80046
 Alpha  occ. eigenvalues --   -0.79560  -0.78658  -0.77788  -0.76779  -0.75882
 Alpha  occ. eigenvalues --   -0.75239  -0.73679  -0.72733  -0.70791  -0.69714
 Alpha  occ. eigenvalues --   -0.68430  -0.66452  -0.66167  -0.65401  -0.63761
 Alpha  occ. eigenvalues --   -0.63642  -0.62975  -0.62127  -0.61986  -0.60776
 Alpha  occ. eigenvalues --   -0.60516  -0.59156  -0.57510  -0.57066  -0.54697
 Alpha  occ. eigenvalues --   -0.54002  -0.53591  -0.52410  -0.51753  -0.51506
 Alpha  occ. eigenvalues --   -0.50454  -0.50069  -0.49795  -0.49489  -0.48925
 Alpha  occ. eigenvalues --   -0.48342  -0.47907  -0.47512  -0.47459  -0.47252
 Alpha  occ. eigenvalues --   -0.46096  -0.45487  -0.45078  -0.44821  -0.44520
 Alpha  occ. eigenvalues --   -0.44107  -0.43881  -0.43480  -0.43220  -0.42975
 Alpha  occ. eigenvalues --   -0.42362  -0.42095  -0.41794  -0.41763  -0.41489
 Alpha  occ. eigenvalues --   -0.41119  -0.40653  -0.40309  -0.40170  -0.39879
 Alpha  occ. eigenvalues --   -0.39766  -0.39391  -0.39230  -0.38844  -0.38711
 Alpha  occ. eigenvalues --   -0.38016  -0.37936  -0.37474  -0.37330  -0.36792
 Alpha  occ. eigenvalues --   -0.36523  -0.36153  -0.36014  -0.35932  -0.34984
 Alpha  occ. eigenvalues --   -0.34639  -0.34259  -0.34109  -0.33661  -0.32919
 Alpha  occ. eigenvalues --   -0.32681  -0.31297  -0.31261  -0.30159  -0.29778
 Alpha  occ. eigenvalues --   -0.29105  -0.28343  -0.27534  -0.26809  -0.26665
 Alpha  occ. eigenvalues --   -0.26497  -0.25770  -0.25330  -0.25160  -0.24704
 Alpha  occ. eigenvalues --   -0.24509  -0.20659  -0.20565  -0.19269
 Alpha virt. eigenvalues --   -0.04043  -0.03019  -0.01264  -0.01151   0.00898
 Alpha virt. eigenvalues --    0.01207   0.03963   0.04875   0.07026   0.08778
 Alpha virt. eigenvalues --    0.08812   0.09605   0.09859   0.10005   0.10082

 Mulliken charges:
               1
     1  C   -0.362426
     2  C   -0.098542
     3  C    0.035578
     4  C    0.244572
     5  O   -0.506297
     6  C   -0.086013
     7  C    0.283544
     8  C   -0.168851
     9  C   -0.152773
    10  C    0.123700
    11  C    0.256122
    12  N   -0.521272
    13  C   -0.334123
    14  C   -0.162513
    15  N   -0.391433
    16  C    0.064888
    17  C   -0.305532
    18  C   -0.033479
    19  O   -0.474352
    20  C   -0.018409
    21  C   -0.333798
    22  C   -0.226793
    23  C    0.175110
    24  C   -0.398032
    25  C   -0.521653
    26  C    0.188990
    27  C   -0.175495
    28  C   -0.107996
    29  C   -0.196968
    30  C    0.530426
    31  N   -0.502570
    32  C   -0.113472
    33  C   -0.294450
    34  C   -0.259490
    35  C    0.621871
    36  O   -0.439153
    37  O   -0.578595
    38  C    0.016091
    39  C   -0.017950
    40  O   -0.466555
    41  C   -0.191467
    42  N   -0.563701
    43  H    0.136493
    44  H    0.145187
    45  H    0.165080
    46  H    0.149596
    47  H    0.139879
    48  H    0.136561
    49  H    0.134570
    50  H    0.160443
    51  H    0.160759
    52  H    0.147480
    53  H    0.145755
    54  H    0.144538
    55  H    0.140794
    56  H    0.140801
    57  H    0.148125
    58  H    0.121404
    59  H    0.125080
    60  H    0.146673
    61  H    0.153886
    62  H    0.139018
    63  H    0.158991
    64  H    0.149708
    65  H    0.154873
    66  H    0.132027
    67  H    0.179617
    68  H    0.145621
    69  H    0.157388
    70  H    0.137570
    71  H    0.135968
    72  H    0.134733
    73  H    0.138986
    74  H    0.156061
    75  H    0.152688
    76  H    0.199660
    77  H    0.162745
    78  H    0.412020
    79  H    0.157934
    80  H    0.118819
    81  H    0.161700
    82  H    0.134439
    83  H    0.160059
    84  H    0.139531
 Sum of Mulliken charges =  -0.00000

 Dipole moment (field-independent basis, Debye):
    X=             -3.0318    Y=             -2.6424    Z=              0.4443  Tot=              4.0462
 Quadrupole moment (field-independent basis, Debye-Ang):
   XX=           -281.5699   YY=           -247.5891   ZZ=           -231.1471
   XY=            -33.4119   XZ=              1.3862   YZ=             -5.2339

 Normal termination of Gaussian 16 at Sat Nov  5 11:38:02 2022.
