 Gaussian 16, Revision B.01,
 Gaussian 16:  ES64L-G16RevB.01 20-Dec-2017

 -----------------------------
 #p b3lyp/6-31g(d) opt SCF=XQC
 -----------------------------

 ------------------------------
 Gaussian input prepared by ASE
 ------------------------------
 Symbolic Z-matrix:
 Charge =  0 Multiplicity = 1

 SCF Done:  E(RB3LYP) =  -1877.80116676     A.U. after   15 cycles
 SCF Done:  E(RB3LYP) =  -1877.81362906     A.U. after   13 cycles
 SCF Done:  E(RB3LYP) =  -1877.81636657     A.U. after   12 cycles
 SCF Done:  E(RB3LYP) =  -1877.81741772     A.U. after   12 cycles
 SCF Done:  E(RB3LYP) =  -1877.81824084     A.U. after   12 cycles
 SCF Done:  E(RB3LYP) =  -1877.81905118     A.U. after   12 cycles
 SCF Done:  E(RB3LYP) =  -1877.81967393     A.U. after   13 cycles
 SCF Done:  E(RB3LYP) =  -1877.82096853     A.U. after   12 cycles
 SCF Done:  E(RB3LYP) =  -1877.82175251     A.U. after   12 cycles
 SCF Done:  E(RB3LYP) =  -1877.82253183     A.U. after   12 cycles
 SCF Done:  E(RB3LYP) =  -1877.82910406     A.U. after   11 cycles
 SCF Done:  E(RB3LYP) =  -1877.82910419     A.U. after   10 cycles
 SCF Done:  E(RB3LYP) =  -1877.82910944     A.U. after   10 cycles
 SCF Done:  E(RB3LYP) =  -1877.82911017     A.U. after    8 cycles
 SCF Done:  E(RB3LYP) =  -1877.82911106     A.U. after    8 cycles
 SCF Done:  E(RB3LYP) =  -1877.82911192     A.U. after    7 cycles
 SCF Done:  E(RB3LYP) =  -1877.82911283     A.U. after    8 cycles
 SCF Done:  E(RB3LYP) =  -1877.82911338     A.U. after    7 cycles
 SCF Done:  E(RB3LYP) =  -1877.82911365     A.U. after    7 cycles
 SCF Done:  E(RB3LYP) =  -1877.82911378     A.U. after    6 cycles
 Optimization completed.
    -- Stationary point found.

                         Standard orientation:
 ---------------------------------------------------------------------
 Center     Atomic      Atomic             Coordinates (Angstroms)
 Number     Number       Type             X           Y           Z
 ---------------------------------------------------------------------
      1          6           0       -0.500286   -2.498548    2.149048
      2          6           0       -0.238135   -1.791208    1.037781
      3          6           0       -1.185503   -1.482926   -0.039692
      4          6           0       -0.841675   -0.584393   -1.007030
      5          8           0        0.328016    0.130777   -0.812380
      6          6           0        1.390979   -0.118025   -1.753169
      7          6           0        2.642070    0.519079   -1.202173
      8          6           0        3.104709    1.750512   -1.674148
      9          6           0        4.250412    2.294004   -1.099879
     10          6           0        4.904978    1.606256   -0.077071
     11          6           0        4.363262    0.374060    0.331099
     12          7           0        3.263462   -0.153738   -0.224099
     13          6           0        5.029097   -0.442599    1.419461
     14          6           0        6.136494    0.340251    2.158190
     15          7           0        6.959948    1.204038    1.315551
     16          6           0        8.083403    0.650131    0.552433
     17          6           0        7.763103   -0.234034   -0.687736
     18          6           0        9.038848   -0.981808   -1.146903
     19          8           0       10.215213   -0.289573   -0.748339
     20          6           0       10.396757   -0.321480    0.665003
     21          6           0        9.075812   -0.111589    1.442723
     22          6           0        6.135335    2.178604    0.616800
     23          6           0       -1.597925   -0.231465   -2.237403
     24          6           0       -1.528943    1.026570   -2.707253
     25          6           0       -2.352417   -1.300080   -3.000065
     26          6           0       -2.544086   -2.103593   -0.000978
     27          6           0       -2.705438   -3.494146    0.008961
     28          6           0       -4.004962   -4.005365    0.041486
     29          6           0       -5.093632   -3.146219    0.070551
     30          6           0       -4.838768   -1.753794    0.067620
     31          7           0       -5.857818   -0.833622    0.092812
     32          6           0       -7.272478   -1.192483    0.007648
     33          6           0       -8.007055    0.156045   -0.050901
     34          6           0       -6.948808    1.119062   -0.606378
     35          6           0       -7.270497    2.589252   -0.373343
     36          8           0       -8.289644    3.006787    0.111962
     37          8           0       -6.315195    3.466134   -0.805138
     38          6           0       -5.608637    0.605463    0.001889
     39          6           0       -5.212870    1.225885    1.347219
     40          8           0       -6.280314    1.096404    2.265051
     41          6           0       -5.994374    1.672719    3.523205
     42          7           0       -3.586952   -1.256790    0.034775
     43          1           0        0.279382   -2.675842    2.884355
     44          1           0       -1.479563   -2.913068    2.368268
     45          1           0        0.759986   -1.384923    0.900881
     46          1           0        1.541547   -1.199944   -1.847684
     47          1           0        1.133452    0.295267   -2.735133
     48          1           0        2.578608    2.266859   -2.472004
     49          1           0        4.637193    3.250981   -1.446010
     50          1           0        5.430832   -1.359743    0.969258
     51          1           0        4.261614   -0.774652    2.129669
     52          1           0        6.778346   -0.347703    2.715355
     53          1           0        5.661299    0.992413    2.905713
     54          1           0        8.621428    1.529116    0.174103
     55          1           0        7.371817    0.394559   -1.495574
     56          1           0        6.985623   -0.967019   -0.448826
     57          1           0        9.088773   -1.060264   -2.236640
     58          1           0        9.052980   -2.007808   -0.742517
     59          1           0       10.869042   -1.272191    0.962292
     60          1           0       11.104155    0.486033    0.880007
     61          1           0        9.264302    0.447178    2.365885
     62          1           0        8.652918   -1.081801    1.733964
     63          1           0        5.793514    2.929923    1.348849
     64          1           0        6.756469    2.719491   -0.106758
     65          1           0       -0.982880    1.800120   -2.176533
     66          1           0       -2.025795    1.311637   -3.630937
     67          1           0       -3.275403   -1.594505   -2.493808
     68          1           0       -2.616018   -0.936466   -3.998514
     69          1           0       -1.745455   -2.205718   -3.113405
     70          1           0       -1.840220   -4.146804   -0.013451
     71          1           0       -4.168665   -5.080232    0.040497
     72          1           0       -6.105842   -3.532155    0.100831
     73          1           0       -7.459891   -1.795400   -0.894587
     74          1           0       -7.585460   -1.789015    0.874062
     75          1           0       -8.902187    0.114298   -0.676787
     76          1           0       -8.298839    0.487555    0.946043
     77          1           0       -6.874505    0.984106   -1.696582
     78          1           0       -5.564078    2.980363   -1.185545
     79          1           0       -4.762147    0.775210   -0.675262
     80          1           0       -4.958856    2.289968    1.200845
     81          1           0       -4.310891    0.713525    1.710979
     82          1           0       -5.120961    1.196991    3.996425
     83          1           0       -6.872622    1.517895    4.154893
     84          1           0       -5.800701    2.753490    3.438903
 ---------------------------------------------------------------------

 The electronic state is 1-A.
 Alpha  occ. eigenvalues --  -19.19295 -19.16038 -19.14879 -19.14305 -19.13162
 Alpha  occ. eigenvalues --  -14.35354 -14.32717 -14.32569 -14.31512 -10.31586
 Alpha  occ. eigenvalues --  -10.25577 -10.23906 -10.23591 -10.23536 -10.23118
 Alpha  occ. eigenvalues --  -10.22993 -10.22832 -10.22814 -10.22667 -10.22463
 Alpha  occ. eigenvalues --  -10.22436 -10.22394 -10.22099 -10.21929 -10.21459
 Alpha  occ. eigenvalues --  -10.21328 -10.20775 -10.20245 -10.20152 -10.20097
 Alpha  occ. eigenvalues --  -10.19946 -10.18861 -10.18852 -10.18819 -10.18651
 Alpha  occ. eigenvalues --  -10.18633 -10.18076 -10.18024 -10.17962 -10.17938
 Alpha  occ. eigenvalues --  -10.17781 -10.16898  -1.09488  -1.04495  -1.03291
 Alpha  occ. eigenvalues --   -1.02839  -1.01455  -0.97553  -0.94623  -0.92564
 Alpha  occ. eigenvalues --   -0.91874  -0.82580  -0.81297  -0.80825  -0.80046
 Alpha  occ. eigenvalues --   -0.79560  -0.78658  -0.77788  -0.76779  -0.75882
 Alpha  occ. eigenvalues --   -0.75239  -0.73679  -0.72733  -0.70791  -0.69714
 Alpha  occ. eigenvalues --   -0.68430  -0.66452  -0.66167  -0.65401  -0.63761
 Alpha  occ. eigenvalues --   -0.63642  -0.62975  -0.62127  -0.61986  -0.60776
 Alpha  occ. eigenvalues --   -0.60516  -0.59157  -0.57511  -0.57066  -0.54697
 Alpha  occ. eigenvalues --   -0.54002  -0.53591  -0.52410  -0.51753  -0.51506
 Alpha  occ. eigenvalues --   -0.50454  -0.50069  -0.49795  -0.49489  -0.48925
 Alpha  occ. eigenvalues --   -0.48343  -0.47907  -0.47512  -0.47459  -0.47252
 Alpha  occ. eigenvalues --   -0.46096  -0.45487  -0.45078  -0.44821  -0.44520
 Alpha  occ. eigenvalues --   -0.44107  -0.43881  -0.43480  -0.43220  -0.42975
 Alpha  occ. eigenvalues --   -0.42362  -0.42095  -0.41794  -0.41763  -0.41489
 Alpha  occ. eigenvalues --   -0.41119  -0.40653  -0.40309  -0.40170  -0.39879
 Alpha  occ. eigenvalues --   -0.39766  -0.39391  -0.39230  -0.38845  -0.38711
 Alpha  occ. eigenvalues --   -0.38016  -0.37936  -0.37474  -0.37330  -0.36792
 Alpha  occ. eigenvalues --   -0.36523  -0.36153  -0.36014  -0.35932  -0.34984
 Alpha  occ. eigenvalues --   -0.34639  -0.34259  -0.34109  -0.33662  -0.32919
 Alpha  occ. eigenvalues --   -0.32681  -0.31297  -0.31261  -0.30159  -0.29778
 Alpha  occ. eigenvalues --   -0.29105  -0.28343  -0.27534  -0.26809  -0.26665
 Alpha  occ. eigenvalues --   -0.26497  -0.25770  -0.25330  -0.25160  -0.24704
 Alpha  occ. eigenvalues --   -0.24509  -0.20659  -0.20565  -0.19269
 Alpha virt. eigenvalues --   -0.04043  -0.03019  -0.01264  -0.01151   0.00898
 Alpha virt. eigenvalues --    0.01207   0.03963   0.04875   0.07026   0.08778
 Alpha virt. eigenvalues --    0.08812   0.09605   0.09859   0.10005   0.10082

 Mulliken charges:
               1
     1  C   -0.362424
     2  C   -0.098547
     3  C    0.035572
     4  C    0.244538
     5  O   -0.506301
     6  C   -0.086001
     7  C    0.283550
     8  C   -0.168854
     9  C   -0.152779
    10  C    0.123676
    11  C    0.256157
    12  N   -0.521278
    13  C   -0.334140
    14  C   -0.162475
    15  N   -0.391409
    16  C    0.064845
    17  C   -0.305527
    18  C   -0.033487
    19  O   -0.474347
    20  C   -0.018414
    21  C   -0.333780
    22  C   -0.226832
    23  C    0.175203
    24  C   -0.398053
    25  C   -0.521679
    26  C    0.189026
    27  C   -0.175506
    28  C   -0.107995
    29  C   -0.196985
    30  C    0.530468
    31  N   -0.502595
    32  C   -0.113454
    33  C   -0.294460
    34  C   -0.259497
    35  C    0.621900
    36  O   -0.439162
    37  O   -0.578600
    38  C    0.016124
    39  C   -0.017970
    40  O   -0.466556
    41  C   -0.191464
    42  N   -0.563746
    43  H    0.136493
    44  H    0.145185
    45  H    0.165083
    46  H    0.149594
    47  H    0.139878
    48  H    0.136560
    49  H    0.134571
    50  H    0.160445
    51  H    0.160759
    52  H    0.147472
    53  H    0.145751
    54  H    0.144543
    55  H    0.140797
    56  H    0.140803
    57  H    0.148126
    58  H    0.121405
    59  H    0.125080
    60  H    0.146674
    61  H    0.153884
    62  H    0.139019
    63  H    0.158997
    64  H    0.149716
    65  H    0.154873
    66  H    0.132025
    67  H    0.179615
    68  H    0.145622
    69  H    0.157388
    70  H    0.137569
    71  H    0.135969
    72  H    0.134735
    73  H    0.138985
    74  H    0.156060
    75  H    0.152687
    76  H    0.199662
    77  H    0.162742
    78  H    0.412020
    79  H    0.157924
    80  H    0.118822
    81  H    0.161701
    82  H    0.134437
    83  H    0.160058
    84  H    0.139530
 Sum of Mulliken charges =  -0.00000

 Dipole moment (field-independent basis, Debye):
    X=              2.8880    Y=             -2.4557    Z=             -1.4142  Tot=              4.0461
 Quadrupole moment (field-independent basis, Debye-Ang):
   XX=           -276.9827   YY=           -247.7239   ZZ=           -233.7851
   XY=             30.7127   XZ=             15.6574   YZ=             -3.4939

 Normal termination of Gaussian 16 at Fri Nov  4 20:36:38 2022.
