 Gaussian 16, Revision B.01,
 Gaussian 16:  ES64L-G16RevB.01 20-Dec-2017

 -----------------------------
 #p b3lyp/6-31g(d) opt SCF=XQC
 -----------------------------

 ------------------------------
 Gaussian input prepared by ASE
 ------------------------------
 Symbolic Z-matrix:
 Charge =  0 Multiplicity = 1

 SCF Done:  E(RB3LYP) =  -1353.08249783     A.U. after   14 cycles
 SCF Done:  E(RB3LYP) =  -1353.08821430     A.U. after   12 cycles
 SCF Done:  E(RB3LYP) =  -1353.08889012     A.U. after   11 cycles
 SCF Done:  E(RB3LYP) =  -1353.08899498     A.U. after   11 cycles
 SCF Done:  E(RB3LYP) =  -1353.08907772     A.U. after   11 cycles
 SCF Done:  E(RB3LYP) =  -1353.08909788     A.U. after    9 cycles
 SCF Done:  E(RB3LYP) =  -1353.08911740     A.U. after   10 cycles
 SCF Done:  E(RB3LYP) =  -1353.08912666     A.U. after   10 cycles
 SCF Done:  E(RB3LYP) =  -1353.08913654     A.U. after   10 cycles
 SCF Done:  E(RB3LYP) =  -1353.08914527     A.U. after    9 cycles
 SCF Done:  E(RB3LYP) =  -1353.09075022     A.U. after    9 cycles
 SCF Done:  E(RB3LYP) =  -1353.09075482     A.U. after    9 cycles
 SCF Done:  E(RB3LYP) =  -1353.09075628     A.U. after    8 cycles
 SCF Done:  E(RB3LYP) =  -1353.09075768     A.U. after    8 cycles
 SCF Done:  E(RB3LYP) =  -1353.09075842     A.U. after    8 cycles
 SCF Done:  E(RB3LYP) =  -1353.09075863     A.U. after    7 cycles
 SCF Done:  E(RB3LYP) =  -1353.09075873     A.U. after    7 cycles
 SCF Done:  E(RB3LYP) =  -1353.09075880     A.U. after    7 cycles
 SCF Done:  E(RB3LYP) =  -1353.09075884     A.U. after    6 cycles
 SCF Done:  E(RB3LYP) =  -1353.09075885     A.U. after    6 cycles
 Optimization completed.
    -- Stationary point found.

                         Standard orientation:
 ---------------------------------------------------------------------
 Center     Atomic      Atomic             Coordinates (Angstroms)
 Number     Number       Type             X           Y           Z
 ---------------------------------------------------------------------
      1          6           0        7.037292   -1.507684    0.269294
      2          8           0        6.526546   -0.262331   -0.169821
      3          6           0        5.170158   -0.080783   -0.184630
      4          6           0        4.723903    1.167771   -0.626860
      5          6           0        3.357673    1.426771   -0.669034
      6          6           0        2.405398    0.481384   -0.277737
      7          6           0        0.914837    0.768731   -0.361994
      8          7           0        0.606150    2.191801   -0.184786
      9          6           0        0.762743    2.627305    1.196772
     10          6           0       -0.655565    2.618316   -0.800741
     11          6           0       -1.946391    2.051347   -0.213356
     12          6           0       -2.583001    2.664752    0.872059
     13          6           0       -3.754409    2.155418    1.436283
     14          6           0       -4.328237    0.998797    0.910947
     15          6           0       -3.704404    0.381354   -0.165007
     16          8           0       -4.270247   -0.747399   -0.804890
     17          6           0       -4.182318   -1.941912   -0.156993
     18          9           0       -2.908446   -2.272514    0.123776
     19          9           0       -4.865606   -1.952605    1.001523
     20          9           0       -4.698156   -2.871700   -0.961636
     21          6           0       -2.533817    0.888831   -0.742131
     22          8           0       -1.974372    0.284818   -1.827241
     23          6           0        2.875318   -0.771126    0.156211
     24          8           0        1.912866   -1.681765    0.509764
     25          6           0        2.314496   -2.948214    0.998925
     26          6           0        4.247052   -1.057738    0.208923
     27          1           0        6.757872   -1.717639    1.310972
     28          1           0        8.124047   -1.428467    0.199289
     29          1           0        6.694878   -2.335139   -0.367351
     30          1           0        5.454203    1.911219   -0.928981
     31          1           0        2.997570    2.395397   -1.002461
     32          1           0        0.542332    0.470960   -1.349056
     33          1           0        0.380401    0.135267    0.364010
     34          1           0        0.616856    3.712265    1.260471
     35          1           0        0.060395    2.141995    1.898885
     36          1           0        1.780122    2.402547    1.530052
     37          1           0       -0.604627    2.369841   -1.864908
     38          1           0       -0.696112    3.711959   -0.721514
     39          1           0       -2.152572    3.578426    1.274217
     40          1           0       -4.224811    2.660921    2.273872
     41          1           0       -5.243891    0.580825    1.313255
     42          1           0       -2.542910   -0.464556   -2.074207
     43          1           0        2.921992   -2.858305    1.909727
     44          1           0        1.392738   -3.484457    1.233452
     45          1           0        2.878615   -3.514366    0.245308
     46          1           0        4.586998   -2.026440    0.547424
 ---------------------------------------------------------------------

 The electronic state is 1-A.
 Alpha  occ. eigenvalues --  -24.74495 -24.74250 -24.74195 -19.22405 -19.18817
 Alpha  occ. eigenvalues --  -19.17301 -19.17087 -14.31901 -10.49445 -10.26144
 Alpha  occ. eigenvalues --  -10.25979 -10.23976 -10.23935 -10.23840 -10.23788
 Alpha  occ. eigenvalues --  -10.20930 -10.20465 -10.19839 -10.19746 -10.19534
 Alpha  occ. eigenvalues --  -10.19507 -10.19124 -10.17821 -10.17393 -10.17330
 Alpha  occ. eigenvalues --  -10.16669  -1.33304  -1.23973  -1.23504  -1.11121
 Alpha  occ. eigenvalues --   -1.06757  -1.05858  -1.05606  -0.91277  -0.86229
 Alpha  occ. eigenvalues --   -0.83816  -0.78075  -0.76282  -0.75712  -0.73867
 Alpha  occ. eigenvalues --   -0.71356  -0.70485  -0.69784  -0.69666  -0.65955
 Alpha  occ. eigenvalues --   -0.65010  -0.62121  -0.61100  -0.60967  -0.60141
 Alpha  occ. eigenvalues --   -0.59059  -0.57914  -0.55694  -0.54585  -0.53434
 Alpha  occ. eigenvalues --   -0.50660  -0.50056  -0.49021  -0.47699  -0.47519
 Alpha  occ. eigenvalues --   -0.47392  -0.47017  -0.46677  -0.46194  -0.45907
 Alpha  occ. eigenvalues --   -0.45609  -0.45111  -0.44879  -0.44369  -0.44065
 Alpha  occ. eigenvalues --   -0.43152  -0.42441  -0.41667  -0.41542  -0.40987
 Alpha  occ. eigenvalues --   -0.40403  -0.40167  -0.39577  -0.38919  -0.38072
 Alpha  occ. eigenvalues --   -0.36817  -0.36433  -0.35574  -0.35511  -0.35259
 Alpha  occ. eigenvalues --   -0.35021  -0.34378  -0.33905  -0.33363  -0.32568
 Alpha  occ. eigenvalues --   -0.31916  -0.28508  -0.25538  -0.23091  -0.22710
 Alpha  occ. eigenvalues --   -0.20320  -0.19482
 Alpha virt. eigenvalues --   -0.01400   0.00156   0.01788   0.02547   0.06677
 Alpha virt. eigenvalues --    0.08963   0.09063   0.10993   0.11351   0.11569
 Alpha virt. eigenvalues --    0.13174   0.13398   0.14155   0.14870   0.15529

 Mulliken charges:
               1
     1  C   -0.210271
     2  O   -0.510847
     3  C    0.379968
     4  C   -0.179844
     5  C   -0.184408
     6  C    0.079080
     7  C   -0.195142
     8  N   -0.365767
     9  C   -0.309685
    10  C   -0.230079
    11  C    0.126497
    12  C   -0.181526
    13  C   -0.145058
    14  C   -0.156615
    15  C    0.263802
    16  O   -0.558608
    17  C    0.966349
    18  F   -0.260976
    19  F   -0.256839
    20  F   -0.247319
    21  C    0.276780
    22  O   -0.647835
    23  C    0.324022
    24  O   -0.513268
    25  C   -0.210899
    26  C   -0.279754
    27  H    0.147473
    28  H    0.167906
    29  H    0.147822
    30  H    0.128729
    31  H    0.142060
    32  H    0.170750
    33  H    0.143453
    34  H    0.137446
    35  H    0.128348
    36  H    0.162979
    37  H    0.168064
    38  H    0.143830
    39  H    0.132779
    40  H    0.136348
    41  H    0.151790
    42  H    0.422652
    43  H    0.149034
    44  H    0.169406
    45  H    0.148921
    46  H    0.128451
 Sum of Mulliken charges =  -0.00000

 Dipole moment (field-independent basis, Debye):
    X=             -0.0429    Y=             -1.5955    Z=              1.5570  Tot=              2.2297
 Quadrupole moment (field-independent basis, Debye-Ang):
   XX=           -141.8085   YY=           -136.6731   ZZ=           -147.0012
   XY=            -16.7425   XZ=              2.5300   YZ=              0.8887

 Normal termination of Gaussian 16 at Fri Nov  4 19:11:05 2022.
