 Gaussian 16, Revision B.01,
 Gaussian 16:  ES64L-G16RevB.01 20-Dec-2017

 -------------------------------------------------------------------
 #p b3lyp/6-31g(d) 6D 10F nosymm GFInput td=(50-50,nstate=2) SCF=XQC
 -------------------------------------------------------------------

 ------------------------------
 Gaussian input prepared by ASE
 ------------------------------
 Symbolic Z-matrix:
 Charge =  0 Multiplicity = 1

                          Input orientation:
 ---------------------------------------------------------------------
 Center     Atomic      Atomic             Coordinates (Angstroms)
 Number     Number       Type             X           Y           Z
 ---------------------------------------------------------------------
      1          6           0        6.534383    0.742968   -0.679060
      2          8           0        5.789904    1.046120    0.486461
      3          6           0        4.431011    0.887027    0.453794
      4          6           0        3.748871    1.200858    1.632688
      5          6           0        2.365160    1.063316    1.675943
      6          6           0        1.624152    0.614231    0.579164
      7          6           0        0.108911    0.501806    0.632498
      8          7           0       -0.385493    0.208420    1.982056
      9          6           0       -0.121016   -1.166609    2.384840
     10          6           0       -1.765339    0.642665    2.228422
     11          6           0       -2.870185   -0.062989    1.444792
     12          6           0       -3.447935   -1.250191    1.910000
     13          6           0       -4.447363   -1.921758    1.202818
     14          6           0       -4.902727   -1.404801   -0.008969
     15          6           0       -4.335684   -0.228287   -0.480517
     16          8           0       -4.802062    0.401583   -1.659274
     17          6           0       -4.453035   -0.162334   -2.848618
     18          9           0       -3.118572   -0.268341   -2.985909
     19          9           0       -4.973147   -1.392287   -3.009407
     20          9           0       -4.921439    0.625593   -3.817027
     21          6           0       -3.338430    0.456071    0.225186
     22          8           0       -2.837700    1.633139   -0.242847
     23          6           0        2.329027    0.311684   -0.599621
     24          8           0        1.567981   -0.103186   -1.662290
     25          6           0        2.215072   -0.467896   -2.867587
     26          6           0        3.723642    0.441009   -0.669659
     27          1           0        6.425268   -0.311228   -0.968909
     28          1           0        7.578821    0.938860   -0.428086
     29          1           0        6.242037    1.379506   -1.525582
     30          1           0        4.314113    1.546235    2.492075
     31          1           0        1.823567    1.295542    2.587991
     32          1           0       -0.337549    1.452031    0.317116
     33          1           0       -0.226721   -0.246296   -0.103488
     34          1           0       -0.419387   -1.308736    3.430428
     35          1           0       -0.646629   -1.919658    1.769674
     36          1           0        0.952773   -1.361569    2.309889
     37          1           0       -1.813990    1.717558    2.030880
     38          1           0       -1.959770    0.497354    3.298495
     39          1           0       -3.112276   -1.648602    2.864150
     40          1           0       -4.877601   -2.837200    1.596807
     41          1           0       -5.685910   -1.890238   -0.579889
     42          1           0       -3.313665    1.851792   -1.062259
     43          1           0        2.913465   -1.302451   -2.717713
     44          1           0        1.422281   -0.781087   -3.549929
     45          1           0        2.757053    0.379051   -3.309892
     46          1           0        4.246137    0.201328   -1.585127
 ---------------------------------------------------------------------

 SCF Done:  E(RB3LYP) =  -1353.09075266     A.U. after   14 cycles

 Excitation energies and oscillator strengths:

 Excited state symmetry could not be determined.
 Excited State   1:      Triplet-?Sym    3.6632 eV  338.46 nm  f=0.0000  <S**2>=2.000
      95 ->100        -0.33210
      96 ->101        -0.13840
      97 ->101         0.57889
 This state for optimization and/or second-order correction.
 Total Energy, E(TD-HF/TD-DFT) =  -1352.95613406
 Copying the excited state density for this state as the 1-particle RhoCI density.

 Excited state symmetry could not be determined.
 Excited State   2:      Triplet-?Sym    3.6725 eV  337.60 nm  f=0.0000  <S**2>=2.000
      93 -> 98        -0.42942
      94 -> 98        -0.14241
      94 -> 99         0.47323
      96 -> 98         0.15600
      96 -> 99        -0.13687

 Excited state symmetry could not be determined.
 Excited State   3:      Singlet-?Sym    4.3402 eV  285.67 nm  f=0.0439  <S**2>=0.000
      96 -> 98         0.57278
      97 -> 98         0.40921

 Excited state symmetry could not be determined.
 Excited State   4:      Singlet-?Sym    4.5217 eV  274.20 nm  f=0.0018  <S**2>=0.000
      96 -> 98        -0.40836
      97 -> 98         0.57567

 Alpha  occ. eigenvalues --  -24.74495 -24.74250 -24.74195 -19.22406 -19.18817
 Alpha  occ. eigenvalues --  -19.17301 -19.17087 -14.31901 -10.49445 -10.26144
 Alpha  occ. eigenvalues --  -10.25979 -10.23976 -10.23935 -10.23840 -10.23788
 Alpha  occ. eigenvalues --  -10.20930 -10.20465 -10.19839 -10.19746 -10.19534
 Alpha  occ. eigenvalues --  -10.19507 -10.19124 -10.17821 -10.17393 -10.17330
 Alpha  occ. eigenvalues --  -10.16669  -1.33304  -1.23974  -1.23504  -1.11121
 Alpha  occ. eigenvalues --   -1.06757  -1.05858  -1.05606  -0.91276  -0.86229
 Alpha  occ. eigenvalues --   -0.83816  -0.78076  -0.76282  -0.75712  -0.73867
 Alpha  occ. eigenvalues --   -0.71356  -0.70485  -0.69784  -0.69666  -0.65955
 Alpha  occ. eigenvalues --   -0.65010  -0.62121  -0.61101  -0.60967  -0.60141
 Alpha  occ. eigenvalues --   -0.59059  -0.57914  -0.55694  -0.54585  -0.53434
 Alpha  occ. eigenvalues --   -0.50660  -0.50056  -0.49021  -0.47699  -0.47519
 Alpha  occ. eigenvalues --   -0.47392  -0.47017  -0.46677  -0.46194  -0.45907
 Alpha  occ. eigenvalues --   -0.45609  -0.45111  -0.44879  -0.44369  -0.44065
 Alpha  occ. eigenvalues --   -0.43152  -0.42441  -0.41667  -0.41542  -0.40987
 Alpha  occ. eigenvalues --   -0.40403  -0.40167  -0.39577  -0.38919  -0.38072
 Alpha  occ. eigenvalues --   -0.36817  -0.36433  -0.35574  -0.35511  -0.35259
 Alpha  occ. eigenvalues --   -0.35021  -0.34378  -0.33905  -0.33363  -0.32568
 Alpha  occ. eigenvalues --   -0.31916  -0.28508  -0.25538  -0.23091  -0.22710
 Alpha  occ. eigenvalues --   -0.20320  -0.19482
 Alpha virt. eigenvalues --   -0.01400   0.00156   0.01788   0.02547   0.06677
 Alpha virt. eigenvalues --    0.08963   0.09063   0.10993   0.11351   0.11569
 Alpha virt. eigenvalues --    0.13174   0.13398   0.14155   0.14870   0.15529

 Mulliken charges:
               1
     1  C   -0.210268
     2  O   -0.510850
     3  C    0.379967
     4  C   -0.179845
     5  C   -0.184402
     6  C    0.079069
     7  C   -0.195161
     8  N   -0.365758
     9  C   -0.309669
    10  C   -0.230090
    11  C    0.126529
    12  C   -0.181530
    13  C   -0.145035
    14  C   -0.156634
    15  C    0.263796
    16  O   -0.558609
    17  C    0.966341
    18  F   -0.260976
    19  F   -0.256835
    20  F   -0.247315
    21  C    0.276771
    22  O   -0.647837
    23  C    0.324024
    24  O   -0.513267
    25  C   -0.210898
    26  C   -0.279741
    27  H    0.147473
    28  H    0.167906
    29  H    0.147821
    30  H    0.128730
    31  H    0.142057
    32  H    0.170751
    33  H    0.143455
    34  H    0.137442
    35  H    0.128343
    36  H    0.162975
    37  H    0.168065
    38  H    0.143831
    39  H    0.132777
    40  H    0.136345
    41  H    0.151791
    42  H    0.422651
    43  H    0.149034
    44  H    0.169406
    45  H    0.148922
    46  H    0.128449
 Sum of Mulliken charges =  -0.00000

 Dipole moment (field-independent basis, Debye):
    X=              0.3974    Y=             -1.4579    Z=             -1.6396  Tot=              2.2298
 Quadrupole moment (field-independent basis, Debye-Ang):
   XX=           -136.7277   YY=           -147.3914   ZZ=           -141.1558
   XY=              0.5847   XZ=            -15.5534   YZ=             -3.3062

 Normal termination of Gaussian 16 at Sat Nov  5 11:38:04 2022.
