 Gaussian 16, Revision B.01,
 Gaussian 16:  ES64L-G16RevB.01 20-Dec-2017

 -----------------------------
 #p b3lyp/6-31g(d) opt SCF=XQC
 -----------------------------

 ------------------------------
 Gaussian input prepared by ASE
 ------------------------------
 Symbolic Z-matrix:
 Charge =  0 Multiplicity = 1

 SCF Done:  E(RB3LYP) =  -842.833653191     A.U. after   16 cycles
 SCF Done:  E(RB3LYP) =  -842.836216604     A.U. after   15 cycles
 SCF Done:  E(RB3LYP) =  -842.836806371     A.U. after   16 cycles
 SCF Done:  E(RB3LYP) =  -842.839398782     A.U. after   14 cycles
 SCF Done:  E(RB3LYP) =  -842.840061270     A.U. after   15 cycles
 SCF Done:  E(RB3LYP) =  -842.840487700     A.U. after   13 cycles
 SCF Done:  E(RB3LYP) =  -842.840758403     A.U. after   12 cycles
 SCF Done:  E(RB3LYP) =  -842.840830645     A.U. after   11 cycles
 SCF Done:  E(RB3LYP) =  -842.840884508     A.U. after   11 cycles
 SCF Done:  E(RB3LYP) =  -842.840935675     A.U. after   11 cycles
 SCF Done:  E(RB3LYP) =  -842.840965976     A.U. after    9 cycles
 SCF Done:  E(RB3LYP) =  -842.840989740     A.U. after   10 cycles
 SCF Done:  E(RB3LYP) =  -842.840994764     A.U. after    9 cycles
 SCF Done:  E(RB3LYP) =  -842.841000197     A.U. after   10 cycles
 SCF Done:  E(RB3LYP) =  -842.841001690     A.U. after    9 cycles
 SCF Done:  E(RB3LYP) =  -842.841001792     A.U. after    8 cycles
 Optimization completed.
    -- Stationary point found.

                         Standard orientation:
 ---------------------------------------------------------------------
 Center     Atomic      Atomic             Coordinates (Angstroms)
 Number     Number       Type             X           Y           Z
 ---------------------------------------------------------------------
      1          6           0        1.194370    2.794116   -0.235151
      2          6           0        0.331777    1.585158   -0.430973
      3          8           0       -0.889240    1.787799    0.145992
      4          6           0       -1.840395    0.802438    0.112547
      5          6           0       -3.067502    1.086558    0.720391
      6          6           0       -4.058487    0.113944    0.706642
      7          6           0       -3.833275   -1.131151    0.094664
      8          6           0       -2.610961   -1.396796   -0.503087
      9          6           0       -1.593393   -0.428103   -0.504046
     10          6           0       -0.282506   -0.684995   -1.131666
     11          8           0       -0.018280   -1.756215   -1.682292
     12          6           0        0.680464    0.428741   -1.055304
     13          6           0        2.037864    0.204814   -1.686433
     14          6           0        3.186801   -0.116528   -0.704906
     15          6           0        2.893712   -1.280325    0.260877
     16          6           0        2.021274   -0.947538    1.453881
     17          8           0        1.144170   -1.645915    1.909202
     18          8           0        2.367445    0.236016    2.041167
     19          1           0        2.019668    2.816590   -0.948799
     20          1           0        0.597056    3.704185   -0.348301
     21          1           0        1.620757    2.792863    0.775557
     22          1           0       -3.218381    2.054617    1.187092
     23          1           0       -5.016174    0.321696    1.175836
     24          1           0       -4.616900   -1.883048    0.093929
     25          1           0       -2.399210   -2.347620   -0.981260
     26          1           0        1.920834   -0.637422   -2.374947
     27          1           0        2.330217    1.073627   -2.289389
     28          1           0        3.458085    0.771065   -0.123432
     29          1           0        4.069093   -0.378923   -1.301786
     30          1           0        3.843412   -1.642528    0.678921
     31          1           0        2.420365   -2.118615   -0.256544
     32          1           0        1.779959    0.318041    2.815957
 ---------------------------------------------------------------------

 The electronic state is 1-A.
 Alpha  occ. eigenvalues --  -19.22339 -19.19401 -19.13368 -19.11321 -10.31651
 Alpha  occ. eigenvalues --  -10.27595 -10.26574 -10.26090 -10.20598 -10.20221
 Alpha  occ. eigenvalues --  -10.20203 -10.19949 -10.19732 -10.19633 -10.19607
 Alpha  occ. eigenvalues --  -10.19582 -10.19307 -10.18875  -1.11401  -1.10000
 Alpha  occ. eigenvalues --   -1.01272  -1.00863  -0.86743  -0.83145  -0.79542
 Alpha  occ. eigenvalues --   -0.77743  -0.75738  -0.73121  -0.70615  -0.65300
 Alpha  occ. eigenvalues --   -0.63193  -0.61335  -0.59639  -0.58702  -0.55626
 Alpha  occ. eigenvalues --   -0.51567  -0.49858  -0.48767  -0.47920  -0.47520
 Alpha  occ. eigenvalues --   -0.46948  -0.45802  -0.44393  -0.43720  -0.43177
 Alpha  occ. eigenvalues --   -0.42203  -0.42055  -0.41539  -0.40774  -0.40028
 Alpha  occ. eigenvalues --   -0.39494  -0.38304  -0.37989  -0.37309  -0.35967
 Alpha  occ. eigenvalues --   -0.35457  -0.34654  -0.34291  -0.33284  -0.31355
 Alpha  occ. eigenvalues --   -0.26734  -0.26314  -0.25808  -0.23852  -0.22997
 Alpha virt. eigenvalues --   -0.04920  -0.01608   0.00501   0.01655   0.06461
 Alpha virt. eigenvalues --    0.08547   0.08789   0.09767   0.11900   0.12376
 Alpha virt. eigenvalues --    0.14398   0.14513   0.15779   0.16256   0.16667

 Mulliken charges:
               1
     1  C   -0.524473
     2  C    0.304065
     3  O   -0.527090
     4  C    0.292572
     5  C   -0.176091
     6  C   -0.129326
     7  C   -0.132436
     8  C   -0.170230
     9  C    0.076761
    10  C    0.399242
    11  O   -0.529608
    12  C    0.013830
    13  C   -0.349004
    14  C   -0.268509
    15  C   -0.350242
    16  C    0.576152
    17  O   -0.461507
    18  O   -0.575405
    19  H    0.173984
    20  H    0.175953
    21  H    0.188852
    22  H    0.145790
    23  H    0.140424
    24  H    0.139003
    25  H    0.168170
    26  H    0.181942
    27  H    0.141127
    28  H    0.157469
    29  H    0.141924
    30  H    0.171324
    31  H    0.199748
    32  H    0.405589
 Sum of Mulliken charges =  -0.00000

 Dipole moment (field-independent basis, Debye):
    X=              0.2416    Y=              3.8232    Z=              1.0803  Tot=              3.9802
 Quadrupole moment (field-independent basis, Debye-Ang):
   XX=            -87.4827   YY=           -104.3349   ZZ=           -104.3334
   XY=              1.7008   XZ=             -3.2309   YZ=              0.8375

 1\1\GINC-NODE86\FOpt\RB3LYP\6-31G(d)\C14H14O4\WYKGROUP\04-Nov-2022\0\\
 #p b3lyp/6-31g(d) opt SCF=XQC\\Gaussian input prepared by ASE\\0,1\C,0
 .5204139946,-2.6118807307,0.9727152275\C,0.6599995487,-1.31895738,0.22
 91718204\O,1.7521274336,-0.6372389324,0.6845319351\C,2.0659571598,0.59
 03322694,0.1636393821\C,3.2018948119,1.2241100166,0.6774093553\C,3.554
 3964805,2.4695167188,0.1744966545\C,2.7853037888,3.081369293,-0.830309
 4617\C,1.6619219275,2.4396355098,-1.3284197006\C,1.2860985522,1.178177
 4853,-0.8372038402\C,0.0943090893,0.473505961,-1.3484781887\O,-0.62531

 Normal termination of Gaussian 16 at Fri Nov  4 18:38:06 2022.
