 Gaussian 16, Revision B.01,
 Gaussian 16:  ES64L-G16RevB.01 20-Dec-2017

 -------------------------------------------------------------------
 #p b3lyp/6-31g(d) 6D 10F nosymm GFInput td=(50-50,nstate=2) SCF=XQC
 -------------------------------------------------------------------

 ------------------------------
 Gaussian input prepared by ASE
 ------------------------------
 Symbolic Z-matrix:
 Charge =  0 Multiplicity = 1

                          Input orientation:
 ---------------------------------------------------------------------
 Center     Atomic      Atomic             Coordinates (Angstroms)
 Number     Number       Type             X           Y           Z
 ---------------------------------------------------------------------
      1          6           0        0.520414   -2.611881    0.972715
      2          6           0        0.660000   -1.318957    0.229172
      3          8           0        1.752127   -0.637239    0.684532
      4          6           0        2.065957    0.590332    0.163639
      5          6           0        3.201895    1.224110    0.677409
      6          6           0        3.554396    2.469517    0.174497
      7          6           0        2.785304    3.081369   -0.830309
      8          6           0        1.661922    2.439636   -1.328420
      9          6           0        1.286099    1.178177   -0.837204
     10          6           0        0.094309    0.473506   -1.348478
     11          8           0       -0.625320    0.955089   -2.226389
     12          6           0       -0.168250   -0.842603   -0.738177
     13          6           0       -1.382657   -1.597535   -1.234457
     14          6           0       -2.622389   -1.549011   -0.313904
     15          6           0       -3.057465   -0.129101    0.095523
     16          6           0       -2.255741    0.514467    1.208272
     17          8           0       -1.905498    1.671898    1.253497
     18          8           0       -2.004146   -0.347323    2.237619
     19          1           0       -0.105576   -3.320899    0.428339
     20          1           0        1.505947   -3.057616    1.139623
     21          1           0        0.058831   -2.435229    1.952038
     22          1           0        3.780025    0.732669    1.453273
     23          1           0        4.434294    2.972943    0.565407
     24          1           0        3.071851    4.056809   -1.212181
     25          1           0        1.041638    2.882654   -2.100778
     26          1           0       -1.646425   -1.153995   -2.199241
     27          1           0       -1.131999   -2.649000   -1.422755
     28          1           0       -2.457149   -2.146683    0.588876
     29          1           0       -3.453516   -2.021571   -0.851930
     30          1           0       -4.093948   -0.166348    0.459111
     31          1           0       -3.030933    0.557062   -0.754764
     32          1           0       -1.534001    0.184755    2.906965
 ---------------------------------------------------------------------

 SCF Done:  E(RB3LYP) =  -842.840999500     A.U. after   16 cycles

 Excitation energies and oscillator strengths:

 Excited state symmetry could not be determined.
 Excited State   1:      Triplet-?Sym    3.1669 eV  391.50 nm  f=0.0000  <S**2>=2.000
      62 -> 66        -0.16087
      62 -> 67         0.10266
      65 -> 66         0.64072
      65 -> 67        -0.12755
      65 -> 68         0.11203
 This state for optimization and/or second-order correction.
 Total Energy, E(TD-HF/TD-DFT) =  -842.724616946
 Copying the excited state density for this state as the 1-particle RhoCI density.

 Excited state symmetry could not be determined.
 Excited State   2:      Triplet-?Sym    3.3722 eV  367.66 nm  f=0.0000  <S**2>=2.000
      64 -> 66         0.68490
      64 -> 68         0.10396

 Excited state symmetry could not be determined.
 Excited State   3:      Singlet-?Sym    3.7912 eV  327.03 nm  f=0.0001  <S**2>=0.000
      64 -> 66         0.69097

 Excited state symmetry could not be determined.
 Excited State   4:      Singlet-?Sym    4.4802 eV  276.74 nm  f=0.0704  <S**2>=0.000
      62 -> 66         0.10788
      63 -> 67         0.15196
      63 -> 68         0.11396
      65 -> 66         0.65619

 Alpha  occ. eigenvalues --  -19.22339 -19.19400 -19.13368 -19.11321 -10.31651
 Alpha  occ. eigenvalues --  -10.27595 -10.26574 -10.26090 -10.20598 -10.20221
 Alpha  occ. eigenvalues --  -10.20203 -10.19949 -10.19732 -10.19633 -10.19607
 Alpha  occ. eigenvalues --  -10.19582 -10.19307 -10.18875  -1.11401  -1.10000
 Alpha  occ. eigenvalues --   -1.01272  -1.00863  -0.86743  -0.83145  -0.79542
 Alpha  occ. eigenvalues --   -0.77743  -0.75738  -0.73121  -0.70615  -0.65300
 Alpha  occ. eigenvalues --   -0.63193  -0.61335  -0.59639  -0.58702  -0.55626
 Alpha  occ. eigenvalues --   -0.51567  -0.49858  -0.48767  -0.47920  -0.47520
 Alpha  occ. eigenvalues --   -0.46948  -0.45802  -0.44393  -0.43720  -0.43177
 Alpha  occ. eigenvalues --   -0.42203  -0.42055  -0.41539  -0.40774  -0.40028
 Alpha  occ. eigenvalues --   -0.39494  -0.38304  -0.37989  -0.37309  -0.35967
 Alpha  occ. eigenvalues --   -0.35457  -0.34654  -0.34291  -0.33284  -0.31355
 Alpha  occ. eigenvalues --   -0.26734  -0.26315  -0.25808  -0.23852  -0.22997
 Alpha virt. eigenvalues --   -0.04920  -0.01608   0.00501   0.01656   0.06461
 Alpha virt. eigenvalues --    0.08547   0.08789   0.09767   0.11900   0.12376
 Alpha virt. eigenvalues --    0.14398   0.14513   0.15779   0.16256   0.16666

 Mulliken charges:
               1
     1  C   -0.524472
     2  C    0.304013
     3  O   -0.527083
     4  C    0.292588
     5  C   -0.176088
     6  C   -0.129331
     7  C   -0.132431
     8  C   -0.170223
     9  C    0.076756
    10  C    0.399218
    11  O   -0.529604
    12  C    0.013863
    13  C   -0.348977
    14  C   -0.268526
    15  C   -0.350237
    16  C    0.576163
    17  O   -0.461504
    18  O   -0.575413
    19  H    0.173985
    20  H    0.175954
    21  H    0.188850
    22  H    0.145789
    23  H    0.140425
    24  H    0.139002
    25  H    0.168168
    26  H    0.181938
    27  H    0.141125
    28  H    0.157470
    29  H    0.141927
    30  H    0.171322
    31  H    0.199747
    32  H    0.405587
 Sum of Mulliken charges =  -0.00000

 Dipole moment (field-independent basis, Debye):
    X=              1.6401    Y=             -2.6577    Z=              2.4675  Tot=              3.9802
 Quadrupole moment (field-independent basis, Debye-Ang):
   XX=            -93.8014   YY=            -99.2445   ZZ=           -104.1484
   XY=              9.2270   XZ=              0.9187   YZ=             -0.0312

 Normal termination of Gaussian 16 at Sat Nov  5 11:33:09 2022.
