 Gaussian 16, Revision B.01,
 Gaussian 16:  ES64L-G16RevB.01 20-Dec-2017

 -------------------------------------------------------------------
 #p b3lyp/6-31g(d) 6D 10F nosymm GFInput td=(50-50,nstate=2) SCF=XQC
 -------------------------------------------------------------------

 ------------------------------
 Gaussian input prepared by ASE
 ------------------------------
 Symbolic Z-matrix:
 Charge =  0 Multiplicity = 1

                          Input orientation:
 ---------------------------------------------------------------------
 Center     Atomic      Atomic             Coordinates (Angstroms)
 Number     Number       Type             X           Y           Z
 ---------------------------------------------------------------------
      1          6           0        8.932239   -1.775272    1.346157
      2          6           0        7.835196   -1.005778    2.092064
      3          6           0        6.461861   -1.009651    1.398029
      4          6           0        6.429616   -0.270992    0.049884
      5          6           0        5.056989   -0.241966   -0.660223
      6          6           0        4.141770    0.953781   -0.328637
      7          6           0        3.589845    1.057022    1.106077
      8          6           0        2.716223   -0.116946    1.584129
      9          6           0        1.440202   -0.403806    0.774225
     10          8           0        0.761380   -1.541392    1.322823
     11          6           0        0.434941    0.750868    0.798765
     12          6           0       -0.904626    0.458068    0.102197
     13          6           0       -0.794730    0.206768   -1.406993
     14          6           0       -2.154432    0.000256   -2.114259
     15          6           0       -3.050174    1.228885   -2.116174
     16          6           0       -2.704011    2.292617   -2.964165
     17          6           0       -3.454066    3.464540   -3.021790
     18          6           0       -4.585287    3.593321   -2.215700
     19          6           0       -4.943289    2.545526   -1.371094
     20          6           0       -4.197105    1.358538   -1.303057
     21          6           0       -4.688355    0.249898   -0.389204
     22          6           0       -5.591573   -0.770257   -1.115590
     23          6           0       -6.056695   -1.947029   -0.244839
     24          6           0       -6.980672   -1.545814    0.908826
     25          6           0       -7.520938   -2.745546    1.679560
     26          8           0       -7.299264   -3.898020    1.408718
     27          8           0       -8.315842   -2.439771    2.745584
     28          1           0        8.636597   -2.818586    1.177414
     29          1           0        9.865370   -1.784012    1.921033
     30          1           0        9.154413   -1.331764    0.369238
     31          1           0        8.158187    0.033996    2.245980
     32          1           0        7.719926   -1.437910    3.095283
     33          1           0        6.142229   -2.051281    1.240932
     34          1           0        5.727464   -0.567564    2.082200
     35          1           0        7.154101   -0.747736   -0.622432
     36          1           0        6.787549    0.760341    0.190671
     37          1           0        4.529849   -1.188917   -0.474755
     38          1           0        5.230619   -0.213759   -1.744096
     39          1           0        3.300509    0.944632   -1.035225
     40          1           0        4.696544    1.877983   -0.545086
     41          1           0        4.422982    1.173963    1.810748
     42          1           0        3.013282    1.988308    1.182852
     43          1           0        2.414167    0.058165    2.625474
     44          1           0        3.321079   -1.036233    1.595070
     45          1           0        1.717147   -0.617485   -0.270964
     46          1           0        1.386542   -2.282780    1.324812
     47          1           0        0.900483    1.632716    0.338852
     48          1           0        0.241113    1.007182    1.849502
     49          1           0       -1.573745    1.311064    0.274657
     50          1           0       -1.365863   -0.412532    0.583343
     51          1           0       -0.269584    1.048247   -1.882101
     52          1           0       -0.182627   -0.685908   -1.589210
     53          1           0       -1.956259   -0.284949   -3.156065
     54          1           0       -2.662525   -0.856700   -1.660684
     55          1           0       -1.824310    2.190861   -3.597015
     56          1           0       -3.159353    4.268213   -3.691580
     57          1           0       -5.183372    4.500400   -2.243904
     58          1           0       -5.825211    2.644925   -0.740888
     59          1           0       -5.246562    0.706835    0.437631
     60          1           0       -3.846661   -0.279940    0.071488
     61          1           0       -5.047490   -1.171910   -1.979760
     62          1           0       -6.463127   -0.243241   -1.529383
     63          1           0       -5.188179   -2.477782    0.164793
     64          1           0       -6.584965   -2.676540   -0.868581
     65          1           0       -7.839304   -0.970067    0.529676
     66          1           0       -6.465115   -0.886115    1.621049
     67          1           0       -8.395099   -1.475413    2.833719
 ---------------------------------------------------------------------

 SCF Done:  E(RB3LYP) =  -1164.33814149     A.U. after   14 cycles

 Excitation energies and oscillator strengths:

 Excited state symmetry could not be determined.
 Excited State   1:      Triplet-?Sym    3.6898 eV  336.02 nm  f=0.0000  <S**2>=2.000
     103 ->105         0.37441
     103 ->106         0.29858
     104 ->105        -0.34754
     104 ->106         0.38094
 This state for optimization and/or second-order correction.
 Total Energy, E(TD-HF/TD-DFT) =  -1164.20254375
 Copying the excited state density for this state as the 1-particle RhoCI density.

 Excited state symmetry could not be determined.
 Excited State   2:      Triplet-?Sym    4.5921 eV  270.00 nm  f=0.0000  <S**2>=2.000
     103 ->105        -0.12082
     103 ->106         0.34586
     104 ->105         0.51306
     104 ->106         0.31271

 Excited state symmetry could not be determined.
 Excited State   3:      Singlet-?Sym    5.3062 eV  233.66 nm  f=0.0020  <S**2>=0.000
     103 ->105         0.30799
     103 ->106        -0.35336
     104 ->105         0.41049
     104 ->106         0.33016

 Excited state symmetry could not be determined.
 Excited State   4:      Singlet-?Sym    5.7551 eV  215.43 nm  f=0.0007  <S**2>=0.000
     101 ->107        -0.69960

 Alpha  occ. eigenvalues --  -19.19296 -19.13770 -19.13233 -10.31720 -10.22877
 Alpha  occ. eigenvalues --  -10.21030 -10.19139 -10.19032 -10.18866 -10.18747
 Alpha  occ. eigenvalues --  -10.18722 -10.18432 -10.18382 -10.18349 -10.18325
 Alpha  occ. eigenvalues --  -10.18221 -10.18194 -10.18098 -10.18069 -10.18008
 Alpha  occ. eigenvalues --  -10.17923 -10.17855 -10.17850 -10.17826 -10.17548
 Alpha  occ. eigenvalues --  -10.17285 -10.17088  -1.09566  -1.01533  -1.01013
 Alpha  occ. eigenvalues --   -0.85509  -0.81187  -0.81136  -0.79958  -0.78741
 Alpha  occ. eigenvalues --   -0.77151  -0.76447  -0.74639  -0.72477  -0.71759
 Alpha  occ. eigenvalues --   -0.69993  -0.67257  -0.66333  -0.64366  -0.62186
 Alpha  occ. eigenvalues --   -0.61344  -0.60302  -0.59197  -0.58143  -0.57065
 Alpha  occ. eigenvalues --   -0.56456  -0.55593  -0.54670  -0.51832  -0.51096
 Alpha  occ. eigenvalues --   -0.49941  -0.48265  -0.47596  -0.47334  -0.45892
 Alpha  occ. eigenvalues --   -0.45324  -0.44957  -0.44709  -0.44402  -0.43913
 Alpha  occ. eigenvalues --   -0.43157  -0.42665  -0.42115  -0.41830  -0.41605
 Alpha  occ. eigenvalues --   -0.41343  -0.40828  -0.40359  -0.39603  -0.39147
 Alpha  occ. eigenvalues --   -0.38829  -0.38582  -0.37557  -0.37424  -0.37107
 Alpha  occ. eigenvalues --   -0.36408  -0.36345  -0.35573  -0.35101  -0.34794
 Alpha  occ. eigenvalues --   -0.34413  -0.34400  -0.33504  -0.33377  -0.32993
 Alpha  occ. eigenvalues --   -0.32504  -0.32360  -0.32251  -0.31774  -0.31381
 Alpha  occ. eigenvalues --   -0.31267  -0.31113  -0.30609  -0.30288  -0.30033
 Alpha  occ. eigenvalues --   -0.26936  -0.25825  -0.23974  -0.23260
 Alpha virt. eigenvalues --    0.00191   0.00394   0.01335   0.05330   0.06557
 Alpha virt. eigenvalues --    0.07615   0.08135   0.09199   0.09784   0.10114
 Alpha virt. eigenvalues --    0.10663   0.10996   0.11357   0.11757   0.12073

 Mulliken charges:
               1
     1  C   -0.443606
     2  C   -0.249509
     3  C   -0.258612
     4  C   -0.254644
     5  C   -0.261128
     6  C   -0.263690
     7  C   -0.270199
     8  C   -0.285142
     9  C    0.144083
    10  O   -0.635591
    11  C   -0.272817
    12  C   -0.260082
    13  C   -0.256812
    14  C   -0.356389
    15  C    0.123201
    16  C   -0.182755
    17  C   -0.128265
    18  C   -0.129412
    19  C   -0.182773
    20  C    0.117162
    21  C   -0.364283
    22  C   -0.262292
    23  C   -0.249395
    24  C   -0.407472
    25  C    0.607758
    26  O   -0.436133
    27  O   -0.569295
    28  H    0.140330
    29  H    0.142817
    30  H    0.146464
    31  H    0.130118
    32  H    0.130923
    33  H    0.123535
    34  H    0.139031
    35  H    0.134377
    36  H    0.127212
    37  H    0.126535
    38  H    0.130861
    39  H    0.132604
    40  H    0.129919
    41  H    0.137768
    42  H    0.137015
    43  H    0.139553
    44  H    0.120156
    45  H    0.114418
    46  H    0.386458
    47  H    0.133195
    48  H    0.134770
    49  H    0.136617
    50  H    0.155558
    51  H    0.127764
    52  H    0.138788
    53  H    0.142893
    54  H    0.143174
    55  H    0.121085
    56  H    0.125361
    57  H    0.124769
    58  H    0.113939
    59  H    0.134900
    60  H    0.153479
    61  H    0.146626
    62  H    0.133913
    63  H    0.153893
    64  H    0.160035
    65  H    0.164014
    66  H    0.166203
    67  H    0.407021
 Sum of Mulliken charges =  -0.00000

 Dipole moment (field-independent basis, Debye):
    X=              2.2058    Y=              3.7054    Z=             -0.6812  Tot=              4.3658
 Quadrupole moment (field-independent basis, Debye-Ang):
   XX=           -166.2424   YY=           -185.9493   ZZ=           -169.3709
   XY=            -34.2633   XZ=              1.6821   YZ=              8.4576

 Normal termination of Gaussian 16 at Sat Nov  5 11:36:07 2022.
