 Gaussian 16, Revision B.01,
 Gaussian 16:  ES64L-G16RevB.01 20-Dec-2017

 -----------------------------
 #p b3lyp/6-31g(d) opt SCF=XQC
 -----------------------------

 ------------------------------
 Gaussian input prepared by ASE
 ------------------------------
 Symbolic Z-matrix:
 Charge =  0 Multiplicity = 1

 SCF Done:  E(RB3LYP) =  -1164.33065005     A.U. after   14 cycles
 SCF Done:  E(RB3LYP) =  -1164.33711446     A.U. after   12 cycles
 SCF Done:  E(RB3LYP) =  -1164.33782366     A.U. after   11 cycles
 SCF Done:  E(RB3LYP) =  -1164.33797743     A.U. after   11 cycles
 SCF Done:  E(RB3LYP) =  -1164.33803677     A.U. after   10 cycles
 SCF Done:  E(RB3LYP) =  -1164.33807554     A.U. after   10 cycles
 SCF Done:  E(RB3LYP) =  -1164.33810912     A.U. after   10 cycles
 SCF Done:  E(RB3LYP) =  -1164.33809721     A.U. after   11 cycles
 SCF Done:  E(RB3LYP) =  -1164.33814134     A.U. after   11 cycles
 SCF Done:  E(RB3LYP) =  -1164.33814256     A.U. after   10 cycles
 SCF Done:  E(RB3LYP) =  -1164.33814591     A.U. after    9 cycles
 SCF Done:  E(RB3LYP) =  -1164.33814759     A.U. after    9 cycles
 SCF Done:  E(RB3LYP) =  -1164.33814782     A.U. after    9 cycles
 SCF Done:  E(RB3LYP) =  -1164.33814798     A.U. after    7 cycles
 SCF Done:  E(RB3LYP) =  -1164.33814804     A.U. after    7 cycles
 SCF Done:  E(RB3LYP) =  -1164.33814807     A.U. after    6 cycles
 Optimization completed.
    -- Stationary point found.

                         Standard orientation:
 ---------------------------------------------------------------------
 Center     Atomic      Atomic             Coordinates (Angstroms)
 Number     Number       Type             X           Y           Z
 ---------------------------------------------------------------------
      1          6           0       -9.746835   -1.704100    0.649886
      2          6           0       -8.717364   -1.633489   -0.484665
      3          6           0       -7.294495   -1.253335   -0.038935
      4          6           0       -7.164420    0.172356    0.521990
      5          6           0       -5.741295    0.588103    0.959105
      6          6           0       -4.864704    1.258472   -0.117734
      7          6           0       -4.426266    0.400874   -1.320224
      8          6           0       -3.582223   -0.844744   -0.994683
      9          6           0       -2.244996   -0.604534   -0.273167
     10          8           0       -1.600929   -1.858724   -0.012309
     11          6           0       -1.254545    0.225853   -1.094073
     12          6           0        0.137323    0.386612   -0.459849
     13          6           0        0.146597    1.158722    0.865535
     14          6           0        1.558629    1.391865    1.451600
     15          6           0        2.441307    2.300722    0.610919
     16          6           0        2.152671    3.674440    0.605275
     17          6           0        2.894896    4.581339   -0.147016
     18          6           0        3.959262    4.118865   -0.921141
     19          6           0        4.259827    2.759066   -0.923838
     20          6           0        3.520785    1.833773   -0.170175
     21          6           0        3.949360    0.377339   -0.195835
     22          6           0        4.914721    0.015737    0.953721
     23          6           0        5.321162   -1.464594    1.006300
     24          6           0        6.149709   -1.929746   -0.194863
     25          6           0        6.638996   -3.367289   -0.055779
     26          8           0        6.448782   -4.072685    0.901784
     27          8           0        7.346454   -3.844601   -1.120416
     28          1           0       -9.430128   -2.412587    1.425853
     29          1           0      -10.721513   -2.036928    0.275026
     30          1           0       -9.896589   -0.731127    1.130853
     31          1           0       -9.060161   -0.917117   -1.245220
     32          1           0       -8.676320   -2.609875   -0.986123
     33          1           0       -6.954785   -1.968968    0.725463
     34          1           0       -6.619000   -1.379985   -0.893650
     35          1           0       -7.830654    0.264350    1.389079
     36          1           0       -7.540966    0.892084   -0.220836
     37          1           0       -5.222003   -0.281619    1.386783
     38          1           0       -5.830836    1.307344    1.783968
     39          1           0       -3.971282    1.665319    0.375563
     40          1           0       -5.408958    2.131586   -0.505331
     41          1           0       -5.312362    0.077893   -1.881356
     42          1           0       -3.865343    1.044352   -2.010816
     43          1           0       -3.363096   -1.385861   -1.924993
     44          1           0       -4.178238   -1.533620   -0.377209
     45          1           0       -2.438463   -0.091738    0.683070
     46          1           0       -2.218017   -2.404061    0.499841
     47          1           0       -1.690650    1.217553   -1.273649
     48          1           0       -1.144736   -0.254093   -2.076370
     49          1           0        0.783792    0.904928   -1.179912
     50          1           0        0.567398   -0.609763   -0.303461
     51          1           0       -0.347412    2.131565    0.727247
     52          1           0       -0.441935    0.613627    1.614698
     53          1           0        1.444046    1.844067    2.445762
     54          1           0        2.037433    0.421546    1.617392
     55          1           0        1.325437    4.036661    1.212899
     56          1           0        2.645997    5.639170   -0.126786
     57          1           0        4.549965    4.809623   -1.517141
     58          1           0        5.089500    2.396620   -1.528075
     59          1           0        4.438041    0.178826   -1.158034
     60          1           0        3.079123   -0.287911   -0.156531
     61          1           0        4.442536    0.279981    1.908371
     62          1           0        5.811126    0.647676    0.878296
     63          1           0        4.428140   -2.096891    1.087105
     64          1           0        5.902291   -1.651733    1.916013
     65          1           0        7.030137   -1.281791   -0.327121
     66          1           0        5.575010   -1.853237   -1.128741
     67          1           0        7.410417   -3.161619   -1.808516
 ---------------------------------------------------------------------

 The electronic state is 1-A.
 Alpha  occ. eigenvalues --  -19.19296 -19.13770 -19.13233 -10.31720 -10.22877
 Alpha  occ. eigenvalues --  -10.21030 -10.19139 -10.19032 -10.18866 -10.18747
 Alpha  occ. eigenvalues --  -10.18722 -10.18432 -10.18382 -10.18349 -10.18325
 Alpha  occ. eigenvalues --  -10.18221 -10.18194 -10.18098 -10.18069 -10.18008
 Alpha  occ. eigenvalues --  -10.17923 -10.17855 -10.17850 -10.17826 -10.17548
 Alpha  occ. eigenvalues --  -10.17285 -10.17089  -1.09566  -1.01533  -1.01013
 Alpha  occ. eigenvalues --   -0.85509  -0.81188  -0.81136  -0.79958  -0.78741
 Alpha  occ. eigenvalues --   -0.77151  -0.76447  -0.74639  -0.72477  -0.71759
 Alpha  occ. eigenvalues --   -0.69993  -0.67257  -0.66333  -0.64366  -0.62186
 Alpha  occ. eigenvalues --   -0.61344  -0.60302  -0.59197  -0.58143  -0.57065
 Alpha  occ. eigenvalues --   -0.56456  -0.55593  -0.54670  -0.51832  -0.51096
 Alpha  occ. eigenvalues --   -0.49941  -0.48265  -0.47596  -0.47334  -0.45892
 Alpha  occ. eigenvalues --   -0.45324  -0.44957  -0.44709  -0.44402  -0.43913
 Alpha  occ. eigenvalues --   -0.43157  -0.42665  -0.42115  -0.41830  -0.41605
 Alpha  occ. eigenvalues --   -0.41343  -0.40828  -0.40359  -0.39603  -0.39147
 Alpha  occ. eigenvalues --   -0.38829  -0.38582  -0.37557  -0.37424  -0.37107
 Alpha  occ. eigenvalues --   -0.36408  -0.36345  -0.35573  -0.35101  -0.34794
 Alpha  occ. eigenvalues --   -0.34413  -0.34400  -0.33504  -0.33377  -0.32993
 Alpha  occ. eigenvalues --   -0.32504  -0.32360  -0.32251  -0.31774  -0.31381
 Alpha  occ. eigenvalues --   -0.31267  -0.31113  -0.30609  -0.30288  -0.30033
 Alpha  occ. eigenvalues --   -0.26936  -0.25825  -0.23974  -0.23260
 Alpha virt. eigenvalues --    0.00191   0.00394   0.01335   0.05330   0.06557
 Alpha virt. eigenvalues --    0.07615   0.08135   0.09199   0.09784   0.10114
 Alpha virt. eigenvalues --    0.10663   0.10996   0.11357   0.11757   0.12073

 Mulliken charges:
               1
     1  C   -0.443615
     2  C   -0.249504
     3  C   -0.258617
     4  C   -0.254627
     5  C   -0.261127
     6  C   -0.263681
     7  C   -0.270218
     8  C   -0.285181
     9  C    0.144082
    10  O   -0.635589
    11  C   -0.272800
    12  C   -0.260091
    13  C   -0.256806
    14  C   -0.356372
    15  C    0.123190
    16  C   -0.182758
    17  C   -0.128266
    18  C   -0.129413
    19  C   -0.182761
    20  C    0.117157
    21  C   -0.364281
    22  C   -0.262287
    23  C   -0.249406
    24  C   -0.407468
    25  C    0.607758
    26  O   -0.436133
    27  O   -0.569293
    28  H    0.140331
    29  H    0.142818
    30  H    0.146466
    31  H    0.130119
    32  H    0.130924
    33  H    0.123535
    34  H    0.139028
    35  H    0.134374
    36  H    0.127206
    37  H    0.126535
    38  H    0.130860
    39  H    0.132607
    40  H    0.129920
    41  H    0.137776
    42  H    0.137019
    43  H    0.139562
    44  H    0.120163
    45  H    0.114423
    46  H    0.386457
    47  H    0.133191
    48  H    0.134770
    49  H    0.136618
    50  H    0.155559
    51  H    0.127762
    52  H    0.138788
    53  H    0.142891
    54  H    0.143169
    55  H    0.121085
    56  H    0.125363
    57  H    0.124769
    58  H    0.113938
    59  H    0.134898
    60  H    0.153477
    61  H    0.146627
    62  H    0.133912
    63  H    0.153895
    64  H    0.160036
    65  H    0.164013
    66  H    0.166203
    67  H    0.407021
 Sum of Mulliken charges =  -0.00000

 Dipole moment (field-independent basis, Debye):
    X=             -2.1781    Y=              3.3810    Z=             -1.6985  Tot=              4.3658
 Quadrupole moment (field-independent basis, Debye-Ang):
   XX=           -163.2962   YY=           -188.9022   ZZ=           -165.0501
   XY=             24.0484   XZ=            -18.9744   YZ=              5.3531

 1\1\GINC-NODE83\FOpt\RB3LYP\6-31G(d)\C24H40O3\WYKGROUP\04-Nov-2022\0\\
 #p b3lyp/6-31g(d) opt SCF=XQC\\Gaussian input prepared by ASE\\0,1\C,8
 .932239156,-1.7752722923,1.3461573935\C,7.8351963839,-1.0057777285,2.0
 920639027\C,6.4618608593,-1.0096509126,1.3980287072\C,6.4296157623,-0.
 2709921074,0.0498840705\C,5.0569886042,-0.2419663009,-0.6602231641\C,4
 .1417698198,0.953781341,-0.3286370781\C,3.5898447021,1.0570216143,1.10
 60773248\C,2.7162227564,-0.116946179,1.5841287813\C,1.4402016034,-0.40
 38063014,0.7742248689\O,0.7613797968,-1.5413924747,1.3228227671\C,0.43

 Normal termination of Gaussian 16 at Fri Nov  4 18:50:47 2022.
