 Gaussian 16, Revision B.01,
 Gaussian 16:  ES64L-G16RevB.01 20-Dec-2017

 -----------------------------
 #p b3lyp/6-31g(d) opt SCF=XQC
 -----------------------------

 ------------------------------
 Gaussian input prepared by ASE
 ------------------------------
 Symbolic Z-matrix:
 Charge =  0 Multiplicity = 1

 SCF Done:  E(RB3LYP) =  -501.547620327     A.U. after   14 cycles
 SCF Done:  E(RB3LYP) =  -501.549944924     A.U. after   11 cycles
 SCF Done:  E(RB3LYP) =  -501.550037845     A.U. after   10 cycles
 SCF Done:  E(RB3LYP) =  -501.550059043     A.U. after   10 cycles
 SCF Done:  E(RB3LYP) =  -501.550061106     A.U. after    8 cycles
 SCF Done:  E(RB3LYP) =  -501.550065547     A.U. after   10 cycles
 SCF Done:  E(RB3LYP) =  -501.550067773     A.U. after   10 cycles
 SCF Done:  E(RB3LYP) =  -501.550069126     A.U. after    9 cycles
 SCF Done:  E(RB3LYP) =  -501.550069607     A.U. after    8 cycles
 SCF Done:  E(RB3LYP) =  -501.550069663     A.U. after    7 cycles
 Optimization completed.
    -- Stationary point found.

                         Standard orientation:
 ---------------------------------------------------------------------
 Center     Atomic      Atomic             Coordinates (Angstroms)
 Number     Number       Type             X           Y           Z
 ---------------------------------------------------------------------
      1          6           0       -2.477739    2.657951   -0.008696
      2          6           0       -1.392696    1.919734    0.258872
      3          6           0       -1.245444    0.465044    0.107012
      4          6           0       -2.317654   -0.416593   -0.166338
      5          6           0       -2.138522   -1.796127   -0.296971
      6          6           0       -0.876365   -2.401557   -0.160175
      7          6           0        0.176354   -1.540287    0.108094
      8          6           0       -0.004598   -0.164014    0.237050
      9          6           0        1.475628    0.098498    0.510469
     10          6           0        2.222132    0.947651   -0.506607
     11          8           0        3.609660    0.874874   -0.193646
     12          6           0        1.673345   -1.464464    0.369668
     13          1           0       -2.475161    3.732548    0.146762
     14          1           0       -3.399449    2.229730   -0.393578
     15          1           0       -0.502298    2.429965    0.625997
     16          1           0       -3.322184   -0.014314   -0.265417
     17          1           0       -3.007103   -2.416570   -0.503954
     18          1           0       -0.758217   -3.477493   -0.258892
     19          1           0        1.699974    0.471222    1.517809
     20          1           0        1.857371    1.987325   -0.463995
     21          1           0        2.017476    0.568315   -1.521267
     22          1           0        4.094332    1.376550   -0.866277
     23          1           0        2.325118   -1.757614   -0.460935
     24          1           0        2.026220   -1.963665    1.278642
 ---------------------------------------------------------------------

 The electronic state is 1-A.
 Alpha  occ. eigenvalues --  -19.14316 -10.23149 -10.19619 -10.19511 -10.19289
 Alpha  occ. eigenvalues --  -10.18798 -10.18727 -10.18709 -10.18623 -10.18331
 Alpha  occ. eigenvalues --  -10.18285 -10.18230  -1.01484  -0.87704  -0.81288
 Alpha  occ. eigenvalues --   -0.78249  -0.72489  -0.71026  -0.67227  -0.61746
 Alpha  occ. eigenvalues --   -0.60350  -0.55659  -0.54337  -0.51638  -0.49494
 Alpha  occ. eigenvalues --   -0.47438  -0.46517  -0.45003  -0.42683  -0.41645
 Alpha  occ. eigenvalues --   -0.40310  -0.39367  -0.37705  -0.36225  -0.35825
 Alpha  occ. eigenvalues --   -0.33782  -0.32963  -0.31605  -0.30619  -0.29335
 Alpha  occ. eigenvalues --   -0.26693  -0.23486  -0.22060
 Alpha virt. eigenvalues --   -0.03212   0.00910   0.05837   0.07072   0.09718
 Alpha virt. eigenvalues --    0.10509   0.12951   0.13163   0.14164   0.15405
 Alpha virt. eigenvalues --    0.16561   0.17226   0.17569   0.18792   0.19143

 Mulliken charges:
               1
     1  C   -0.349566
     2  C   -0.109335
     3  C    0.107744
     4  C   -0.194498
     5  C   -0.129960
     6  C   -0.218329
     7  C    0.142214
     8  C    0.040808
     9  C   -0.185447
    10  C   -0.033085
    11  O   -0.618831
    12  C   -0.351091
    13  H    0.143686
    14  H    0.143221
    15  H    0.129719
    16  H    0.123972
    17  H    0.127210
    18  H    0.130003
    19  H    0.151234
    20  H    0.122717
    21  H    0.122619
    22  H    0.392749
    23  H    0.157203
    24  H    0.155043
 Sum of Mulliken charges =  -0.00000

 Dipole moment (field-independent basis, Debye):
    X=              0.0249    Y=              0.6437    Z=             -1.1429  Tot=              1.3119
 Quadrupole moment (field-independent basis, Debye-Ang):
   XX=            -67.3965   YY=            -64.1197   ZZ=            -71.6152
   XY=              2.9410   XZ=             -3.5000   YZ=             -1.1953

 1\1\GINC-NODE75\FOpt\RB3LYP\6-31G(d)\C11H12O1\WYKGROUP\04-Nov-2022\0\\
 #p b3lyp/6-31g(d) opt SCF=XQC\\Gaussian input prepared by ASE\\0,1\C,-
 2.8112366363,-2.06013115,0.6289015007\C,-1.7004410293,-1.5368398692,0.
 0939474996\C,-1.2615326315,-0.1348909498,0.1465621656\C,-2.0653916702,
 0.9309918952,0.6149009057\C,-1.6144294151,2.2531548893,0.6429318056\C,
 -0.3284395572,2.6130793309,0.2013634732\C,0.4616179888,1.5708361095,-0
 .2585388088\C,0.0098873525,0.252217304,-0.2846682495\C,1.3162027557,-0
 .281281403,-0.8708945463\C,2.1083456735,-1.2540600291,-0.0112520896\O,

 Normal termination of Gaussian 16 at Fri Nov  4 18:31:51 2022.
