 Gaussian 16, Revision B.01,
 Gaussian 16:  ES64L-G16RevB.01 20-Dec-2017

 -------------------------------------------------------------------
 #p b3lyp/6-31g(d) 6D 10F nosymm GFInput td=(50-50,nstate=2) SCF=XQC
 -------------------------------------------------------------------

 ------------------------------
 Gaussian input prepared by ASE
 ------------------------------
 Symbolic Z-matrix:
 Charge =  0 Multiplicity = 1

                          Input orientation:
 ---------------------------------------------------------------------
 Center     Atomic      Atomic             Coordinates (Angstroms)
 Number     Number       Type             X           Y           Z
 ---------------------------------------------------------------------
      1          6           0       -2.811237   -2.060131    0.628902
      2          6           0       -1.700441   -1.536840    0.093947
      3          6           0       -1.261533   -0.134891    0.146562
      4          6           0       -2.065392    0.930992    0.614901
      5          6           0       -1.614429    2.253155    0.642932
      6          6           0       -0.328440    2.613079    0.201363
      7          6           0        0.461618    1.570836   -0.258539
      8          6           0        0.009887    0.252217   -0.284668
      9          6           0        1.316203   -0.281281   -0.870895
     10          6           0        2.108346   -1.254060   -0.011252
     11          8           0        3.377683   -1.440894   -0.629596
     12          6           0        1.820478    1.217652   -0.844978
     13          1           0       -3.038789   -3.116508    0.522977
     14          1           0       -3.527809   -1.467700    1.191579
     15          1           0       -1.024630   -2.204014   -0.440921
     16          1           0       -3.076712    0.722713    0.953393
     17          1           0       -2.285895    3.024485    1.012267
     18          1           0        0.001928    3.648281    0.224966
     19          1           0        1.233830   -0.689696   -1.885981
     20          1           0        1.561390   -2.207716    0.073408
     21          1           0        2.212421   -0.842811    1.006273
     22          1           0        3.903776   -2.023696   -0.061629
     23          1           0        2.686366    1.384768   -0.194627
     24          1           0        2.041380    1.642060   -1.830389
 ---------------------------------------------------------------------

 SCF Done:  E(RB3LYP) =  -501.550071436     A.U. after   14 cycles

 Excitation energies and oscillator strengths:

 Excited state symmetry could not be determined.
 Excited State   1:      Triplet-?Sym    2.8654 eV  432.70 nm  f=0.0000  <S**2>=2.000
      40 -> 46        -0.14934
      42 -> 45        -0.16836
      43 -> 44         0.67330
      43 <- 44         0.11233
 This state for optimization and/or second-order correction.
 Total Energy, E(TD-HF/TD-DFT) =  -501.444771598
 Copying the excited state density for this state as the 1-particle RhoCI density.

 Excited state symmetry could not be determined.
 Excited State   2:      Triplet-?Sym    4.0173 eV  308.63 nm  f=0.0000  <S**2>=2.000
      40 -> 44        -0.13600
      42 -> 44         0.61465
      42 -> 45        -0.24421
      43 -> 45        -0.11808
      43 -> 46         0.12371

 Excited state symmetry could not be determined.
 Excited State   3:      Singlet-?Sym    4.7289 eV  262.19 nm  f=0.0346  <S**2>=0.000
      42 -> 44         0.61737
      43 -> 45         0.33352

 Excited state symmetry could not be determined.
 Excited State   4:      Singlet-?Sym    5.0396 eV  246.02 nm  f=0.3612  <S**2>=0.000
      42 -> 45        -0.13126
      43 -> 44         0.68806

 Alpha  occ. eigenvalues --  -19.14316 -10.23149 -10.19619 -10.19511 -10.19289
 Alpha  occ. eigenvalues --  -10.18798 -10.18727 -10.18709 -10.18623 -10.18331
 Alpha  occ. eigenvalues --  -10.18285 -10.18230  -1.01484  -0.87704  -0.81288
 Alpha  occ. eigenvalues --   -0.78249  -0.72489  -0.71026  -0.67227  -0.61746
 Alpha  occ. eigenvalues --   -0.60350  -0.55659  -0.54337  -0.51638  -0.49494
 Alpha  occ. eigenvalues --   -0.47439  -0.46517  -0.45003  -0.42683  -0.41645
 Alpha  occ. eigenvalues --   -0.40310  -0.39367  -0.37705  -0.36225  -0.35825
 Alpha  occ. eigenvalues --   -0.33782  -0.32963  -0.31605  -0.30619  -0.29335
 Alpha  occ. eigenvalues --   -0.26693  -0.23486  -0.22060
 Alpha virt. eigenvalues --   -0.03212   0.00910   0.05837   0.07072   0.09718
 Alpha virt. eigenvalues --    0.10509   0.12951   0.13163   0.14164   0.15405
 Alpha virt. eigenvalues --    0.16561   0.17226   0.17569   0.18792   0.19143

 Mulliken charges:
               1
     1  C   -0.349567
     2  C   -0.109339
     3  C    0.107755
     4  C   -0.194493
     5  C   -0.129964
     6  C   -0.218330
     7  C    0.142211
     8  C    0.040800
     9  C   -0.185449
    10  C   -0.033085
    11  O   -0.618832
    12  C   -0.351088
    13  H    0.143686
    14  H    0.143221
    15  H    0.129720
    16  H    0.123972
    17  H    0.127210
    18  H    0.130003
    19  H    0.151234
    20  H    0.122717
    21  H    0.122620
    22  H    0.392749
    23  H    0.157203
    24  H    0.155044
 Sum of Mulliken charges =  -0.00000

 Dipole moment (field-independent basis, Debye):
    X=              0.1676    Y=             -0.6366    Z=              1.1348  Tot=              1.3120
 Quadrupole moment (field-independent basis, Debye-Ang):
   XX=            -67.0869   YY=            -63.2743   ZZ=            -72.9807
   XY=             -2.5068   XZ=              2.1969   YZ=             -1.1616

 Normal termination of Gaussian 16 at Sat Nov  5 11:28:46 2022.
