 Gaussian 16, Revision B.01,
 Gaussian 16:  ES64L-G16RevB.01 20-Dec-2017

 -----------------------------
 #p b3lyp/6-31g(d) opt SCF=XQC
 -----------------------------

 ------------------------------
 Gaussian input prepared by ASE
 ------------------------------
 Symbolic Z-matrix:
 Charge =  0 Multiplicity = 1

 SCF Done:  E(RB3LYP) =  -1751.29378115     A.U. after   15 cycles
 SCF Done:  E(RB3LYP) =  -1751.30068800     A.U. after   16 cycles
 SCF Done:  E(RB3LYP) =  -1751.30484546     A.U. after   15 cycles
 SCF Done:  E(RB3LYP) =  -1751.30671438     A.U. after   15 cycles
 SCF Done:  E(RB3LYP) =  -1751.30277032     A.U. after   15 cycles
 SCF Done:  E(RB3LYP) =  -1751.30583176     A.U. after   14 cycles
 SCF Done:  E(RB3LYP) =  -1751.30832900     A.U. after   11 cycles
 SCF Done:  E(RB3LYP) =  -1751.30975503     A.U. after   12 cycles
 SCF Done:  E(RB3LYP) =  -1751.31030099     A.U. after   13 cycles
 SCF Done:  E(RB3LYP) =  -1751.31093506     A.U. after   13 cycles
 SCF Done:  E(RB3LYP) =  -1751.31210944     A.U. after    8 cycles
 SCF Done:  E(RB3LYP) =  -1751.31210975     A.U. after    8 cycles
 SCF Done:  E(RB3LYP) =  -1751.31210984     A.U. after    7 cycles
 SCF Done:  E(RB3LYP) =  -1751.31210991     A.U. after    7 cycles
 SCF Done:  E(RB3LYP) =  -1751.31210998     A.U. after    7 cycles
 SCF Done:  E(RB3LYP) =  -1751.31211006     A.U. after    8 cycles
 SCF Done:  E(RB3LYP) =  -1751.31211014     A.U. after    8 cycles
 SCF Done:  E(RB3LYP) =  -1751.31211023     A.U. after    8 cycles
 SCF Done:  E(RB3LYP) =  -1751.31211030     A.U. after    8 cycles
 SCF Done:  E(RB3LYP) =  -1751.31211035     A.U. after    7 cycles
 Optimization completed.
    -- Stationary point found.

                         Standard orientation:
 ---------------------------------------------------------------------
 Center     Atomic      Atomic             Coordinates (Angstroms)
 Number     Number       Type             X           Y           Z
 ---------------------------------------------------------------------
      1          6           0        0.313287    4.198220   -1.408148
      2          8           0       -1.062287    3.883104   -1.607386
      3          6           0       -1.612618    2.884418   -0.875099
      4          6           0       -2.958227    2.594346   -1.164819
      5          6           0       -3.614541    1.579806   -0.489466
      6          6           0       -2.932538    0.854837    0.497273
      7         16           0       -3.747876   -0.512759    1.295072
      8          8           0       -5.195463   -0.328925    1.182894
      9          8           0       -3.072543   -0.771818    2.569346
     10          7           0       -3.450757   -1.964250    0.362146
     11          7           0       -2.105227   -2.308065    0.268996
     12          6           0       -1.352974   -1.975718   -0.838898
     13          8           0       -1.841486   -1.310597   -1.753263
     14          6           0        0.033830   -2.475543   -0.875996
     15          6           0        0.479541   -3.598040   -0.254406
     16          6           0        1.863784   -3.981796   -0.330446
     17          6           0        2.753200   -3.068226   -0.812546
     18          7           0        2.353188   -1.864625   -1.322876
     19          6           0        3.313338   -0.867937   -1.767503
     20          6           0        3.077319    0.487660   -1.071758
     21          8           0        2.500739    1.367916   -1.697314
     22          6           0        3.530467    0.703802    0.334791
     23          6           0        4.082398   -0.312331    1.131240
     24          6           0        4.494264   -0.041566    2.435283
     25          6           0        4.366742    1.246722    2.957405
     26          6           0        3.823332    2.267595    2.171648
     27          6           0        3.407119    1.997039    0.872557
     28          6           0        0.968857   -1.735883   -1.813474
     29          6           0       -1.605714    1.149814    0.809168
     30          6           0       -0.939081    2.164092    0.122968
     31          1           0        0.538916    4.989798   -2.124676
     32          1           0        0.489186    4.572761   -0.390812
     33          1           0        0.955496    3.331575   -1.600336
     34          1           0       -3.459306    3.177596   -1.930369
     35          1           0       -4.652048    1.350910   -0.708392
     36          1           0       -3.810139   -1.832025   -0.586440
     37          1           0       -1.736389   -2.795570    1.071160
     38          1           0       -0.198126   -4.216116    0.330328
     39          1           0        2.212882   -4.921839    0.077724
     40          1           0        3.827162   -3.233766   -0.773495
     41          1           0        3.212930   -0.685930   -2.845736
     42          1           0        4.324461   -1.236482   -1.569391
     43          1           0        4.176498   -1.322569    0.750199
     44          1           0        4.911847   -0.837825    3.044787
     45          1           0        4.690171    1.455588    3.973421
     46          1           0        3.727215    3.272025    2.574288
     47          1           0        2.991780    2.779067    0.245820
     48          1           0        0.704045   -0.677504   -1.862611
     49          1           0        0.902493   -2.128065   -2.846502
     50          1           0       -1.100168    0.595977    1.592777
     51          1           0        0.094290    2.379817    0.366390
 ---------------------------------------------------------------------

 The electronic state is 1-A.
 Alpha  occ. eigenvalues --  -89.09699 -19.18531 -19.16400 -19.13556 -19.13538
 Alpha  occ. eigenvalues --  -19.11973 -14.39680 -14.39222 -14.38888 -10.29937
 Alpha  occ. eigenvalues --  -10.29479 -10.26012 -10.25135 -10.24878 -10.23982
 Alpha  occ. eigenvalues --  -10.23514 -10.22295 -10.22220 -10.22011 -10.21668
 Alpha  occ. eigenvalues --  -10.21661 -10.21555 -10.21408 -10.21389 -10.20724
 Alpha  occ. eigenvalues --  -10.20457 -10.20431 -10.19723 -10.19325 -10.19093
 Alpha  occ. eigenvalues --   -8.12369  -6.08832  -6.08778  -6.08670  -1.10241
 Alpha  occ. eigenvalues --   -1.07168  -1.06217  -1.04913  -0.99433  -0.98441
 Alpha  occ. eigenvalues --   -0.97945  -0.88064  -0.86452  -0.84298  -0.81735
 Alpha  occ. eigenvalues --   -0.78653  -0.78055  -0.77205  -0.77164  -0.75886
 Alpha  occ. eigenvalues --   -0.74484  -0.71213  -0.67571  -0.65876  -0.64749
 Alpha  occ. eigenvalues --   -0.64233  -0.62873  -0.62135  -0.61439  -0.59234
 Alpha  occ. eigenvalues --   -0.57829  -0.55875  -0.55015  -0.53746  -0.52909
 Alpha  occ. eigenvalues --   -0.52669  -0.51639  -0.50537  -0.49454  -0.49230
 Alpha  occ. eigenvalues --   -0.48801  -0.48421  -0.47653  -0.47056  -0.46127
 Alpha  occ. eigenvalues --   -0.45753  -0.45504  -0.44701  -0.44432  -0.43811
 Alpha  occ. eigenvalues --   -0.43644  -0.43268  -0.42252  -0.41974  -0.41803
 Alpha  occ. eigenvalues --   -0.41315  -0.40948  -0.40235  -0.38606  -0.38424
 Alpha  occ. eigenvalues --   -0.37994  -0.37712  -0.37391  -0.36926  -0.36747
 Alpha  occ. eigenvalues --   -0.34773  -0.33761  -0.33245  -0.33132  -0.32392
 Alpha  occ. eigenvalues --   -0.31089  -0.30003  -0.29789  -0.29561  -0.27855
 Alpha  occ. eigenvalues --   -0.27616  -0.27172  -0.26397  -0.26027  -0.24568
 Alpha  occ. eigenvalues --   -0.22615  -0.19793
 Alpha virt. eigenvalues --   -0.08149  -0.05424  -0.02652  -0.02144  -0.00934
 Alpha virt. eigenvalues --    0.01421   0.03444   0.05869   0.06903   0.07387
 Alpha virt. eigenvalues --    0.07933   0.08924   0.09464   0.09730   0.10601

 Mulliken charges:
               1
     1  C   -0.247452
     2  O   -0.500593
     3  C    0.389201
     4  C   -0.163086
     5  C   -0.135375
     6  C   -0.142831
     7  S    1.198934
     8  O   -0.528412
     9  O   -0.548936
    10  N   -0.504105
    11  N   -0.511193
    12  C    0.575097
    13  O   -0.535660
    14  C    0.021499
    15  C   -0.135447
    16  C   -0.209674
    17  C    0.083162
    18  N   -0.403311
    19  C   -0.228098
    20  C    0.405474
    21  O   -0.457248
    22  C    0.078676
    23  C   -0.163832
    24  C   -0.135075
    25  C   -0.116266
    26  C   -0.130731
    27  C   -0.160241
    28  C   -0.177220
    29  C   -0.152680
    30  C   -0.188793
    31  H    0.170895
    32  H    0.146629
    33  H    0.198447
    34  H    0.150445
    35  H    0.175711
    36  H    0.361208
    37  H    0.353999
    38  H    0.137058
    39  H    0.135029
    40  H    0.149655
    41  H    0.176481
    42  H    0.163574
    43  H    0.137030
    44  H    0.144382
    45  H    0.147217
    46  H    0.145373
    47  H    0.160354
    48  H    0.194972
    49  H    0.156882
    50  H    0.171510
    51  H    0.147362
 Sum of Mulliken charges =  -0.00000

 Dipole moment (field-independent basis, Debye):
    X=              9.9166    Y=             -0.3139    Z=             -0.3002  Tot=              9.9261
 Quadrupole moment (field-independent basis, Debye-Ang):
   XX=           -184.5450   YY=           -161.8847   ZZ=           -185.0419
   XY=             -7.2810   XZ=             17.6679   YZ=              2.8079

 Normal termination of Gaussian 16 at Fri Nov  4 20:06:01 2022.
