 Gaussian 16, Revision B.01,
 Gaussian 16:  ES64L-G16RevB.01 20-Dec-2017

 -------------------------------------------------------------------
 #p b3lyp/6-31g(d) 6D 10F nosymm GFInput td=(50-50,nstate=2) SCF=XQC
 -------------------------------------------------------------------

 ------------------------------
 Gaussian input prepared by ASE
 ------------------------------
 Symbolic Z-matrix:
 Charge =  0 Multiplicity = 1

                          Input orientation:
 ---------------------------------------------------------------------
 Center     Atomic      Atomic             Coordinates (Angstroms)
 Number     Number       Type             X           Y           Z
 ---------------------------------------------------------------------
      1          6           0       -2.257228    0.874054   -3.591050
      2          8           0       -3.382259    0.633311   -2.749892
      3          6           0       -3.245860    0.817145   -1.414196
      4          6           0       -4.381129    0.508018   -0.643256
      5          6           0       -4.346831    0.641234    0.734138
      6          6           0       -3.177128    1.102647    1.353214
      7         16           0       -3.103212    1.179894    3.130895
      8          8           0       -4.466685    1.263276    3.656134
      9          8           0       -2.043926    2.119618    3.507447
     10          7           0       -2.530013   -0.359959    3.735668
     11          7           0       -1.250055   -0.693767    3.302519
     12          6           0       -1.051188   -1.542794    2.233235
     13          8           0       -2.007833   -1.982660    1.594141
     14          6           0        0.343693   -1.906666    1.922860
     15          6           0        1.362846   -1.942388    2.820124
     16          6           0        2.697463   -2.283264    2.405659
     17          6           0        2.962144   -2.312337    1.068801
     18          7           0        1.982158   -2.143043    0.130681
     19          6           0        2.285596   -2.103343   -1.290345
     20          6           0        1.735511   -0.820591   -1.945602
     21          8           0        0.699207   -0.898460   -2.592615
     22          6           0        2.448605    0.480454   -1.774667
     23          6           0        3.567687    0.642181   -0.942209
     24          6           0        4.193280    1.883321   -0.834123
     25          6           0        3.714324    2.975264   -1.559948
     26          6           0        2.603823    2.824620   -2.396000
     27          6           0        1.975803    1.588166   -2.500133
     28          6           0        0.586385   -2.419862    0.516457
     29          6           0       -2.053733    1.434650    0.596570
     30          6           0       -2.082104    1.291216   -0.790028
     31          1           0       -2.587539    0.623170   -4.600440
     32          1           0       -1.961258    1.931280   -3.561547
     33          1           0       -1.405892    0.242855   -3.313100
     34          1           0       -5.272658    0.158431   -1.153446
     35          1           0       -5.218759    0.404205    1.334391
     36          1           0       -3.169660   -1.098154    3.431738
     37          1           0       -0.501352   -0.257202    3.818295
     38          1           0        1.192614   -1.692935    3.865092
     39          1           0        3.497478   -2.409453    3.124134
     40          1           0        3.972678   -2.426884    0.684064
     41          1           0        1.813263   -2.946335   -1.811939
     42          1           0        3.369378   -2.174727   -1.423624
     43          1           0        3.946359   -0.189011   -0.358809
     44          1           0        5.053032    1.998283   -0.180282
     45          1           0        4.204784    3.941086   -1.475361
     46          1           0        2.231986    3.671897   -2.965297
     47          1           0        1.118751    1.451114   -3.150942
     48          1           0       -0.084313   -1.928727   -0.191819
     49          1           0        0.388097   -3.506261    0.440450
     50          1           0       -1.164958    1.814044    1.089007
     51          1           0       -1.201375    1.543386   -1.368280
 ---------------------------------------------------------------------

 SCF Done:  E(RB3LYP) =  -1751.31208737     A.U. after   15 cycles

 Excitation energies and oscillator strengths:

 Excited state symmetry could not be determined.
 Excited State   1:      Triplet-?Sym    1.9809 eV  625.89 nm  f=0.0000  <S**2>=2.000
     112 ->113        -0.36732
     112 ->114         0.58735
 This state for optimization and/or second-order correction.
 Total Energy, E(TD-HF/TD-DFT) =  -1751.23929022
 Copying the excited state density for this state as the 1-particle RhoCI density.

 Excited state symmetry could not be determined.
 Excited State   2:      Triplet-?Sym    2.4318 eV  509.85 nm  f=0.0000  <S**2>=2.000
     107 ->113        -0.14790
     112 ->113         0.57823
     112 ->114         0.35896

 Excited state symmetry could not be determined.
 Excited State   3:      Singlet-?Sym    2.5206 eV  491.89 nm  f=0.0430  <S**2>=0.000
     112 ->113         0.70101

 Excited state symmetry could not be determined.
 Excited State   4:      Singlet-?Sym    3.3675 eV  368.18 nm  f=0.1443  <S**2>=0.000
     111 ->113        -0.12993
     112 ->114         0.68872

 Alpha  occ. eigenvalues --  -89.09699 -19.18531 -19.16400 -19.13556 -19.13538
 Alpha  occ. eigenvalues --  -19.11973 -14.39680 -14.39222 -14.38888 -10.29937
 Alpha  occ. eigenvalues --  -10.29479 -10.26012 -10.25136 -10.24877 -10.23983
 Alpha  occ. eigenvalues --  -10.23514 -10.22295 -10.22220 -10.22011 -10.21668
 Alpha  occ. eigenvalues --  -10.21661 -10.21555 -10.21408 -10.21389 -10.20724
 Alpha  occ. eigenvalues --  -10.20457 -10.20431 -10.19723 -10.19325 -10.19093
 Alpha  occ. eigenvalues --   -8.12369  -6.08832  -6.08778  -6.08670  -1.10241
 Alpha  occ. eigenvalues --   -1.07168  -1.06217  -1.04913  -0.99433  -0.98441
 Alpha  occ. eigenvalues --   -0.97945  -0.88064  -0.86452  -0.84298  -0.81735
 Alpha  occ. eigenvalues --   -0.78653  -0.78055  -0.77206  -0.77164  -0.75886
 Alpha  occ. eigenvalues --   -0.74484  -0.71213  -0.67571  -0.65876  -0.64749
 Alpha  occ. eigenvalues --   -0.64233  -0.62873  -0.62135  -0.61439  -0.59234
 Alpha  occ. eigenvalues --   -0.57829  -0.55875  -0.55015  -0.53746  -0.52909
 Alpha  occ. eigenvalues --   -0.52669  -0.51639  -0.50537  -0.49454  -0.49230
 Alpha  occ. eigenvalues --   -0.48801  -0.48421  -0.47653  -0.47056  -0.46127
 Alpha  occ. eigenvalues --   -0.45753  -0.45504  -0.44701  -0.44432  -0.43811
 Alpha  occ. eigenvalues --   -0.43644  -0.43268  -0.42252  -0.41974  -0.41803
 Alpha  occ. eigenvalues --   -0.41315  -0.40948  -0.40235  -0.38606  -0.38424
 Alpha  occ. eigenvalues --   -0.37994  -0.37712  -0.37391  -0.36926  -0.36747
 Alpha  occ. eigenvalues --   -0.34773  -0.33761  -0.33245  -0.33132  -0.32392
 Alpha  occ. eigenvalues --   -0.31089  -0.30003  -0.29789  -0.29561  -0.27855
 Alpha  occ. eigenvalues --   -0.27616  -0.27172  -0.26397  -0.26027  -0.24568
 Alpha  occ. eigenvalues --   -0.22615  -0.19793
 Alpha virt. eigenvalues --   -0.08149  -0.05424  -0.02652  -0.02144  -0.00934
 Alpha virt. eigenvalues --    0.01421   0.03444   0.05869   0.06904   0.07387
 Alpha virt. eigenvalues --    0.07933   0.08925   0.09464   0.09730   0.10601

 Mulliken charges:
               1
     1  C   -0.247451
     2  O   -0.500596
     3  C    0.389193
     4  C   -0.163087
     5  C   -0.135381
     6  C   -0.142841
     7  S    1.199019
     8  O   -0.528415
     9  O   -0.548952
    10  N   -0.504131
    11  N   -0.511206
    12  C    0.575128
    13  O   -0.535675
    14  C    0.021516
    15  C   -0.135475
    16  C   -0.209674
    17  C    0.083164
    18  N   -0.403323
    19  C   -0.228100
    20  C    0.405469
    21  O   -0.457252
    22  C    0.078690
    23  C   -0.163841
    24  C   -0.135065
    25  C   -0.116275
    26  C   -0.130721
    27  C   -0.160245
    28  C   -0.177197
    29  C   -0.152701
    30  C   -0.188761
    31  H    0.170896
    32  H    0.146630
    33  H    0.198444
    34  H    0.150446
    35  H    0.175710
    36  H    0.361206
    37  H    0.353999
    38  H    0.137060
    39  H    0.135028
    40  H    0.149656
    41  H    0.176482
    42  H    0.163575
    43  H    0.137029
    44  H    0.144381
    45  H    0.147217
    46  H    0.145372
    47  H    0.160354
    48  H    0.194967
    49  H    0.156879
    50  H    0.171511
    51  H    0.147346
 Sum of Mulliken charges =  -0.00000

 Dipole moment (field-independent basis, Debye):
    X=              8.6504    Y=             -1.0391    Z=             -4.7561  Tot=              9.9262
 Quadrupole moment (field-independent basis, Debye-Ang):
   XX=           -175.0332   YY=           -178.7503   ZZ=           -188.8224
   XY=              5.6083   XZ=             18.2604   YZ=            -17.4060

 Normal termination of Gaussian 16 at Sat Nov  5 11:35:23 2022.
