 Gaussian 16, Revision B.01,
 Gaussian 16:  ES64L-G16RevB.01 20-Dec-2017

 -------------------------------------------------------------------
 #p b3lyp/6-31g(d) 6D 10F nosymm GFInput td=(50-50,nstate=2) SCF=XQC
 -------------------------------------------------------------------

 ------------------------------
 Gaussian input prepared by ASE
 ------------------------------
 Symbolic Z-matrix:
 Charge =  0 Multiplicity = 1

                          Input orientation:
 ---------------------------------------------------------------------
 Center     Atomic      Atomic             Coordinates (Angstroms)
 Number     Number       Type             X           Y           Z
 ---------------------------------------------------------------------
      1          6           0       -1.686697   -3.439793    1.624274
      2          6           0       -1.811593   -2.077703    0.979740
      3          6           0       -0.644393   -1.360058    0.642324
      4          6           0       -0.704818   -0.105620    0.048743
      5         16           0        0.725738    0.869599   -0.410049
      6          7           0        2.010678   -0.183662    0.090538
      7          6           0        2.850228    0.342172    1.185008
      8          6           0        3.897077    1.336215    0.678814
      9          8           0        4.694027    0.755124   -0.348747
     10          6           0        3.900915    0.328140   -1.452075
     11          6           0        2.854178   -0.695144   -1.007690
     12          6           0       -1.968587    0.455927   -0.219192
     13          7           0       -2.174456    1.694543   -0.805545
     14          6           0       -3.433934    1.957600   -0.932254
     15          6           0       -3.980883    3.216637   -1.529169
     16         16           0       -4.534333    0.685104   -0.332021
     17          6           0       -3.131055   -0.266629    0.120583
     18          6           0       -3.067445   -1.528072    0.717493
     19          1           0       -2.668592   -3.877133    1.830020
     20          1           0       -1.137957   -4.137342    0.979317
     21          1           0       -1.139785   -3.383113    2.573656
     22          1           0        0.332835   -1.786653    0.845915
     23          1           0        3.365232   -0.516730    1.637581
     24          1           0        2.205756    0.794634    1.943376
     25          1           0        3.399292    2.247510    0.305020
     26          1           0        4.587979    1.623682    1.478121
     27          1           0        3.403299    1.194428   -1.921006
     28          1           0        4.594566   -0.106533   -2.179249
     29          1           0        2.212571   -0.995378   -1.840389
     30          1           0        3.369314   -1.589083   -0.629178
     31          1           0       -4.604338    3.761259   -0.810470
     32          1           0       -4.598557    3.005365   -2.409916
     33          1           0       -3.145455    3.854058   -1.827462
     34          1           0       -3.970808   -2.073353    0.973887
 ---------------------------------------------------------------------

 SCF Done:  E(RB3LYP) =  -1486.11038316     A.U. after   15 cycles

 Excitation energies and oscillator strengths:

 Excited state symmetry could not be determined.
 Excited State   1:      Triplet-?Sym    3.1319 eV  395.87 nm  f=0.0000  <S**2>=2.000
      71 -> 75        -0.11048
      72 -> 75         0.32227
      72 -> 76         0.14488
      74 -> 75         0.53470
      74 -> 76        -0.23421
 This state for optimization and/or second-order correction.
 Total Energy, E(TD-HF/TD-DFT) =  -1485.99528716
 Copying the excited state density for this state as the 1-particle RhoCI density.

 Excited state symmetry could not be determined.
 Excited State   2:      Triplet-?Sym    3.9023 eV  317.72 nm  f=0.0000  <S**2>=2.000
      72 -> 75         0.54151
      74 -> 75        -0.12822
      74 -> 76         0.40917

 Excited state symmetry could not be determined.
 Excited State   3:      Singlet-?Sym    4.1789 eV  296.69 nm  f=0.1015  <S**2>=0.000
      72 -> 75        -0.13298
      72 -> 76         0.14444
      74 -> 75         0.66579
      74 -> 76         0.12525

 Excited state symmetry could not be determined.
 Excited State   4:      Singlet-?Sym    4.5369 eV  273.28 nm  f=0.0000  <S**2>=0.000
      73 -> 75         0.69845

 Alpha  occ. eigenvalues --  -88.90545 -88.90266 -19.14864 -14.35844 -14.33510
 Alpha  occ. eigenvalues --  -10.26097 -10.23154 -10.23153 -10.22257 -10.21972
 Alpha  occ. eigenvalues --  -10.21786 -10.21769 -10.21768 -10.20113 -10.19993
 Alpha  occ. eigenvalues --  -10.19192 -10.18491 -10.18293  -7.96709  -7.95938
 Alpha  occ. eigenvalues --   -5.93115  -5.92782  -5.92553  -5.92359  -5.92076
 Alpha  occ. eigenvalues --   -5.91382  -1.03483  -0.96381  -0.92902  -0.85458
 Alpha  occ. eigenvalues --   -0.80457  -0.77965  -0.77453  -0.76383  -0.72276
 Alpha  occ. eigenvalues --   -0.70739  -0.67814  -0.65625  -0.65581  -0.59619
 Alpha  occ. eigenvalues --   -0.58337  -0.56258  -0.54712  -0.50180  -0.48661
 Alpha  occ. eigenvalues --   -0.48002  -0.47814  -0.47119  -0.46155  -0.45870
 Alpha  occ. eigenvalues --   -0.44575  -0.44537  -0.42085  -0.41621  -0.40373
 Alpha  occ. eigenvalues --   -0.39963  -0.39732  -0.39617  -0.38937  -0.38412
 Alpha  occ. eigenvalues --   -0.36854  -0.36670  -0.36035  -0.35458  -0.33361
 Alpha  occ. eigenvalues --   -0.32927  -0.31072  -0.30811  -0.27712  -0.27066
 Alpha  occ. eigenvalues --   -0.25885  -0.22877  -0.21689  -0.20448
 Alpha virt. eigenvalues --   -0.02810   0.00006   0.01174   0.02649   0.03935
 Alpha virt. eigenvalues --    0.06763   0.09330   0.09832   0.10933   0.11397
 Alpha virt. eigenvalues --    0.11688   0.12886   0.13346   0.14311   0.14831

 Mulliken charges:
               1
     1  C   -0.529751
     2  C    0.205894
     3  C   -0.228117
     4  C   -0.104913
     5  S    0.265930
     6  N   -0.515633
     7  C   -0.147136
     8  C   -0.040350
     9  O   -0.465609
    10  C   -0.040346
    11  C   -0.147149
    12  C    0.242236
    13  N   -0.461092
    14  C    0.123441
    15  C   -0.515758
    16  S    0.194341
    17  C   -0.109496
    18  C   -0.246743
    19  H    0.154637
    20  H    0.163791
    21  H    0.163778
    22  H    0.146480
    23  H    0.153337
    24  H    0.164366
    25  H    0.139432
    26  H    0.147533
    27  H    0.139430
    28  H    0.147533
    29  H    0.164368
    30  H    0.153338
    31  H    0.177533
    32  H    0.177592
    33  H    0.193065
    34  H    0.134039
 Sum of Mulliken charges =  -0.00000

 Dipole moment (field-independent basis, Debye):
    X=             -0.7752    Y=             -0.8267    Z=              0.3893  Tot=              1.1983
 Quadrupole moment (field-independent basis, Debye-Ang):
   XX=           -117.9274   YY=           -111.9200   ZZ=           -116.1317
   XY=             -5.2138   XZ=              2.4670   YZ=             -2.5835

 Normal termination of Gaussian 16 at Sat Nov  5 11:30:01 2022.
