 Gaussian 16, Revision B.01,
 Gaussian 16:  ES64L-G16RevB.01 20-Dec-2017

 -----------------------------
 #p b3lyp/6-31g(d) opt SCF=XQC
 -----------------------------

 ------------------------------
 Gaussian input prepared by ASE
 ------------------------------
 Symbolic Z-matrix:
 Charge =  0 Multiplicity = 1

 SCF Done:  E(RB3LYP) =  -1486.10525834     A.U. after   15 cycles
 SCF Done:  E(RB3LYP) =  -1486.10979917     A.U. after   12 cycles
 SCF Done:  E(RB3LYP) =  -1486.11022794     A.U. after   11 cycles
 SCF Done:  E(RB3LYP) =  -1486.11027884     A.U. after   10 cycles
 SCF Done:  E(RB3LYP) =  -1486.11028899     A.U. after   10 cycles
 SCF Done:  E(RB3LYP) =  -1486.11029624     A.U. after   10 cycles
 SCF Done:  E(RB3LYP) =  -1486.11030607     A.U. after   10 cycles
 SCF Done:  E(RB3LYP) =  -1486.11031741     A.U. after   10 cycles
 SCF Done:  E(RB3LYP) =  -1486.11033036     A.U. after   10 cycles
 SCF Done:  E(RB3LYP) =  -1486.11034527     A.U. after   10 cycles
 SCF Done:  E(RB3LYP) =  -1486.11036775     A.U. after   10 cycles
 SCF Done:  E(RB3LYP) =  -1486.11037900     A.U. after   10 cycles
 SCF Done:  E(RB3LYP) =  -1486.11038580     A.U. after   10 cycles
 SCF Done:  E(RB3LYP) =  -1486.11038682     A.U. after    8 cycles
 SCF Done:  E(RB3LYP) =  -1486.11038702     A.U. after    8 cycles
 SCF Done:  E(RB3LYP) =  -1486.11038705     A.U. after    7 cycles
 Optimization completed.
    -- Stationary point found.

                         Standard orientation:
 ---------------------------------------------------------------------
 Center     Atomic      Atomic             Coordinates (Angstroms)
 Number     Number       Type             X           Y           Z
 ---------------------------------------------------------------------
      1          6           0       -1.146038    4.058145    0.000137
      2          6           0       -1.321608    2.556316    0.000038
      3          6           0       -0.181773    1.724453    0.000024
      4          6           0       -0.288899    0.339488    0.000009
      5         16           0        1.104555   -0.785821   -0.000015
      6          7           0        2.428038    0.336412    0.000011
      7          6           0        3.268837    0.300822   -1.212837
      8          6           0        4.277489   -0.848830   -1.178686
      9          8           0        5.074966   -0.789833   -0.000031
     10          6           0        4.277498   -0.848897    1.178626
     11          6           0        3.268848    0.300754    1.212852
     12          6           0       -1.572905   -0.239791    0.000002
     13          7           0       -1.824806   -1.602475   -0.000017
     14          6           0       -3.093403   -1.851872   -0.000024
     15          6           0       -3.686965   -3.226033    0.000219
     16         16           0       -4.145800   -0.408658   -0.000183
     17          6           0       -2.707827    0.597358   -0.000010
     18          6           0       -2.597257    1.989967   -0.000004
     19          1           0       -2.111101    4.574254   -0.000404
     20          1           0       -0.587095    4.394229    0.882345
     21          1           0       -0.586059    4.394259   -0.881397
     22          1           0        0.810819    2.163960    0.000016
     23          1           0        3.816278    1.252870   -1.253778
     24          1           0        2.623305    0.237853   -2.092900
     25          1           0        3.746947   -1.815126   -1.231334
     26          1           0        4.972130   -0.790208   -2.023027
     27          1           0        3.746956   -1.815195    1.231223
     28          1           0        4.972146   -0.790325    2.022964
     29          1           0        2.623323    0.237735    2.092916
     30          1           0        3.816288    1.252800    1.253842
     31          1           0       -4.314861   -3.389925   -0.883366
     32          1           0       -4.311979   -3.390765    0.885710
     33          1           0       -2.875706   -3.957526   -0.001389
     34          1           0       -3.479818    2.622596   -0.000037
 ---------------------------------------------------------------------

 The electronic state is 1-A.
 Alpha  occ. eigenvalues --  -88.90545 -88.90266 -19.14864 -14.35844 -14.33510
 Alpha  occ. eigenvalues --  -10.26097 -10.23154 -10.23153 -10.22257 -10.21972
 Alpha  occ. eigenvalues --  -10.21786 -10.21769 -10.21768 -10.20113 -10.19993
 Alpha  occ. eigenvalues --  -10.19192 -10.18491 -10.18293  -7.96709  -7.95938
 Alpha  occ. eigenvalues --   -5.93115  -5.92782  -5.92553  -5.92359  -5.92076
 Alpha  occ. eigenvalues --   -5.91382  -1.03483  -0.96381  -0.92902  -0.85458
 Alpha  occ. eigenvalues --   -0.80457  -0.77965  -0.77453  -0.76383  -0.72276
 Alpha  occ. eigenvalues --   -0.70739  -0.67814  -0.65625  -0.65581  -0.59619
 Alpha  occ. eigenvalues --   -0.58337  -0.56258  -0.54712  -0.50180  -0.48661
 Alpha  occ. eigenvalues --   -0.48002  -0.47814  -0.47119  -0.46155  -0.45870
 Alpha  occ. eigenvalues --   -0.44575  -0.44537  -0.42085  -0.41621  -0.40373
 Alpha  occ. eigenvalues --   -0.39963  -0.39732  -0.39617  -0.38937  -0.38412
 Alpha  occ. eigenvalues --   -0.36854  -0.36670  -0.36035  -0.35458  -0.33361
 Alpha  occ. eigenvalues --   -0.32927  -0.31072  -0.30811  -0.27712  -0.27066
 Alpha  occ. eigenvalues --   -0.25885  -0.22877  -0.21689  -0.20448
 Alpha virt. eigenvalues --   -0.02810   0.00006   0.01174   0.02649   0.03935
 Alpha virt. eigenvalues --    0.06763   0.09330   0.09832   0.10933   0.11397
 Alpha virt. eigenvalues --    0.11688   0.12886   0.13346   0.14311   0.14831

 Mulliken charges:
               1
     1  C   -0.529752
     2  C    0.205895
     3  C   -0.228121
     4  C   -0.104917
     5  S    0.265924
     6  N   -0.515643
     7  C   -0.147135
     8  C   -0.040350
     9  O   -0.465611
    10  C   -0.040350
    11  C   -0.147135
    12  C    0.242239
    13  N   -0.461087
    14  C    0.123436
    15  C   -0.515756
    16  S    0.194341
    17  C   -0.109491
    18  C   -0.246747
    19  H    0.154637
    20  H    0.163791
    21  H    0.163779
    22  H    0.146484
    23  H    0.153338
    24  H    0.164369
    25  H    0.139432
    26  H    0.147532
    27  H    0.139432
    28  H    0.147532
    29  H    0.164368
    30  H    0.153338
    31  H    0.177532
    32  H    0.177593
    33  H    0.193065
    34  H    0.134040
 Sum of Mulliken charges =  -0.00000

 Dipole moment (field-independent basis, Debye):
    X=             -0.7440    Y=              0.9394    Z=              0.0004  Tot=              1.1983
 Quadrupole moment (field-independent basis, Debye-Ang):
   XX=           -118.1434   YY=           -110.7144   ZZ=           -117.3588
   XY=              6.2367   XZ=             -0.0011   YZ=             -0.0008

 Normal termination of Gaussian 16 at Fri Nov  4 18:44:23 2022.
