 Gaussian 16, Revision B.01,
 Gaussian 16:  ES64L-G16RevB.01 20-Dec-2017

 -------------------------------------------------------------------
 #p b3lyp/6-31g(d) 6D 10F nosymm GFInput td=(50-50,nstate=2) SCF=XQC
 -------------------------------------------------------------------

 ------------------------------
 Gaussian input prepared by ASE
 ------------------------------
 Symbolic Z-matrix:
 Charge =  0 Multiplicity = 1

                          Input orientation:
 ---------------------------------------------------------------------
 Center     Atomic      Atomic             Coordinates (Angstroms)
 Number     Number       Type             X           Y           Z
 ---------------------------------------------------------------------
      1          6           0        0.215074    3.937670   -0.679149
      2         16           0       -0.665134    2.368137   -0.975688
      3          6           0        0.664826    1.210537   -0.725171
      4          7           0        1.830357    1.670422   -0.356964
      5          6           0        2.803913    0.743024   -0.192322
      6         16           0        4.435537    1.149175    0.294578
      7          6           0        4.914888   -0.553291    0.241294
      8          6           0        6.319164   -0.952171    0.579337
      9          6           0        3.873184   -1.352765   -0.126244
     10          6           0        2.667232   -0.625242   -0.375936
     11          6           0        1.382497   -1.143658   -0.771667
     12          8           0        1.099780   -2.323685   -0.958102
     13          7           0        0.385940   -0.124288   -0.940978
     14          6           0       -0.943037   -0.593825   -1.399215
     15          6           0       -1.944582   -0.837892   -0.284645
     16          6           0       -1.699611   -1.814293    0.693555
     17          6           0       -2.633917   -2.057267    1.700700
     18          6           0       -3.827778   -1.340785    1.738980
     19          6           0       -4.088912   -0.374688    0.760560
     20          6           0       -5.377816    0.361208    0.833296
     21          8           0       -6.227684    0.196444    1.685949
     22          8           0       -5.534383    1.265263   -0.169668
     23          6           0       -3.144906   -0.125851   -0.245660
     24          1           0        0.612652    3.966287    0.335628
     25          1           0        1.026564    4.066198   -1.396206
     26          1           0       -0.538229    4.718219   -0.814286
     27          1           0        7.050148   -0.487043   -0.093566
     28          1           0        6.424292   -2.037920    0.491645
     29          1           0        6.589898   -0.668659    1.603932
     30          1           0        3.945350   -2.430240   -0.221840
     31          1           0       -0.741045   -1.526097   -1.929898
     32          1           0       -1.332263    0.133405   -2.116017
     33          1           0       -0.779520   -2.388998    0.649419
     34          1           0       -2.431688   -2.815118    2.452273
     35          1           0       -4.569440   -1.516255    2.511162
     36          1           0       -6.405073    1.676114   -0.015762
     37          1           0       -3.356282    0.627926   -0.996468
 ---------------------------------------------------------------------

 SCF Done:  E(RB3LYP) =  -1749.73343344     A.U. after   16 cycles

 Excitation energies and oscillator strengths:

 Excited state symmetry could not be determined.
 Excited State   1:      Triplet-?Sym    2.8940 eV  428.42 nm  f=0.0000  <S**2>=2.000
      90 -> 92         0.68291
 This state for optimization and/or second-order correction.
 Total Energy, E(TD-HF/TD-DFT) =  -1749.62708077
 Copying the excited state density for this state as the 1-particle RhoCI density.

 Excited state symmetry could not be determined.
 Excited State   2:      Triplet-?Sym    3.4479 eV  359.59 nm  f=0.0000  <S**2>=2.000
      85 -> 91        -0.10245
      86 -> 91        -0.15848
      86 -> 93         0.10182
      87 -> 91         0.34575
      88 -> 91        -0.32678
      89 -> 91         0.33695
      89 -> 93         0.20810
      89 -> 94        -0.15643

 Excited state symmetry could not be determined.
 Excited State   3:      Singlet-?Sym    3.9518 eV  313.74 nm  f=0.0035  <S**2>=0.000
      90 -> 91         0.70378

 Excited state symmetry could not be determined.
 Excited State   4:      Singlet-?Sym    4.1299 eV  300.21 nm  f=0.3042  <S**2>=0.000
      90 -> 92         0.69178

 Alpha  occ. eigenvalues --  -88.91176 -88.90806 -19.19671 -19.13723 -19.12589
 Alpha  occ. eigenvalues --  -14.40902 -14.34616 -10.32170 -10.31117 -10.30347
 Alpha  occ. eigenvalues --  -10.26273 -10.24152 -10.23115 -10.22573 -10.21068
 Alpha  occ. eigenvalues --  -10.20890 -10.20440 -10.20302 -10.20246 -10.20124
 Alpha  occ. eigenvalues --  -10.20036 -10.19905 -10.19860  -7.97321  -7.96943
 Alpha  occ. eigenvalues --   -5.93731  -5.93466  -5.93381  -5.93027  -5.92983
 Alpha  occ. eigenvalues --   -5.92455  -1.10438  -1.05199  -1.01226  -0.99995
 Alpha  occ. eigenvalues --   -0.93092  -0.87850  -0.86831  -0.81644  -0.79103
 Alpha  occ. eigenvalues --   -0.77286  -0.76678  -0.75045  -0.71696  -0.70846
 Alpha  occ. eigenvalues --   -0.67187  -0.66228  -0.63102  -0.61610  -0.61019
 Alpha  occ. eigenvalues --   -0.57811  -0.55827  -0.54891  -0.52951  -0.50265
 Alpha  occ. eigenvalues --   -0.49365  -0.48106  -0.47910  -0.47369  -0.46426
 Alpha  occ. eigenvalues --   -0.45008  -0.44781  -0.44609  -0.44265  -0.43900
 Alpha  occ. eigenvalues --   -0.43520  -0.42463  -0.42070  -0.41450  -0.40891
 Alpha  occ. eigenvalues --   -0.40009  -0.39709  -0.39088  -0.38353  -0.37306
 Alpha  occ. eigenvalues --   -0.36686  -0.36068  -0.35279  -0.35079  -0.34366
 Alpha  occ. eigenvalues --   -0.31874  -0.29059  -0.28928  -0.27727  -0.27107
 Alpha  occ. eigenvalues --   -0.26787  -0.26109  -0.25925  -0.25485  -0.21240
 Alpha virt. eigenvalues --   -0.04993  -0.04399  -0.01442  -0.00910   0.01395
 Alpha virt. eigenvalues --    0.01945   0.02627   0.05416   0.06007   0.07523
 Alpha virt. eigenvalues --    0.08988   0.10710   0.11319   0.11569   0.12270

 Mulliken charges:
               1
     1  C   -0.580839
     2  S    0.168860
     3  C    0.295489
     4  N   -0.506502
     5  C    0.006940
     6  S    0.247484
     7  C   -0.108684
     8  C   -0.511620
     9  C   -0.144989
    10  C    0.084111
    11  C    0.580643
    12  O   -0.536836
    13  N   -0.490624
    14  C   -0.289108
    15  C    0.167208
    16  C   -0.168664
    17  C   -0.136986
    18  C   -0.153795
    19  C    0.067728
    20  C    0.540165
    21  O   -0.475526
    22  O   -0.584043
    23  C   -0.213479
    24  H    0.209562
    25  H    0.204773
    26  H    0.184693
    27  H    0.173609
    28  H    0.173435
    29  H    0.173759
    30  H    0.159635
    31  H    0.215542
    32  H    0.187649
    33  H    0.175292
    34  H    0.142573
    35  H    0.165855
    36  H    0.411637
    37  H    0.165052
 Sum of Mulliken charges =  -0.00000

 Dipole moment (field-independent basis, Debye):
    X=              1.9800    Y=              2.1327    Z=             -0.8399  Tot=              3.0288
 Quadrupole moment (field-independent basis, Debye-Ang):
   XX=           -139.7583   YY=           -137.7842   ZZ=           -146.4325
   XY=             -8.5229   XZ=             11.5724   YZ=             -6.3805

 Normal termination of Gaussian 16 at Sat Nov  5 11:36:31 2022.
