 Gaussian 16, Revision B.01,
 Gaussian 16:  ES64L-G16RevB.01 20-Dec-2017

 -----------------------------
 #p b3lyp/6-31g(d) opt SCF=XQC
 -----------------------------

 ------------------------------
 Gaussian input prepared by ASE
 ------------------------------
 Symbolic Z-matrix:
 Charge =  0 Multiplicity = 1

 SCF Done:  E(RB3LYP) =  -1749.72575596     A.U. after   15 cycles
 SCF Done:  E(RB3LYP) =  -1749.73222939     A.U. after   13 cycles
 SCF Done:  E(RB3LYP) =  -1749.73310348     A.U. after   13 cycles
 SCF Done:  E(RB3LYP) =  -1749.73334278     A.U. after   12 cycles
 SCF Done:  E(RB3LYP) =  -1749.73340564     A.U. after   11 cycles
 SCF Done:  E(RB3LYP) =  -1749.73341269     A.U. after   11 cycles
 SCF Done:  E(RB3LYP) =  -1749.73342314     A.U. after   10 cycles
 SCF Done:  E(RB3LYP) =  -1749.73342756     A.U. after    9 cycles
 SCF Done:  E(RB3LYP) =  -1749.73342822     A.U. after    8 cycles
 SCF Done:  E(RB3LYP) =  -1749.73342838     A.U. after    8 cycles
 SCF Done:  E(RB3LYP) =  -1749.73342842     A.U. after    7 cycles
 Optimization completed.
    -- Stationary point found.

                         Standard orientation:
 ---------------------------------------------------------------------
 Center     Atomic      Atomic             Coordinates (Angstroms)
 Number     Number       Type             X           Y           Z
 ---------------------------------------------------------------------
      1          6           0       -0.292196    3.818868   -0.339852
      2         16           0        0.555077    2.386390    0.405983
      3          6           0       -0.758685    1.185013    0.357891
      4          7           0       -1.891070    1.521683   -0.198788
      5          6           0       -2.854592    0.569528   -0.195769
      6         16           0       -4.443212    0.818020   -0.887699
      7          6           0       -4.934286   -0.822743   -0.443010
      8          6           0       -6.311583   -1.312847   -0.771981
      9          6           0       -3.927146   -1.489918    0.189395
     10          6           0       -2.739282   -0.706662    0.335826
     11          6           0       -1.490389   -1.091438    0.942551
     12          8           0       -1.228654   -2.182755    1.440218
     13          7           0       -0.503786   -0.048785    0.922581
     14          6           0        0.784829   -0.369944    1.580574
     15          6           0        1.865315   -0.872700    0.639981
     16          6           0        1.688695   -2.066878   -0.076254
     17          6           0        2.694131   -2.542487   -0.918393
     18          6           0        3.891336   -1.842468   -1.047970
     19          6           0        4.084002   -0.657988   -0.327743
     20          6           0        5.378654    0.053451   -0.488476
     21          8           0        6.288796   -0.308780   -1.207413
     22          8           0        5.464885    1.182636    0.263371
     23          6           0        3.068993   -0.177068    0.511316
     24          1           0       -0.612903    3.586074   -1.355535
     25          1           0       -1.154157    4.112468    0.260171
     26          1           0        0.453103    4.618493   -0.350561
     27          1           0       -7.088177   -0.703490   -0.293370
     28          1           0       -6.428750   -2.343016   -0.421816
     29          1           0       -6.503708   -1.299697   -1.851974
     30          1           0       -4.011987   -2.509645    0.547525
     31          1           0        0.538883   -1.141542    2.312490
     32          1           0        1.123445    0.519340    2.117860
     33          1           0        0.764816   -2.624492    0.043400
     34          1           0        2.544416   -3.467604   -1.467793
     35          1           0        4.687521   -2.196305   -1.694504
     36          1           0        6.346804    1.553408    0.075397
     37          1           0        3.227864    0.744038    1.061675
 ---------------------------------------------------------------------

 The electronic state is 1-A.
 Alpha  occ. eigenvalues --  -88.91176 -88.90806 -19.19671 -19.13723 -19.12589
 Alpha  occ. eigenvalues --  -14.40902 -14.34616 -10.32170 -10.31117 -10.30347
 Alpha  occ. eigenvalues --  -10.26273 -10.24152 -10.23115 -10.22573 -10.21068
 Alpha  occ. eigenvalues --  -10.20890 -10.20440 -10.20302 -10.20246 -10.20124
 Alpha  occ. eigenvalues --  -10.20036 -10.19905 -10.19860  -7.97321  -7.96943
 Alpha  occ. eigenvalues --   -5.93731  -5.93466  -5.93381  -5.93027  -5.92983
 Alpha  occ. eigenvalues --   -5.92455  -1.10438  -1.05199  -1.01226  -0.99995
 Alpha  occ. eigenvalues --   -0.93092  -0.87850  -0.86832  -0.81644  -0.79103
 Alpha  occ. eigenvalues --   -0.77286  -0.76678  -0.75045  -0.71696  -0.70846
 Alpha  occ. eigenvalues --   -0.67188  -0.66228  -0.63102  -0.61610  -0.61019
 Alpha  occ. eigenvalues --   -0.57810  -0.55827  -0.54891  -0.52951  -0.50265
 Alpha  occ. eigenvalues --   -0.49365  -0.48106  -0.47910  -0.47369  -0.46426
 Alpha  occ. eigenvalues --   -0.45008  -0.44781  -0.44609  -0.44265  -0.43900
 Alpha  occ. eigenvalues --   -0.43520  -0.42463  -0.42070  -0.41450  -0.40891
 Alpha  occ. eigenvalues --   -0.40009  -0.39709  -0.39088  -0.38353  -0.37306
 Alpha  occ. eigenvalues --   -0.36686  -0.36068  -0.35279  -0.35079  -0.34366
 Alpha  occ. eigenvalues --   -0.31874  -0.29059  -0.28928  -0.27727  -0.27107
 Alpha  occ. eigenvalues --   -0.26787  -0.26109  -0.25925  -0.25485  -0.21240
 Alpha virt. eigenvalues --   -0.04993  -0.04399  -0.01442  -0.00910   0.01395
 Alpha virt. eigenvalues --    0.01945   0.02627   0.05416   0.06007   0.07523
 Alpha virt. eigenvalues --    0.08988   0.10710   0.11319   0.11569   0.12270

 Mulliken charges:
               1
     1  C   -0.580840
     2  S    0.168867
     3  C    0.295477
     4  N   -0.506509
     5  C    0.006952
     6  S    0.247488
     7  C   -0.108692
     8  C   -0.511613
     9  C   -0.144992
    10  C    0.084094
    11  C    0.580653
    12  O   -0.536832
    13  N   -0.490618
    14  C   -0.289116
    15  C    0.167217
    16  C   -0.168663
    17  C   -0.136989
    18  C   -0.153780
    19  C    0.067691
    20  C    0.540166
    21  O   -0.475527
    22  O   -0.584042
    23  C   -0.213451
    24  H    0.209562
    25  H    0.204773
    26  H    0.184694
    27  H    0.173608
    28  H    0.173434
    29  H    0.173757
    30  H    0.159636
    31  H    0.215539
    32  H    0.187648
    33  H    0.175293
    34  H    0.142573
    35  H    0.165853
    36  H    0.411637
    37  H    0.165050
 Sum of Mulliken charges =  -0.00000

 Dipole moment (field-independent basis, Debye):
    X=             -2.0257    Y=              2.2482    Z=              0.1283  Tot=              3.0289
 Quadrupole moment (field-independent basis, Debye-Ang):
   XX=           -141.2342   YY=           -135.6416   ZZ=           -147.6196
   XY=             11.0142   XZ=              9.5375   YZ=              4.4032

 Normal termination of Gaussian 16 at Fri Nov  4 18:45:46 2022.
