 Gaussian 16, Revision B.01,
 Gaussian 16:  ES64L-G16RevB.01 20-Dec-2017

 -------------------------------------------------------------------
 #p b3lyp/6-31g(d) 6D 10F nosymm GFInput td=(50-50,nstate=2) SCF=XQC
 -------------------------------------------------------------------

 ------------------------------
 Gaussian input prepared by ASE
 ------------------------------
 Symbolic Z-matrix:
 Charge =  0 Multiplicity = 1

                          Input orientation:
 ---------------------------------------------------------------------
 Center     Atomic      Atomic             Coordinates (Angstroms)
 Number     Number       Type             X           Y           Z
 ---------------------------------------------------------------------
      1          8           0       -4.887543    1.715716   -0.363509
      2          6           0       -5.282363    0.546017    0.365782
      3          6           0       -4.966264   -0.646948   -0.533331
      4          6           0       -3.458058   -0.732163   -0.877287
      5          6           0       -2.536470   -0.144713    0.230817
      6          7           0       -1.175454   -0.698670    0.255013
      7          6           0       -0.327419   -0.373507   -0.903241
      8          6           0        0.707347   -1.501362   -1.138243
      9          6           0        1.599586   -1.832715    0.066440
     10          6           0        2.920349   -2.577496   -0.205389
     11          6           0        3.937421   -1.891435   -1.154306
     12          6           0        3.987272   -0.352444   -1.121790
     13          6           0        4.212413    0.336323    0.239164
     14          6           0        3.727372    1.812795    0.238116
     15          6           0        2.827129    2.217198    1.422746
     16          6           0        1.454069    1.527445    1.596560
     17          6           0        0.354685    1.820400    0.548956
     18          6           0        0.289045    1.073467   -0.809050
     19          6           0       -3.192706   -0.331198    1.606285
     20          6           0       -4.537790    0.421201    1.715849
     21          1           0       -5.045497    2.483919    0.207008
     22          1           0       -6.367318    0.586320    0.554173
     23          1           0       -5.564984   -0.586418   -1.448818
     24          1           0       -5.288300   -1.553698   -0.004845
     25          1           0       -3.190215   -1.786544   -1.035941
     26          1           0       -3.269754   -0.215803   -1.823356
     27          1           0       -2.443281    0.931393    0.049916
     28          1           0       -1.247889   -1.712958    0.333573
     29          1           0       -0.928435   -0.363331   -1.829420
     30          1           0        1.318334   -1.209345   -2.000664
     31          1           0        0.164609   -2.404596   -1.456986
     32          1           0        1.023016   -2.416296    0.795969
     33          1           0        1.836706   -0.900445    0.574499
     34          1           0        2.711753   -3.583644   -0.595737
     35          1           0        3.397921   -2.736553    0.771012
     36          1           0        3.716388   -2.180828   -2.190888
     37          1           0        4.933224   -2.304701   -0.941908
     38          1           0        4.761176   -0.014666   -1.825519
     39          1           0        3.045186    0.020666   -1.536310
     40          1           0        3.692058   -0.216514    1.028126
     41          1           0        5.275903    0.287876    0.507667
     42          1           0        4.595014    2.485648    0.235918
     43          1           0        3.199179    2.023439   -0.700383
     44          1           0        3.393894    2.060296    2.352639
     45          1           0        2.654069    3.301981    1.361223
     46          1           0        1.064092    1.887864    2.559152
     47          1           0        1.573498    0.449708    1.737410
     48          1           0       -0.608978    1.677219    1.047825
     49          1           0        0.410192    2.893767    0.312401
     50          1           0        1.275188    1.059535   -1.284831
     51          1           0       -0.323081    1.711784   -1.459801
     52          1           0       -2.498961   -0.002521    2.387053
     53          1           0       -3.356015   -1.406862    1.773208
     54          1           0       -4.373946    1.433111    2.112962
     55          1           0       -5.187366   -0.086713    2.440243
 ---------------------------------------------------------------------

 SCF Done:  E(RB3LYP) =  -836.938839689     A.U. after   12 cycles

 Excitation energies and oscillator strengths:

 Excited state symmetry could not be determined.
 Excited State   1:      Triplet-?Sym    6.2494 eV  198.39 nm  f=0.0000  <S**2>=2.000
      79 -> 80         0.47000
      79 -> 81        -0.43787
      79 -> 82         0.15971
      79 -> 84        -0.15235
      79 -> 87         0.11359
 This state for optimization and/or second-order correction.
 Total Energy, E(TD-HF/TD-DFT) =  -836.709178393
 Copying the excited state density for this state as the 1-particle RhoCI density.

 Excited state symmetry could not be determined.
 Excited State   2:      Singlet-?Sym    6.4964 eV  190.85 nm  f=0.0029  <S**2>=0.000
      79 -> 80         0.59593
      79 -> 81        -0.33752
      79 -> 84        -0.10615

 Excited state symmetry could not be determined.
 Excited State   3:      Triplet-?Sym    6.7033 eV  184.96 nm  f=0.0000  <S**2>=2.000
      79 -> 80         0.49075
      79 -> 81         0.47885

 Excited state symmetry could not be determined.
 Excited State   4:      Singlet-?Sym    6.8130 eV  181.98 nm  f=0.0018  <S**2>=0.000
      79 -> 80         0.36107
      79 -> 81         0.59061

 Alpha  occ. eigenvalues --  -19.13916 -14.30315 -10.23085 -10.20212 -10.19807
 Alpha  occ. eigenvalues --  -10.18150 -10.17717 -10.17361 -10.17266 -10.17234
 Alpha  occ. eigenvalues --  -10.17215 -10.17122 -10.17005 -10.17005 -10.16947
 Alpha  occ. eigenvalues --  -10.16915 -10.16800 -10.16663 -10.16632 -10.16568
 Alpha  occ. eigenvalues --   -1.01169  -0.89435  -0.81160  -0.80038  -0.78245
 Alpha  occ. eigenvalues --   -0.76893  -0.73622  -0.73118  -0.72814  -0.70002
 Alpha  occ. eigenvalues --   -0.66513  -0.65946  -0.61575  -0.60205  -0.59693
 Alpha  occ. eigenvalues --   -0.59211  -0.55149  -0.54288  -0.53826  -0.53404
 Alpha  occ. eigenvalues --   -0.50321  -0.48555  -0.47218  -0.45668  -0.45413
 Alpha  occ. eigenvalues --   -0.44731  -0.44147  -0.43704  -0.42892  -0.42544
 Alpha  occ. eigenvalues --   -0.41192  -0.40481  -0.39911  -0.39041  -0.38714
 Alpha  occ. eigenvalues --   -0.37800  -0.37270  -0.37140  -0.36716  -0.36452
 Alpha  occ. eigenvalues --   -0.36112  -0.35194  -0.34995  -0.34530  -0.33720
 Alpha  occ. eigenvalues --   -0.32775  -0.32400  -0.31966  -0.30912  -0.30742
 Alpha  occ. eigenvalues --   -0.30531  -0.30241  -0.29918  -0.29389  -0.29069
 Alpha  occ. eigenvalues --   -0.28675  -0.28145  -0.25968  -0.20525
 Alpha virt. eigenvalues --    0.06548   0.07533   0.08991   0.09409   0.09647
 Alpha virt. eigenvalues --    0.10515   0.11177   0.11780   0.12157   0.13147
 Alpha virt. eigenvalues --    0.13751   0.13934   0.14058   0.14773   0.15095

 Mulliken charges:
               1
     1  O   -0.626834
     2  C    0.130833
     3  C   -0.275641
     4  C   -0.267884
     5  C    0.039639
     6  N   -0.580308
     7  C    0.076098
     8  C   -0.305414
     9  C   -0.263272
    10  C   -0.261120
    11  C   -0.260202
    12  C   -0.278872
    13  C   -0.258570
    14  C   -0.260675
    15  C   -0.264258
    16  C   -0.258608
    17  C   -0.252317
    18  C   -0.296066
    19  C   -0.278511
    20  C   -0.281427
    21  H    0.385839
    22  H    0.109831
    23  H    0.144824
    24  H    0.131714
    25  H    0.116506
    26  H    0.150323
    27  H    0.148934
    28  H    0.284692
    29  H    0.107773
    30  H    0.138517
    31  H    0.121078
    32  H    0.126427
    33  H    0.155939
    34  H    0.125142
    35  H    0.129474
    36  H    0.128185
    37  H    0.127713
    38  H    0.129128
    39  H    0.142459
    40  H    0.140429
    41  H    0.128848
    42  H    0.128421
    43  H    0.136040
    44  H    0.124741
    45  H    0.122816
    46  H    0.122728
    47  H    0.150429
    48  H    0.147009
    49  H    0.117627
    50  H    0.142806
    51  H    0.130890
    52  H    0.148231
    53  H    0.121834
    54  H    0.123033
    55  H    0.133028
 Sum of Mulliken charges =  -0.00000

 Dipole moment (field-independent basis, Debye):
    X=             -1.2271    Y=             -0.2660    Z=              0.7800  Tot=              1.4782
 Quadrupole moment (field-independent basis, Debye-Ang):
   XX=           -121.8785   YY=           -124.5367   ZZ=           -129.4186
   XY=             -0.7070   XZ=             -6.8668   YZ=              2.5922

 Normal termination of Gaussian 16 at Sat Nov  5 11:46:03 2022.
