 Gaussian 16, Revision B.01,
 Gaussian 16:  ES64L-G16RevB.01 20-Dec-2017

 -----------------------------
 #p b3lyp/6-31g(d) opt SCF=XQC
 -----------------------------

 ------------------------------
 Gaussian input prepared by ASE
 ------------------------------
 Symbolic Z-matrix:
 Charge =  0 Multiplicity = 1

 SCF Done:  E(RB3LYP) =  -836.931972622     A.U. after   12 cycles
 SCF Done:  E(RB3LYP) =  -836.936913874     A.U. after   10 cycles
 SCF Done:  E(RB3LYP) =  -836.938035636     A.U. after   10 cycles
 SCF Done:  E(RB3LYP) =  -836.938364631     A.U. after   10 cycles
 SCF Done:  E(RB3LYP) =  -836.938515463     A.U. after   10 cycles
 SCF Done:  E(RB3LYP) =  -836.938739912     A.U. after    9 cycles
 SCF Done:  E(RB3LYP) =  -836.938796155     A.U. after   10 cycles
 SCF Done:  E(RB3LYP) =  -836.938818532     A.U. after    8 cycles
 SCF Done:  E(RB3LYP) =  -836.938827229     A.U. after    8 cycles
 SCF Done:  E(RB3LYP) =  -836.938832102     A.U. after    8 cycles
 SCF Done:  E(RB3LYP) =  -836.938833252     A.U. after    7 cycles
 SCF Done:  E(RB3LYP) =  -836.938833882     A.U. after    7 cycles
 SCF Done:  E(RB3LYP) =  -836.938834635     A.U. after    7 cycles
 SCF Done:  E(RB3LYP) =  -836.938834914     A.U. after    7 cycles
 SCF Done:  E(RB3LYP) =  -836.938834966     A.U. after    6 cycles
 Optimization completed.
    -- Stationary point found.

                         Standard orientation:
 ---------------------------------------------------------------------
 Center     Atomic      Atomic             Coordinates (Angstroms)
 Number     Number       Type             X           Y           Z
 ---------------------------------------------------------------------
      1          8           0        4.731704    1.019375    1.226207
      2          6           0        5.104560    0.238301    0.083033
      3          6           0        4.677888   -1.196136    0.386068
      4          6           0        3.150680   -1.311314    0.619780
      5          6           0        2.323172   -0.250403   -0.162533
      6          7           0        0.938551   -0.646011   -0.456029
      7          6           0        0.046260   -0.777317    0.707165
      8          6           0       -1.057154   -1.824001    0.415700
      9          6           0       -1.897919   -1.556441   -0.840752
     10          6           0       -3.268593   -2.251659   -0.945294
     11          6           0       -4.299154   -1.956659    0.175634
     12          6           0       -4.266967   -0.546346    0.793708
     13          6           0       -4.380863    0.663243   -0.155611
     14          6           0       -3.820415    1.965275    0.481449
     15          6           0       -2.836641    2.764406   -0.396562
     16          6           0       -1.493875    2.116256   -0.806618
     17          6           0       -0.439930    1.865181    0.297060
     18          6           0       -0.487943    0.615391    1.214730
     19          6           0        3.043363    0.110947   -1.469471
     20          6           0        4.429773    0.743361   -1.213973
     21          1           0        4.960527    1.942735    1.037465
     22          1           0        6.198849    0.277410   -0.040436
     23          1           0        5.227762   -1.567043    1.258028
     24          1           0        4.980827   -1.818192   -0.466267
     25          1           0        2.820007   -2.313438    0.311504
     26          1           0        2.937834   -1.227036    1.689699
     27          1           0        2.276329    0.654506    0.452575
     28          1           0        0.962297   -1.536379   -0.952896
     29          1           0        0.595216   -1.198449    1.567646
     30          1           0       -1.698555   -1.878033    1.303413
     31          1           0       -0.580495   -2.813389    0.338869
     32          1           0       -1.313313   -1.819611   -1.731924
     33          1           0       -2.057929   -0.482941   -0.914731
     34          1           0       -3.134407   -3.340710   -1.009948
     35          1           0       -3.699450   -1.952943   -1.910626
     36          1           0       -4.150750   -2.668510    0.999254
     37          1           0       -5.301949   -2.171736   -0.218918
     38          1           0       -5.059720   -0.481000    1.552344
     39          1           0       -3.330926   -0.448532    1.353016
     40          1           0       -3.847446    0.456761   -1.089254
     41          1           0       -5.429079    0.806691   -0.449070
     42          1           0       -4.650666    2.634485    0.742945
     43          1           0       -3.334316    1.725578    1.435594
     44          1           0       -3.358876    3.051860   -1.321322
     45          1           0       -2.610989    3.708463    0.121441
     46          1           0       -1.033388    2.818426   -1.516177
     47          1           0       -1.661326    1.208043   -1.392048
     48          1           0        0.540916    1.876813   -0.188557
     49          1           0       -0.452398    2.741642    0.962506
     50          1           0       -1.498114    0.472788    1.612544
     51          1           0        0.119914    0.877512    2.090759
     52          1           0        2.411597    0.784422   -2.057869
     53          1           0        3.159379   -0.804351   -2.069767
     54          1           0        4.340882    1.837315   -1.151773
     55          1           0        5.090832    0.541403   -2.066548
 ---------------------------------------------------------------------

 The electronic state is 1-A.
 Alpha  occ. eigenvalues --  -19.13916 -14.30315 -10.23086 -10.20212 -10.19807
 Alpha  occ. eigenvalues --  -10.18150 -10.17717 -10.17361 -10.17266 -10.17234
 Alpha  occ. eigenvalues --  -10.17215 -10.17122 -10.17005 -10.17005 -10.16947
 Alpha  occ. eigenvalues --  -10.16915 -10.16800 -10.16663 -10.16632 -10.16568
 Alpha  occ. eigenvalues --   -1.01169  -0.89435  -0.81160  -0.80038  -0.78245
 Alpha  occ. eigenvalues --   -0.76893  -0.73622  -0.73118  -0.72814  -0.70002
 Alpha  occ. eigenvalues --   -0.66514  -0.65946  -0.61575  -0.60205  -0.59693
 Alpha  occ. eigenvalues --   -0.59211  -0.55149  -0.54288  -0.53826  -0.53404
 Alpha  occ. eigenvalues --   -0.50321  -0.48556  -0.47218  -0.45668  -0.45413
 Alpha  occ. eigenvalues --   -0.44731  -0.44147  -0.43704  -0.42892  -0.42544
 Alpha  occ. eigenvalues --   -0.41192  -0.40481  -0.39911  -0.39041  -0.38714
 Alpha  occ. eigenvalues --   -0.37800  -0.37270  -0.37140  -0.36716  -0.36452
 Alpha  occ. eigenvalues --   -0.36112  -0.35194  -0.34995  -0.34530  -0.33720
 Alpha  occ. eigenvalues --   -0.32775  -0.32400  -0.31966  -0.30913  -0.30742
 Alpha  occ. eigenvalues --   -0.30531  -0.30241  -0.29918  -0.29389  -0.29069
 Alpha  occ. eigenvalues --   -0.28675  -0.28145  -0.25968  -0.20525
 Alpha virt. eigenvalues --    0.06548   0.07533   0.08991   0.09409   0.09647
 Alpha virt. eigenvalues --    0.10515   0.11177   0.11780   0.12157   0.13148
 Alpha virt. eigenvalues --    0.13751   0.13934   0.14058   0.14773   0.15095

 Mulliken charges:
               1
     1  O   -0.626832
     2  C    0.130832
     3  C   -0.275657
     4  C   -0.267887
     5  C    0.039661
     6  N   -0.580314
     7  C    0.076076
     8  C   -0.305404
     9  C   -0.263290
    10  C   -0.261089
    11  C   -0.260224
    12  C   -0.278850
    13  C   -0.258581
    14  C   -0.260608
    15  C   -0.264300
    16  C   -0.258604
    17  C   -0.252316
    18  C   -0.296052
    19  C   -0.278516
    20  C   -0.281417
    21  H    0.385839
    22  H    0.109831
    23  H    0.144826
    24  H    0.131717
    25  H    0.116509
    26  H    0.150325
    27  H    0.148931
    28  H    0.284692
    29  H    0.107777
    30  H    0.138517
    31  H    0.121079
    32  H    0.126428
    33  H    0.155942
    34  H    0.125138
    35  H    0.129471
    36  H    0.128186
    37  H    0.127713
    38  H    0.129126
    39  H    0.142453
    40  H    0.140426
    41  H    0.128845
    42  H    0.128410
    43  H    0.136027
    44  H    0.124742
    45  H    0.122819
    46  H    0.122732
    47  H    0.150426
    48  H    0.147009
    49  H    0.117627
    50  H    0.142806
    51  H    0.130888
    52  H    0.148226
    53  H    0.121833
    54  H    0.123029
    55  H    0.133027
 Sum of Mulliken charges =  -0.00000

 Dipole moment (field-independent basis, Debye):
    X=              1.2527    Y=             -0.0003    Z=             -0.7849  Tot=              1.4783
 Quadrupole moment (field-independent basis, Debye-Ang):
   XX=           -121.5978   YY=           -123.9091   ZZ=           -130.9148
   XY=              3.3176   XZ=             -5.4300   YZ=              0.7244

 Normal termination of Gaussian 16 at Fri Nov  4 18:53:39 2022.
