 Gaussian 16, Revision B.01,
 Gaussian 16:  ES64L-G16RevB.01 20-Dec-2017

 -------------------------------------------------------------------
 #p b3lyp/6-31g(d) 6D 10F nosymm GFInput td=(50-50,nstate=2) SCF=XQC
 -------------------------------------------------------------------

 ------------------------------
 Gaussian input prepared by ASE
 ------------------------------
 Symbolic Z-matrix:
 Charge =  0 Multiplicity = 1

                          Input orientation:
 ---------------------------------------------------------------------
 Center     Atomic      Atomic             Coordinates (Angstroms)
 Number     Number       Type             X           Y           Z
 ---------------------------------------------------------------------
      1          6           0        7.149511   -1.713230   -1.516363
      2          6           0        6.019255   -1.087104   -1.190318
      3          6           0        5.969974    0.338056   -0.714406
      4          8           0        5.344819    0.469038    0.572786
      5          6           0        3.989430    0.498259    0.673189
      6          6           0        3.094331    0.393521   -0.401051
      7          6           0        1.720817    0.446551   -0.165652
      8          6           0        1.210831    0.599256    1.130028
      9          6           0       -0.243860    0.676932    1.463800
     10          8           0       -0.635289    1.114313    2.541273
     11          7           0       -1.092905    0.206195    0.469585
     12          6           0       -2.481862    0.202310    0.436938
     13          6           0       -3.260780    0.714758    1.502192
     14          6           0       -4.640237    0.713613    1.453000
     15          6           0       -5.332574    0.200569    0.339916
     16          8           0       -6.691263    0.249346    0.405564
     17          6           0       -7.429926   -0.258009   -0.697278
     18          6           0       -4.604068   -0.308535   -0.722368
     19          6           0       -3.197707   -0.307561   -0.678961
     20          7           0       -2.542261   -0.861739   -1.856934
     21          8           0       -3.242049   -1.251260   -2.790612
     22          8           0       -1.296447   -0.928787   -1.892915
     23          6           0        2.121835    0.716898    2.195384
     24          6           0        3.486951    0.660938    1.976387
     25          1           0        7.152043   -2.737361   -1.878852
     26          1           0        8.118349   -1.223680   -1.438332
     27          1           0        5.065950   -1.607179   -1.270327
     28          1           0        6.981880    0.725868   -0.570935
     29          1           0        5.461021    0.991571   -1.436074
     30          1           0        3.447190    0.273472   -1.418483
     31          1           0        1.059600    0.391104   -1.025849
     32          1           0       -0.678923   -0.244894   -0.339350
     33          1           0       -2.739882    1.105342    2.363886
     34          1           0       -5.217138    1.110648    2.282547
     35          1           0       -8.481441   -0.123175   -0.439448
     36          1           0       -7.227468   -1.324857   -0.858465
     37          1           0       -7.205972    0.295622   -1.618395
     38          1           0       -5.073789   -0.714659   -1.605875
     39          1           0        1.727704    0.853420    3.196755
     40          1           0        4.194349    0.744428    2.795229
 ---------------------------------------------------------------------

 SCF Done:  E(RB3LYP) =  -1142.94583646     A.U. after   19 cycles

 Excitation energies and oscillator strengths:

 Excited state symmetry could not be determined.
 Excited State   1:      Triplet-?Sym    2.1426 eV  578.65 nm  f=0.0000  <S**2>=2.000
      85 -> 87         0.18655
      86 -> 87         0.67503
 This state for optimization and/or second-order correction.
 Total Energy, E(TD-HF/TD-DFT) =  -1142.86709559
 Copying the excited state density for this state as the 1-particle RhoCI density.

 Excited state symmetry could not be determined.
 Excited State   2:      Singlet-?Sym    2.8706 eV  431.91 nm  f=0.1202  <S**2>=0.000
      86 -> 87         0.70118

 Excited state symmetry could not be determined.
 Excited State   3:      Triplet-?Sym    2.9563 eV  419.38 nm  f=0.0000  <S**2>=2.000
      77 -> 87        -0.60284
      77 -> 90        -0.12849
      80 -> 87         0.27348
      81 -> 87         0.15383
      77 <- 87        -0.13234

 Excited state symmetry could not be determined.
 Excited State   4:      Singlet-?Sym    3.2782 eV  378.20 nm  f=0.0244  <S**2>=0.000
      85 -> 87         0.70095

 Alpha  occ. eigenvalues --  -19.19204 -19.18867 -19.18642 -19.18477 -19.12544
 Alpha  occ. eigenvalues --  -14.57734 -14.37823 -10.30147 -10.26723 -10.26438
 Alpha  occ. eigenvalues --  -10.26297 -10.25821 -10.25657 -10.25085 -10.21182
 Alpha  occ. eigenvalues --  -10.21142 -10.20846 -10.20434 -10.20325 -10.20141
 Alpha  occ. eigenvalues --  -10.19999 -10.19853 -10.19805 -10.19314  -1.22659
 Alpha  occ. eigenvalues --   -1.07860  -1.07366  -1.05224  -1.04357  -0.95294
 Alpha  occ. eigenvalues --   -0.87794  -0.86196  -0.81238  -0.80549  -0.77619
 Alpha  occ. eigenvalues --   -0.75808  -0.75466  -0.72643  -0.71031  -0.69301
 Alpha  occ. eigenvalues --   -0.64776  -0.62711  -0.62086  -0.60637  -0.59064
 Alpha  occ. eigenvalues --   -0.57676  -0.55554  -0.55281  -0.53615  -0.53522
 Alpha  occ. eigenvalues --   -0.52258  -0.51612  -0.50989  -0.50057  -0.48487
 Alpha  occ. eigenvalues --   -0.48001  -0.47605  -0.45890  -0.45576  -0.44930
 Alpha  occ. eigenvalues --   -0.43922  -0.43665  -0.43283  -0.42963  -0.41791
 Alpha  occ. eigenvalues --   -0.41146  -0.39919  -0.39267  -0.38966  -0.38337
 Alpha  occ. eigenvalues --   -0.37505  -0.36399  -0.35258  -0.35113  -0.33745
 Alpha  occ. eigenvalues --   -0.32434  -0.31705  -0.31594  -0.29638  -0.29526
 Alpha  occ. eigenvalues --   -0.27710  -0.27672  -0.26329  -0.25931  -0.23233
 Alpha  occ. eigenvalues --   -0.21735
 Alpha virt. eigenvalues --   -0.09538  -0.03890  -0.01188  -0.00399  -0.00185
 Alpha virt. eigenvalues --    0.01073   0.06809   0.08638   0.08704   0.10031
 Alpha virt. eigenvalues --    0.10952   0.11204   0.12023   0.12236   0.13107

 Mulliken charges:
               1
     1  C   -0.330525
     2  C   -0.059641
     3  C   -0.097656
     4  O   -0.513216
     5  C    0.392096
     6  C   -0.204866
     7  C   -0.198867
     8  C    0.056045
     9  C    0.585235
    10  O   -0.513988
    11  N   -0.789135
    12  C    0.352509
    13  C   -0.176188
    14  C   -0.163511
    15  C    0.394554
    16  O   -0.510811
    17  C   -0.220793
    18  C   -0.260830
    19  C    0.232337
    20  N    0.379624
    21  O   -0.396346
    22  O   -0.452117
    23  C   -0.155170
    24  C   -0.181233
    25  H    0.153563
    26  H    0.145565
    27  H    0.149760
    28  H    0.165591
    29  H    0.157529
    30  H    0.142157
    31  H    0.155233
    32  H    0.401361
    33  H    0.209457
    34  H    0.158896
    35  H    0.176262
    36  H    0.159225
    37  H    0.159334
    38  H    0.185896
    39  H    0.165487
    40  H    0.147182
 Sum of Mulliken charges =  -0.00000

 Dipole moment (field-independent basis, Debye):
    X=              0.2443    Y=             -0.1590    Z=             -1.3940  Tot=              1.4242
 Quadrupole moment (field-independent basis, Debye-Ang):
   XX=            -94.6686   YY=           -139.9264   ZZ=           -145.9218
   XY=             -0.1604   XZ=             -5.4030   YZ=             -4.6631

 Normal termination of Gaussian 16 at Sat Nov  5 11:38:42 2022.
