 Gaussian 16, Revision B.01,
 Gaussian 16:  ES64L-G16RevB.01 20-Dec-2017

 -----------------------------
 #p b3lyp/6-31g(d) opt SCF=XQC
 -----------------------------

 ------------------------------
 Gaussian input prepared by ASE
 ------------------------------
 Symbolic Z-matrix:
 Charge =  0 Multiplicity = 1

 SCF Done:  E(RB3LYP) =  -1142.94045837     A.U. after   19 cycles
 SCF Done:  E(RB3LYP) =  -1142.94464560     A.U. after   14 cycles
 SCF Done:  E(RB3LYP) =  -1142.94395236     A.U. after   13 cycles
 SCF Done:  E(RB3LYP) =  -1142.94554008     A.U. after   13 cycles
 SCF Done:  E(RB3LYP) =  -1142.94566704     A.U. after   12 cycles
 SCF Done:  E(RB3LYP) =  -1142.94548289     A.U. after   13 cycles
 SCF Done:  E(RB3LYP) =  -1142.94572316     A.U. after   12 cycles
 SCF Done:  E(RB3LYP) =  -1142.94582734     A.U. after   12 cycles
 SCF Done:  E(RB3LYP) =  -1142.94583506     A.U. after   10 cycles
 SCF Done:  E(RB3LYP) =  -1142.94583655     A.U. after    9 cycles
 SCF Done:  E(RB3LYP) =  -1142.94583681     A.U. after    7 cycles
 SCF Done:  E(RB3LYP) =  -1142.94583696     A.U. after    8 cycles
 SCF Done:  E(RB3LYP) =  -1142.94583700     A.U. after    7 cycles
 SCF Done:  E(RB3LYP) =  -1142.94583704     A.U. after    7 cycles
 Optimization completed.
    -- Stationary point found.

                         Standard orientation:
 ---------------------------------------------------------------------
 Center     Atomic      Atomic             Coordinates (Angstroms)
 Number     Number       Type             X           Y           Z
 ---------------------------------------------------------------------
      1          6           0       -7.442607    2.188167    0.803110
      2          6           0       -6.309112    1.617489    0.396499
      3          6           0       -6.250670    0.562071   -0.672462
      4          8           0       -5.632402   -0.652212   -0.216281
      5          6           0       -4.277462   -0.757669   -0.184227
      6          6           0       -3.376654    0.251142   -0.554375
      7          6           0       -2.004223    0.013981   -0.484010
      8          6           0       -1.500986   -1.217286   -0.044778
      9          6           0       -0.047781   -1.553759    0.047658
     10          8           0        0.340675   -2.714413    0.133974
     11          7           0        0.803371   -0.455383    0.040819
     12          6           0        2.192421   -0.426881    0.044300
     13          6           0        2.969057   -1.610354    0.061863
     14          6           0        4.348732   -1.568191    0.055494
     15          6           0        5.043561   -0.344185    0.032620
     16          8           0        6.402182   -0.427071    0.031838
     17          6           0        7.143319    0.785151    0.008851
     18          6           0        4.317343    0.835058    0.013887
     19          6           0        2.910800    0.798212    0.017581
     20          7           0        2.257971    2.101034   -0.010924
     21          8           0        2.960189    3.109543   -0.065528
     22          8           0        1.011880    2.165138    0.020502
     23          6           0       -2.417533   -2.223782    0.309706
     24          6           0       -3.781694   -2.000068    0.249287
     25          1           0       -7.451597    2.964936    1.562583
     26          1           0       -8.407716    1.904109    0.388052
     27          1           0       -5.359783    1.916804    0.837924
     28          1           0       -7.260113    0.264192   -0.967807
     29          1           0       -5.731727    0.920904   -1.571827
     30          1           0       -3.724218    1.217968   -0.898664
     31          1           0       -1.338189    0.809360   -0.806491
     32          1           0        0.390586    0.470306    0.084922
     33          1           0        2.446173   -2.555042    0.085641
     34          1           0        4.923841   -2.488853    0.070680
     35          1           0        8.194326    0.492383    0.012340
     36          1           0        6.932806    1.400415    0.893311
     37          1           0        6.929781    1.368365   -0.896346
     38          1           0        4.789055    1.806267   -0.006086
     39          1           0       -2.028460   -3.183527    0.632558
     40          1           0       -4.493410   -2.770602    0.527893
 ---------------------------------------------------------------------

 The electronic state is 1-A.
 Alpha  occ. eigenvalues --  -19.19204 -19.18868 -19.18642 -19.18477 -19.12544
 Alpha  occ. eigenvalues --  -14.57734 -14.37823 -10.30147 -10.26723 -10.26438
 Alpha  occ. eigenvalues --  -10.26297 -10.25821 -10.25657 -10.25085 -10.21182
 Alpha  occ. eigenvalues --  -10.21142 -10.20846 -10.20434 -10.20325 -10.20141
 Alpha  occ. eigenvalues --  -10.19999 -10.19853 -10.19805 -10.19314  -1.22659
 Alpha  occ. eigenvalues --   -1.07860  -1.07366  -1.05224  -1.04357  -0.95294
 Alpha  occ. eigenvalues --   -0.87794  -0.86196  -0.81237  -0.80549  -0.77619
 Alpha  occ. eigenvalues --   -0.75808  -0.75466  -0.72643  -0.71031  -0.69301
 Alpha  occ. eigenvalues --   -0.64776  -0.62711  -0.62086  -0.60637  -0.59064
 Alpha  occ. eigenvalues --   -0.57676  -0.55554  -0.55281  -0.53615  -0.53522
 Alpha  occ. eigenvalues --   -0.52258  -0.51612  -0.50989  -0.50057  -0.48487
 Alpha  occ. eigenvalues --   -0.48001  -0.47605  -0.45890  -0.45576  -0.44930
 Alpha  occ. eigenvalues --   -0.43922  -0.43665  -0.43283  -0.42963  -0.41791
 Alpha  occ. eigenvalues --   -0.41146  -0.39919  -0.39267  -0.38966  -0.38337
 Alpha  occ. eigenvalues --   -0.37505  -0.36399  -0.35258  -0.35113  -0.33745
 Alpha  occ. eigenvalues --   -0.32434  -0.31705  -0.31594  -0.29638  -0.29526
 Alpha  occ. eigenvalues --   -0.27710  -0.27672  -0.26329  -0.25931  -0.23233
 Alpha  occ. eigenvalues --   -0.21735
 Alpha virt. eigenvalues --   -0.09538  -0.03890  -0.01188  -0.00398  -0.00185
 Alpha virt. eigenvalues --    0.01073   0.06809   0.08638   0.08704   0.10031
 Alpha virt. eigenvalues --    0.10952   0.11204   0.12023   0.12236   0.13107

 Mulliken charges:
               1
     1  C   -0.330525
     2  C   -0.059638
     3  C   -0.097667
     4  O   -0.513216
     5  C    0.392094
     6  C   -0.204867
     7  C   -0.198861
     8  C    0.056041
     9  C    0.585222
    10  O   -0.513984
    11  N   -0.789120
    12  C    0.352498
    13  C   -0.176180
    14  C   -0.163514
    15  C    0.394542
    16  O   -0.510808
    17  C   -0.220793
    18  C   -0.260822
    19  C    0.232345
    20  N    0.379620
    21  O   -0.396346
    22  O   -0.452118
    23  C   -0.155172
    24  C   -0.181225
    25  H    0.153563
    26  H    0.145565
    27  H    0.149760
    28  H    0.165592
    29  H    0.157530
    30  H    0.142157
    31  H    0.155230
    32  H    0.401361
    33  H    0.209455
    34  H    0.158897
    35  H    0.176261
    36  H    0.159226
    37  H    0.159333
    38  H    0.185895
    39  H    0.165486
    40  H    0.147181
 Sum of Mulliken charges =  -0.00000

 Dipole moment (field-independent basis, Debye):
    X=             -0.2371    Y=              1.3218    Z=             -0.4742  Tot=              1.4242
 Quadrupole moment (field-independent basis, Debye-Ang):
   XX=            -94.6009   YY=           -148.2729   ZZ=           -137.3577
   XY=             -5.4076   XZ=              2.8133   YZ=             -0.5533

 Normal termination of Gaussian 16 at Fri Nov  4 18:50:04 2022.
