 Gaussian 16, Revision B.01,
 Gaussian 16:  ES64L-G16RevB.01 20-Dec-2017

 -----------------------------
 #p b3lyp/6-31g(d) opt SCF=XQC
 -----------------------------

 ------------------------------
 Gaussian input prepared by ASE
 ------------------------------
 Symbolic Z-matrix:
 Charge =  0 Multiplicity = 1

 SCF Done:  E(RB3LYP) =  -711.992915667     A.U. after   13 cycles
 SCF Done:  E(RB3LYP) =  -711.995331123     A.U. after   11 cycles
 SCF Done:  E(RB3LYP) =  -711.995545176     A.U. after   10 cycles
 SCF Done:  E(RB3LYP) =  -711.995586638     A.U. after   10 cycles
 SCF Done:  E(RB3LYP) =  -711.995597184     A.U. after    9 cycles
 SCF Done:  E(RB3LYP) =  -711.995604341     A.U. after    9 cycles
 SCF Done:  E(RB3LYP) =  -711.995605456     A.U. after    8 cycles
 SCF Done:  E(RB3LYP) =  -711.995605674     A.U. after    7 cycles
 Optimization completed.
    -- Stationary point found.

                         Standard orientation:
 ---------------------------------------------------------------------
 Center     Atomic      Atomic             Coordinates (Angstroms)
 Number     Number       Type             X           Y           Z
 ---------------------------------------------------------------------
      1          6           0        5.770380    0.090968   -1.221768
      2          8           0        5.339332   -0.832624   -0.243288
      3          6           0        4.273052   -0.367371    0.567885
      4          6           0        2.909091   -0.397850   -0.130084
      5          6           0        1.763655   -0.021900    0.812614
      6          7           0        0.484547   -0.015636    0.103400
      7          6           0       -0.681359    0.305257    0.950139
      8          6           0       -0.863316    1.830732    1.040815
      9          6           0       -1.395460    2.349075   -0.287535
     10          8           0       -2.687556    1.802418   -0.588965
     11          6           0       -2.851642    0.465741   -0.367162
     12          6           0       -4.019371   -0.110736   -0.886628
     13          6           0       -4.276956   -1.462360   -0.689106
     14          6           0       -3.377925   -2.254895    0.033003
     15          6           0       -2.226680   -1.671027    0.554565
     16          6           0       -1.939053   -0.312163    0.366683
     17          1           0        6.054551    1.055609   -0.769916
     18          1           0        5.009090    0.281285   -1.992939
     19          1           0        6.649970   -0.345374   -1.702889
     20          1           0        4.259356   -1.033079    1.438916
     21          1           0        4.490268    0.651477    0.934090
     22          1           0        2.894032    0.286876   -0.985986
     23          1           0        2.750093   -1.410006   -0.527220
     24          1           0        1.758403   -0.704319    1.686285
     25          1           0        1.940323    0.984704    1.214931
     26          1           0        0.336504   -0.927207   -0.325486
     27          1           0       -0.542959   -0.100403    1.969348
     28          1           0        0.088572    2.321781    1.271860
     29          1           0       -1.566914    2.076159    1.846100
     30          1           0       -1.539516    3.432304   -0.282466
     31          1           0       -0.697158    2.080939   -1.090602
     32          1           0       -4.703303    0.523210   -1.442506
     33          1           0       -5.183525   -1.899894   -1.098925
     34          1           0       -3.579084   -3.309893    0.194354
     35          1           0       -1.531234   -2.273892    1.136742
 ---------------------------------------------------------------------

 The electronic state is 1-A.
 Alpha  occ. eigenvalues --  -19.16796 -19.14485 -14.32068 -10.24164 -10.23303
 Alpha  occ. eigenvalues --  -10.23089 -10.22526 -10.22150 -10.21311 -10.18906
 Alpha  occ. eigenvalues --  -10.18846 -10.18704 -10.18679 -10.18379 -10.18040
 Alpha  occ. eigenvalues --  -10.18007  -1.05598  -1.02690  -0.91050  -0.84545
 Alpha  occ. eigenvalues --   -0.79833  -0.76563  -0.74861  -0.73429  -0.70025
 Alpha  occ. eigenvalues --   -0.65687  -0.64241  -0.61691  -0.60125  -0.59214
 Alpha  occ. eigenvalues --   -0.54999  -0.51761  -0.50330  -0.49204  -0.48717
 Alpha  occ. eigenvalues --   -0.48328  -0.45927  -0.45639  -0.44742  -0.44154
 Alpha  occ. eigenvalues --   -0.43611  -0.42485  -0.41613  -0.40195  -0.38906
 Alpha  occ. eigenvalues --   -0.38557  -0.38225  -0.37551  -0.35867  -0.35826
 Alpha  occ. eigenvalues --   -0.34774  -0.34265  -0.33069  -0.31304  -0.30798
 Alpha  occ. eigenvalues --   -0.30058  -0.25221  -0.24751  -0.22475  -0.21225
 Alpha virt. eigenvalues --   -0.00178   0.01556   0.08054   0.09094   0.09992
 Alpha virt. eigenvalues --    0.10397   0.11490   0.11834   0.13251   0.13620
 Alpha virt. eigenvalues --    0.14298   0.15156   0.15336   0.15553   0.16136

 Mulliken charges:
               1
     1  C   -0.199088
     2  O   -0.459493
     3  C   -0.016778
     4  C   -0.291458
     5  C   -0.120298
     6  N   -0.566154
     7  C   -0.024794
     8  C   -0.290160
     9  C   -0.037198
    10  O   -0.527463
    11  C    0.335671
    12  C   -0.184801
    13  C   -0.131614
    14  C   -0.135946
    15  C   -0.194850
    16  C    0.085529
    17  H    0.127511
    18  H    0.134576
    19  H    0.158602
    20  H    0.141756
    21  H    0.115349
    22  H    0.151715
    23  H    0.142742
    24  H    0.113273
    25  H    0.138187
    26  H    0.301717
    27  H    0.120219
    28  H    0.140665
    29  H    0.149836
    30  H    0.147820
    31  H    0.161887
    32  H    0.136592
    33  H    0.128926
    34  H    0.124527
    35  H    0.122995
 Sum of Mulliken charges =  -0.00000

 Dipole moment (field-independent basis, Debye):
    X=              0.7905    Y=              0.5909    Z=              0.6759  Tot=              1.1962
 Quadrupole moment (field-independent basis, Debye-Ang):
   XX=           -102.2510   YY=            -92.6394   ZZ=            -95.5200
   XY=              9.4827   XZ=             -1.0595   YZ=              0.2726

 Normal termination of Gaussian 16 at Fri Nov  4 18:41:00 2022.
