 Gaussian 16, Revision B.01,
 Gaussian 16:  ES64L-G16RevB.01 20-Dec-2017

 -------------------------------------------------------------------
 #p b3lyp/6-31g(d) 6D 10F nosymm GFInput td=(50-50,nstate=2) SCF=XQC
 -------------------------------------------------------------------

 ------------------------------
 Gaussian input prepared by ASE
 ------------------------------
 Symbolic Z-matrix:
 Charge =  0 Multiplicity = 1

                          Input orientation:
 ---------------------------------------------------------------------
 Center     Atomic      Atomic             Coordinates (Angstroms)
 Number     Number       Type             X           Y           Z
 ---------------------------------------------------------------------
      1          6           0        5.322994    0.408021   -1.597904
      2          8           0        4.743933   -0.880735   -1.591124
      3          6           0        3.775189   -1.079203   -0.574483
      4          6           0        2.423770   -0.421679   -0.874168
      5          6           0        1.362226   -0.768629    0.172154
      6          7           0        0.100646   -0.088174   -0.118601
      7          6           0       -0.990763   -0.395683    0.826671
      8          6           0       -0.909692    0.537846    2.047472
      9          6           0       -1.349928    1.935517    1.636283
     10          8           0       -2.717265    1.952526    1.201189
     11          6           0       -3.106123    0.941658    0.370670
     12          6           0       -4.356697    1.091021   -0.245380
     13          6           0       -4.840312    0.099101   -1.090641
     14          6           0       -4.087250   -1.056044   -1.328017
     15          6           0       -2.851652   -1.200437   -0.702924
     16          6           0       -2.337171   -0.214430    0.150092
     17          1           0        5.768910    0.656099   -0.620627
     18          1           0        4.602828    1.197497   -1.859777
     19          1           0        6.113769    0.395516   -2.352933
     20          1           0        3.650990   -2.165995   -0.500290
     21          1           0        4.164098   -0.724065    0.396067
     22          1           0        2.522926    0.669037   -0.920525
     23          1           0        2.093269   -0.755428   -1.867565
     24          1           0        1.243506   -1.869102    0.234501
     25          1           0        1.709208   -0.444303    1.162476
     26          1           0       -0.202015   -0.334300   -1.059155
     27          1           0       -0.920284   -1.443792    1.171639
     28          1           0        0.112714    0.575395    2.439746
     29          1           0       -1.558562    0.162758    2.848748
     30          1           0       -1.307181    2.644948    2.466370
     31          1           0       -0.710141    2.294880    0.820213
     32          1           0       -4.924315    1.994723   -0.045925
     33          1           0       -5.809510    0.226453   -1.565708
     34          1           0       -4.464809   -1.835702   -1.983077
     35          1           0       -2.267306   -2.105294   -0.863533
 ---------------------------------------------------------------------

 SCF Done:  E(RB3LYP) =  -711.995606818     A.U. after   13 cycles

 Excitation energies and oscillator strengths:

 Excited state symmetry could not be determined.
 Excited State   1:      Triplet-?Sym    3.6826 eV  336.68 nm  f=0.0000  <S**2>=2.000
      57 -> 61        -0.12839
      58 -> 61         0.38109
      59 -> 61         0.20990
      60 -> 61        -0.11494
      60 -> 62         0.51741
 This state for optimization and/or second-order correction.
 Total Energy, E(TD-HF/TD-DFT) =  -711.860275548
 Copying the excited state density for this state as the 1-particle RhoCI density.

 Excited state symmetry could not be determined.
 Excited State   2:      Triplet-?Sym    4.0818 eV  303.75 nm  f=0.0000  <S**2>=2.000
      60 -> 61         0.68584

 Excited state symmetry could not be determined.
 Excited State   3:      Singlet-?Sym    4.9704 eV  249.45 nm  f=0.0381  <S**2>=0.000
      58 -> 62        -0.22152
      59 -> 62        -0.17204
      60 -> 61         0.64237

 Excited state symmetry could not be determined.
 Excited State   4:      Singlet-?Sym    5.2934 eV  234.22 nm  f=0.0039  <S**2>=0.000
      58 -> 61        -0.11304
      59 -> 61         0.69080

 Alpha  occ. eigenvalues --  -19.16796 -19.14485 -14.32068 -10.24164 -10.23303
 Alpha  occ. eigenvalues --  -10.23089 -10.22526 -10.22150 -10.21311 -10.18906
 Alpha  occ. eigenvalues --  -10.18846 -10.18704 -10.18679 -10.18379 -10.18040
 Alpha  occ. eigenvalues --  -10.18007  -1.05598  -1.02690  -0.91050  -0.84545
 Alpha  occ. eigenvalues --   -0.79833  -0.76563  -0.74861  -0.73429  -0.70025
 Alpha  occ. eigenvalues --   -0.65687  -0.64241  -0.61691  -0.60125  -0.59214
 Alpha  occ. eigenvalues --   -0.54999  -0.51761  -0.50330  -0.49204  -0.48717
 Alpha  occ. eigenvalues --   -0.48328  -0.45927  -0.45639  -0.44742  -0.44154
 Alpha  occ. eigenvalues --   -0.43611  -0.42485  -0.41613  -0.40195  -0.38906
 Alpha  occ. eigenvalues --   -0.38556  -0.38225  -0.37551  -0.35867  -0.35826
 Alpha  occ. eigenvalues --   -0.34774  -0.34265  -0.33069  -0.31304  -0.30798
 Alpha  occ. eigenvalues --   -0.30058  -0.25221  -0.24751  -0.22475  -0.21225
 Alpha virt. eigenvalues --   -0.00178   0.01556   0.08054   0.09094   0.09992
 Alpha virt. eigenvalues --    0.10397   0.11490   0.11834   0.13251   0.13620
 Alpha virt. eigenvalues --    0.14297   0.15156   0.15336   0.15553   0.16136

 Mulliken charges:
               1
     1  C   -0.199082
     2  O   -0.459492
     3  C   -0.016794
     4  C   -0.291446
     5  C   -0.120300
     6  N   -0.566161
     7  C   -0.024759
     8  C   -0.290172
     9  C   -0.037197
    10  O   -0.527459
    11  C    0.335677
    12  C   -0.184801
    13  C   -0.131617
    14  C   -0.135945
    15  C   -0.194842
    16  C    0.085503
    17  H    0.127510
    18  H    0.134575
    19  H    0.158601
    20  H    0.141758
    21  H    0.115351
    22  H    0.151714
    23  H    0.142740
    24  H    0.113272
    25  H    0.138187
    26  H    0.301718
    27  H    0.120219
    28  H    0.140664
    29  H    0.149835
    30  H    0.147821
    31  H    0.161887
    32  H    0.136591
    33  H    0.128926
    34  H    0.124527
    35  H    0.122991
 Sum of Mulliken charges =  -0.00000

 Dipole moment (field-independent basis, Debye):
    X=              0.8818    Y=             -0.2175    Z=              0.7784  Tot=              1.1962
 Quadrupole moment (field-independent basis, Debye-Ang):
   XX=            -99.4524   YY=            -96.1998   ZZ=            -95.6144
   XY=              7.7644   XZ=              6.9532   YZ=             -0.2880

 Normal termination of Gaussian 16 at Sat Nov  5 11:32:51 2022.
