 Gaussian 16, Revision B.01,
 Gaussian 16:  ES64L-G16RevB.01 20-Dec-2017

 -----------------------------
 #p b3lyp/6-31g(d) opt SCF=XQC
 -----------------------------

 ------------------------------
 Gaussian input prepared by ASE
 ------------------------------
 Symbolic Z-matrix:
 Charge =  0 Multiplicity = 1

 SCF Done:  E(RB3LYP) =  -1758.81990766     A.U. after   15 cycles
 SCF Done:  E(RB3LYP) =  -1758.82644862     A.U. after   13 cycles
 SCF Done:  E(RB3LYP) =  -1758.82731056     A.U. after   12 cycles
 SCF Done:  E(RB3LYP) =  -1758.82746805     A.U. after   12 cycles
 SCF Done:  E(RB3LYP) =  -1758.82758103     A.U. after   12 cycles
 SCF Done:  E(RB3LYP) =  -1758.82766594     A.U. after   11 cycles
 SCF Done:  E(RB3LYP) =  -1758.82773215     A.U. after   12 cycles
 SCF Done:  E(RB3LYP) =  -1758.82775462     A.U. after   11 cycles
 SCF Done:  E(RB3LYP) =  -1758.82779367     A.U. after   11 cycles
 SCF Done:  E(RB3LYP) =  -1758.82780483     A.U. after   10 cycles
 SCF Done:  E(RB3LYP) =  -1758.82798809     A.U. after    8 cycles
 SCF Done:  E(RB3LYP) =  -1758.82509077     A.U. after   14 cycles
 SCF Done:  E(RB3LYP) =  -1758.82780732     A.U. after   12 cycles
 SCF Done:  E(RB3LYP) =  -1758.82802005     A.U. after    9 cycles
 SCF Done:  E(RB3LYP) =  -1758.82803867     A.U. after   12 cycles
 SCF Done:  E(RB3LYP) =  -1758.82804424     A.U. after   10 cycles
 SCF Done:  E(RB3LYP) =  -1758.82804603     A.U. after    9 cycles
 SCF Done:  E(RB3LYP) =  -1758.82804686     A.U. after    9 cycles
 SCF Done:  E(RB3LYP) =  -1758.82804703     A.U. after    8 cycles
 SCF Done:  E(RB3LYP) =  -1758.82804705     A.U. after    7 cycles
 Optimization completed.
    -- Stationary point found.

                         Standard orientation:
 ---------------------------------------------------------------------
 Center     Atomic      Atomic             Coordinates (Angstroms)
 Number     Number       Type             X           Y           Z
 ---------------------------------------------------------------------
      1          6           0        9.055429    1.758916   -1.435649
      2          8           0        7.736301    1.369991   -1.025619
      3          6           0        7.649273    0.152085   -0.440764
      4          8           0        8.612561   -0.571046   -0.269442
      5          6           0        6.259094   -0.188572   -0.040531
      6          6           0        5.171637    0.668575   -0.253912
      7          6           0        3.883904    0.311753    0.135303
      8          6           0        3.670927   -0.930652    0.754502
      9          7           0        2.403857   -1.377386    1.179292
     10          6           0        1.187605   -0.731717    1.117868
     11          8           0        1.017655    0.370869    0.620794
     12          6           0        0.042757   -1.512006    1.764927
     13          6           0       -1.328746   -1.149495    1.180740
     14          6           0       -1.713218    0.308549    1.463340
     15          8           0       -1.699540    0.838446    2.554222
     16          7           0       -2.124428    0.851173    0.254901
     17          6           0       -2.557012    2.199274    0.064405
     18          6           0       -2.122223    2.931014   -1.049199
     19          6           0       -2.545587    4.240064   -1.225557
     20          6           0       -3.394287    4.846758   -0.287900
     21          8           0       -3.743099    6.139438   -0.553266
     22          6           0       -4.597773    6.804630    0.362486
     23          6           0       -3.819785    4.119209    0.828769
     24          6           0       -3.405289    2.796480    0.996191
     25          6           0       -1.988394   -0.088414   -0.799591
     26          8           0       -2.308569    0.087166   -1.960346
     27          7           0       -1.447473   -1.234251   -0.261606
     28          6           0       -1.412019   -2.478413   -1.020447
     29          6           0       -2.580961   -3.406200   -0.733421
     30          6           0       -2.385544   -4.636287   -0.096321
     31          6           0       -3.468311   -5.479675    0.169052
     32          6           0       -4.759745   -5.104081   -0.195029
     33          6           0       -4.936051   -3.876567   -0.828419
     34          9           0       -6.181738   -3.507861   -1.190346
     35          6           0       -3.877672   -3.022777   -1.105049
     36          6           0        4.759535   -1.794023    0.971005
     37          6           0        6.037069   -1.426589    0.577998
     38          1           0        8.943248    2.748598   -1.879582
     39          1           0        9.454920    1.051796   -2.167619
     40          1           0        9.729909    1.796951   -0.575986
     41          1           0        5.334993    1.628298   -0.731119
     42          1           0        3.048427    0.976330   -0.031036
     43          1           0        2.403940   -2.285020    1.625901
     44          1           0        0.010716   -1.253235    2.831599
     45          1           0        0.207416   -2.594456    1.701031
     46          1           0       -2.078979   -1.788050    1.671550
     47          1           0       -1.467226    2.468781   -1.777059
     48          1           0       -2.223104    4.818706   -2.085163
     49          1           0       -5.571724    6.303710    0.443470
     50          1           0       -4.144936    6.874290    1.360504
     51          1           0       -4.742147    7.809578   -0.038493
     52          1           0       -4.472684    4.562489    1.571481
     53          1           0       -3.732027    2.239020    1.865625
     54          1           0       -1.404815   -2.182430   -2.072863
     55          1           0       -0.466302   -2.992635   -0.813887
     56          1           0       -1.380946   -4.942840    0.185671
     57          1           0       -3.305427   -6.433764    0.662382
     58          1           0       -5.619659   -5.737070   -0.002910
     59          1           0       -4.061267   -2.079921   -1.611301
     60          1           0        4.598078   -2.757369    1.451072
     61          1           0        6.881390   -2.087710    0.742215
 ---------------------------------------------------------------------

 The electronic state is 1-A.
 Alpha  occ. eigenvalues --  -24.70875 -19.19122 -19.17548 -19.14183 -19.13651
 Alpha  occ. eigenvalues --  -19.13149 -19.12793 -14.39917 -14.39020 -14.37719
 Alpha  occ. eigenvalues --  -10.32529 -10.31668 -10.31327 -10.30720 -10.28047
 Alpha  occ. eigenvalues --  -10.25768 -10.25601 -10.24442 -10.24297 -10.23960
 Alpha  occ. eigenvalues --  -10.23916 -10.22793 -10.22495 -10.21710 -10.21106
 Alpha  occ. eigenvalues --  -10.20751 -10.20591 -10.20582 -10.20505 -10.20451
 Alpha  occ. eigenvalues --  -10.20345 -10.20250 -10.19607 -10.19012 -10.18783
 Alpha  occ. eigenvalues --  -10.18612 -10.18158  -1.22074  -1.09915  -1.07633
 Alpha  occ. eigenvalues --   -1.06136  -1.06071  -1.04601  -1.00940  -0.98022
 Alpha  occ. eigenvalues --   -0.96326  -0.93689  -0.87362  -0.86481  -0.84620
 Alpha  occ. eigenvalues --   -0.81392  -0.78903  -0.77336  -0.76048  -0.75997
 Alpha  occ. eigenvalues --   -0.75714  -0.74671  -0.72918  -0.71880  -0.69407
 Alpha  occ. eigenvalues --   -0.69159  -0.65146  -0.63695  -0.63203  -0.62827
 Alpha  occ. eigenvalues --   -0.62238  -0.60654  -0.59488  -0.58749  -0.57131
 Alpha  occ. eigenvalues --   -0.56881  -0.55462  -0.54221  -0.53867  -0.53147
 Alpha  occ. eigenvalues --   -0.52632  -0.51680  -0.50683  -0.49857  -0.49423
 Alpha  occ. eigenvalues --   -0.48685  -0.47939  -0.47524  -0.47141  -0.47011
 Alpha  occ. eigenvalues --   -0.46601  -0.46262  -0.45763  -0.45467  -0.45208
 Alpha  occ. eigenvalues --   -0.44488  -0.44368  -0.43920  -0.43876  -0.43580
 Alpha  occ. eigenvalues --   -0.43285  -0.42582  -0.42273  -0.42211  -0.41707
 Alpha  occ. eigenvalues --   -0.41110  -0.40967  -0.40396  -0.39927  -0.39406
 Alpha  occ. eigenvalues --   -0.39151  -0.38836  -0.38712  -0.37802  -0.37386
 Alpha  occ. eigenvalues --   -0.36740  -0.36414  -0.36312  -0.36092  -0.35525
 Alpha  occ. eigenvalues --   -0.35054  -0.32826  -0.32323  -0.31982  -0.30022
 Alpha  occ. eigenvalues --   -0.29051  -0.28307  -0.27623  -0.27210  -0.26945
 Alpha  occ. eigenvalues --   -0.26431  -0.26117  -0.25457  -0.25368  -0.24684
 Alpha  occ. eigenvalues --   -0.23617  -0.20838
 Alpha virt. eigenvalues --   -0.05034  -0.02543  -0.01226  -0.01188  -0.00761
 Alpha virt. eigenvalues --    0.00351   0.00576   0.01116   0.04193   0.06603
 Alpha virt. eigenvalues --    0.07097   0.07727   0.09174   0.09615   0.09716

 Mulliken charges:
               1
     1  C   -0.215739
     2  O   -0.467584
     3  C    0.589643
     4  O   -0.495568
     5  C    0.059937
     6  C   -0.179607
     7  C   -0.166944
     8  C    0.369032
     9  N   -0.734051
    10  C    0.659247
    11  O   -0.491682
    12  C   -0.406516
    13  C   -0.041724
    14  C    0.634423
    15  O   -0.502004
    16  N   -0.639083
    17  C    0.297745
    18  C   -0.130513
    19  C   -0.192196
    20  C    0.387391
    21  O   -0.507634
    22  C   -0.215446
    23  C   -0.213006
    24  C   -0.146187
    25  C    0.824839
    26  O   -0.532402
    27  N   -0.474622
    28  C   -0.244669
    29  C    0.158059
    30  C   -0.191052
    31  C   -0.127685
    32  C   -0.194257
    33  C    0.386799
    34  F   -0.293692
    35  C   -0.258627
    36  C   -0.206905
    37  C   -0.158870
    38  H    0.164447
    39  H    0.170946
    40  H    0.171067
    41  H    0.163247
    42  H    0.194523
    43  H    0.334744
    44  H    0.212942
    45  H    0.151567
    46  H    0.184674
    47  H    0.162531
    48  H    0.142382
    49  H    0.152193
    50  H    0.153399
    51  H    0.169820
    52  H    0.134644
    53  H    0.154582
    54  H    0.206219
    55  H    0.150216
    56  H    0.122237
    57  H    0.141557
    58  H    0.150975
    59  H    0.178581
    60  H    0.127863
    61  H    0.165793
 Sum of Mulliken charges =  -0.00000

 Dipole moment (field-independent basis, Debye):
    X=             -0.0468    Y=             -3.0530    Z=              2.3928  Tot=              3.8792
 Quadrupole moment (field-independent basis, Debye-Ang):
   XX=           -218.4097   YY=           -173.6478   ZZ=           -214.1536
   XY=              1.5991   XZ=            -14.3852   YZ=             -9.4142

 Normal termination of Gaussian 16 at Fri Nov  4 20:08:58 2022.
