 Gaussian 16, Revision B.01,
 Gaussian 16:  ES64L-G16RevB.01 20-Dec-2017

 -------------------------------------------------------------------
 #p b3lyp/6-31g(d) 6D 10F nosymm GFInput td=(50-50,nstate=2) SCF=XQC
 -------------------------------------------------------------------

 ------------------------------
 Gaussian input prepared by ASE
 ------------------------------
 Symbolic Z-matrix:
 Charge =  0 Multiplicity = 1

                          Input orientation:
 ---------------------------------------------------------------------
 Center     Atomic      Atomic             Coordinates (Angstroms)
 Number     Number       Type             X           Y           Z
 ---------------------------------------------------------------------
      1          6           0        8.775941   -2.360995    1.760234
      2          8           0        7.484992   -1.965583    1.273833
      3          6           0        7.500644   -1.094464    0.237575
      4          8           0        8.528567   -0.669192   -0.255083
      5          6           0        6.134259   -0.727017   -0.217184
      6          6           0        4.970472   -1.235668    0.374148
      7          6           0        3.708353   -0.865710   -0.081101
      8          6           0        3.599567    0.033758   -1.154163
      9          7           0        2.366080    0.466755   -1.680002
     10          6           0        1.087843    0.107175   -1.310212
     11          8           0        0.825110   -0.654565   -0.392398
     12          6           0       -0.003526    0.729951   -2.181577
     13          6           0       -1.345313    0.862702   -1.449663
     14          6           0       -1.944418   -0.501333   -1.083533
     15          8           0       -2.109821   -1.423877   -1.853309
     16          7           0       -2.300261   -0.431254    0.255245
     17          6           0       -2.884988   -1.496178    1.006794
     18          6           0       -2.440812   -1.771047    2.307468
     19          6           0       -3.012730   -2.808097    3.029541
     20          6           0       -4.023403   -3.598388    2.462488
     21          8           0       -4.510728   -4.596513    3.255816
     22          6           0       -5.532788   -5.429526    2.733290
     23          6           0       -4.459274   -3.330030    1.160440
     24          6           0       -3.893410   -2.275616    0.441094
     25          6           0       -1.937008    0.820731    0.815480
     26          8           0       -2.159606    1.186765    1.954410
     27          7           0       -1.306817    1.544938   -0.171104
     28          6           0       -1.032343    2.966685   -0.002774
     29          6           0       -2.092034    3.872465   -0.607934
     30          6           0       -1.801452    4.687766   -1.707043
     31          6           0       -2.785074    5.512583   -2.260462
     32          6           0       -4.071655    5.531108   -1.725864
     33          6           0       -4.343423    4.713530   -0.631896
     34          9           0       -5.584196    4.730001   -0.103801
     35          6           0       -3.384092    3.887871   -0.063022
     36          6           0        4.764993    0.546549   -1.750970
     37          6           0        6.016039    0.170235   -1.287474
     38          1           0        8.579699   -3.052151    2.580553
     39          1           0        9.336179   -1.491720    2.115038
     40          1           0        9.350056   -2.853676    0.970899
     41          1           0        5.053250   -1.930744    1.202095
     42          1           0        2.813680   -1.260955    0.377914
     43          1           0        2.440715    1.101111   -2.464401
     44          1           0       -0.175963    0.068407   -3.040880
     45          1           0        0.307524    1.702700   -2.581452
     46          1           0       -2.050470    1.358031   -2.134425
     47          1           0       -1.661175   -1.164804    2.751422
     48          1           0       -2.684634   -3.030566    4.039790
     49          1           0       -6.435631   -4.855143    2.486274
     50          1           0       -5.195283   -5.971226    1.839643
     51          1           0       -5.767090   -6.146698    3.522160
     52          1           0       -5.235838   -3.925614    0.695012
     53          1           0       -4.229470   -2.075506   -0.569081
     54          1           0       -0.958735    3.127625    1.076075
     55          1           0       -0.052733    3.192610   -0.439575
     56          1           0       -0.798616    4.686786   -2.127796
     57          1           0       -2.548450    6.143466   -3.112629
     58          1           0       -4.855803    6.160644   -2.133090
     59          1           0       -3.638371    3.275684    0.796946
     60          1           0        4.684279    1.243413   -2.583095
     61          1           0        6.919193    0.561812   -1.743442
 ---------------------------------------------------------------------

 SCF Done:  E(RB3LYP) =  -1758.82805047     A.U. after   15 cycles

 Excitation energies and oscillator strengths:

 Excited state symmetry could not be determined.
 Excited State   1:      Triplet-?Sym    3.2513 eV  381.34 nm  f=0.0000  <S**2>=2.000
     126 ->135         0.21829
     131 ->133         0.64869
 This state for optimization and/or second-order correction.
 Total Energy, E(TD-HF/TD-DFT) =  -1758.70856897
 Copying the excited state density for this state as the 1-particle RhoCI density.

 Excited state symmetry could not be determined.
 Excited State   2:      Triplet-?Sym    3.5844 eV  345.90 nm  f=0.0000  <S**2>=2.000
     130 ->138         0.32390
     132 ->136         0.32944
     132 ->137        -0.17504
     132 ->138        -0.11016
     132 ->139         0.15773
     132 ->140         0.41169

 Excited state symmetry could not be determined.
 Excited State   3:      Singlet-?Sym    3.9467 eV  314.14 nm  f=0.0031  <S**2>=0.000
     132 ->133         0.70478

 Excited state symmetry could not be determined.
 Excited State   4:      Singlet-?Sym    4.5660 eV  271.54 nm  f=0.0118  <S**2>=0.000
     132 ->134         0.70374

 Alpha  occ. eigenvalues --  -24.70875 -19.19122 -19.17548 -19.14183 -19.13651
 Alpha  occ. eigenvalues --  -19.13149 -19.12793 -14.39917 -14.39020 -14.37719
 Alpha  occ. eigenvalues --  -10.32529 -10.31668 -10.31327 -10.30720 -10.28047
 Alpha  occ. eigenvalues --  -10.25768 -10.25601 -10.24442 -10.24297 -10.23960
 Alpha  occ. eigenvalues --  -10.23916 -10.22793 -10.22495 -10.21711 -10.21106
 Alpha  occ. eigenvalues --  -10.20751 -10.20591 -10.20583 -10.20505 -10.20451
 Alpha  occ. eigenvalues --  -10.20345 -10.20250 -10.19607 -10.19012 -10.18783
 Alpha  occ. eigenvalues --  -10.18612 -10.18158  -1.22074  -1.09915  -1.07633
 Alpha  occ. eigenvalues --   -1.06136  -1.06071  -1.04601  -1.00940  -0.98022
 Alpha  occ. eigenvalues --   -0.96326  -0.93689  -0.87362  -0.86481  -0.84619
 Alpha  occ. eigenvalues --   -0.81392  -0.78903  -0.77336  -0.76048  -0.75997
 Alpha  occ. eigenvalues --   -0.75714  -0.74671  -0.72918  -0.71880  -0.69407
 Alpha  occ. eigenvalues --   -0.69159  -0.65146  -0.63695  -0.63203  -0.62827
 Alpha  occ. eigenvalues --   -0.62238  -0.60654  -0.59488  -0.58749  -0.57131
 Alpha  occ. eigenvalues --   -0.56881  -0.55462  -0.54221  -0.53867  -0.53147
 Alpha  occ. eigenvalues --   -0.52632  -0.51680  -0.50683  -0.49857  -0.49423
 Alpha  occ. eigenvalues --   -0.48685  -0.47939  -0.47524  -0.47141  -0.47011
 Alpha  occ. eigenvalues --   -0.46601  -0.46262  -0.45763  -0.45467  -0.45208
 Alpha  occ. eigenvalues --   -0.44488  -0.44368  -0.43920  -0.43876  -0.43580
 Alpha  occ. eigenvalues --   -0.43285  -0.42582  -0.42273  -0.42211  -0.41707
 Alpha  occ. eigenvalues --   -0.41110  -0.40967  -0.40396  -0.39927  -0.39406
 Alpha  occ. eigenvalues --   -0.39151  -0.38836  -0.38712  -0.37802  -0.37386
 Alpha  occ. eigenvalues --   -0.36740  -0.36414  -0.36312  -0.36092  -0.35525
 Alpha  occ. eigenvalues --   -0.35054  -0.32826  -0.32323  -0.31982  -0.30022
 Alpha  occ. eigenvalues --   -0.29051  -0.28307  -0.27623  -0.27210  -0.26945
 Alpha  occ. eigenvalues --   -0.26431  -0.26117  -0.25457  -0.25368  -0.24684
 Alpha  occ. eigenvalues --   -0.23617  -0.20838
 Alpha virt. eigenvalues --   -0.05034  -0.02543  -0.01226  -0.01188  -0.00761
 Alpha virt. eigenvalues --    0.00351   0.00576   0.01116   0.04193   0.06603
 Alpha virt. eigenvalues --    0.07097   0.07727   0.09174   0.09615   0.09716

 Mulliken charges:
               1
     1  C   -0.215737
     2  O   -0.467584
     3  C    0.589641
     4  O   -0.495567
     5  C    0.059920
     6  C   -0.179602
     7  C   -0.166932
     8  C    0.369012
     9  N   -0.734054
    10  C    0.659273
    11  O   -0.491693
    12  C   -0.406552
    13  C   -0.041710
    14  C    0.634435
    15  O   -0.502012
    16  N   -0.639092
    17  C    0.297749
    18  C   -0.130519
    19  C   -0.192190
    20  C    0.387377
    21  O   -0.507633
    22  C   -0.215440
    23  C   -0.212999
    24  C   -0.146183
    25  C    0.824854
    26  O   -0.532417
    27  N   -0.474623
    28  C   -0.244665
    29  C    0.158047
    30  C   -0.191052
    31  C   -0.127687
    32  C   -0.194251
    33  C    0.386790
    34  F   -0.293691
    35  C   -0.258621
    36  C   -0.206897
    37  C   -0.158857
    38  H    0.164447
    39  H    0.170946
    40  H    0.171066
    41  H    0.163247
    42  H    0.194522
    43  H    0.334743
    44  H    0.212945
    45  H    0.151574
    46  H    0.184675
    47  H    0.162533
    48  H    0.142382
    49  H    0.152191
    50  H    0.153398
    51  H    0.169819
    52  H    0.134644
    53  H    0.154582
    54  H    0.206219
    55  H    0.150218
    56  H    0.122238
    57  H    0.141557
    58  H    0.150975
    59  H    0.178582
    60  H    0.127863
    61  H    0.165792
 Sum of Mulliken charges =  -0.00000

 Dipole moment (field-independent basis, Debye):
    X=              0.1154    Y=              1.7790    Z=             -3.4454  Tot=              3.8793
 Quadrupole moment (field-independent basis, Debye-Ang):
   XX=           -215.4298   YY=           -189.4886   ZZ=           -201.3380
   XY=              8.1584   XZ=             10.9357   YZ=            -23.9225

 Normal termination of Gaussian 16 at Sat Nov  5 11:55:44 2022.
