 Gaussian 16, Revision B.01,
 Gaussian 16:  ES64L-G16RevB.01 20-Dec-2017

 -------------------------------------------------------------------
 #p b3lyp/6-31g(d) 6D 10F nosymm GFInput td=(50-50,nstate=2) SCF=XQC
 -------------------------------------------------------------------

 ------------------------------
 Gaussian input prepared by ASE
 ------------------------------
 Symbolic Z-matrix:
 Charge =  0 Multiplicity = 1

                          Input orientation:
 ---------------------------------------------------------------------
 Center     Atomic      Atomic             Coordinates (Angstroms)
 Number     Number       Type             X           Y           Z
 ---------------------------------------------------------------------
      1          8           0       -1.720354    0.635904    3.662931
      2          6           0       -0.518723    0.388635    3.545712
      3          6           0        0.042517   -1.028410    3.775914
      4          6           0        0.514753   -1.623859    2.473432
      5          6           0        0.063239   -2.757128    1.866936
      6         16           0        0.815750   -2.943610    0.301462
      7          6           0        1.681176   -1.427990    0.600764
      8          7           0        2.479917   -0.883075   -0.387334
      9          6           0        3.051338    0.395720   -0.373994
     10          8           0        3.170243    1.070072    0.633911
     11          6           0        3.548285    0.841262   -1.715725
     12          6           0        4.742961    1.571291   -1.768412
     13          6           0        5.236323    2.014725   -2.992947
     14          6           0        4.527379    1.753970   -4.169101
     15          6           0        3.319269    1.056523   -4.116722
     16          6           0        2.828537    0.596955   -2.894122
     17          7           0        1.451849   -0.899107    1.760775
     18          7           0        0.417688    1.317499    3.203411
     19          6           0        0.029878    2.627423    2.700935
     20          6           0       -0.191756    2.643682    1.180118
     21          7           0       -1.239601    1.710946    0.790646
     22          6           0       -1.132870    0.867329   -0.270717
     23          8           0       -0.195968    0.904342   -1.072642
     24          6           0       -2.260735   -0.120742   -0.442789
     25          6           0       -2.507428   -0.589629   -1.739620
     26          6           0       -3.527415   -1.503622   -1.980928
     27          6           0       -4.304958   -1.972382   -0.917463
     28          6           0       -5.366110   -3.010410   -1.164137
     29          9           0       -5.908063   -2.894597   -2.396942
     30          9           0       -6.373593   -2.926757   -0.267464
     31          9           0       -4.865090   -4.266205   -1.073808
     32          6           0       -4.054956   -1.525652    0.381875
     33          6           0       -3.038504   -0.601894    0.620631
     34          1           0        0.878622   -0.976783    4.485324
     35          1           0       -0.753562   -1.629991    4.217178
     36          1           0       -0.661965   -3.475980    2.220475
     37          1           0        2.480467   -1.359184   -1.278704
     38          1           0        5.272000    1.779110   -0.843598
     39          1           0        6.170956    2.567386   -3.031623
     40          1           0        4.910351    2.105695   -5.123297
     41          1           0        2.751066    0.881075   -5.025962
     42          1           0        1.857086    0.112085   -2.845669
     43          1           0        1.294348    0.943319    2.843587
     44          1           0       -0.879488    2.925845    3.229791
     45          1           0        0.815348    3.348618    2.950354
     46          1           0        0.719950    2.354676    0.652124
     47          1           0       -0.448421    3.666596    0.868436
     48          1           0       -2.011674    1.596114    1.434137
     49          1           0       -1.886502   -0.220965   -2.549013
     50          1           0       -3.726408   -1.849554   -2.989992
     51          1           0       -4.655134   -1.896560    1.206259
     52          1           0       -2.842012   -0.292714    1.644119
 ---------------------------------------------------------------------

 SCF Done:  E(RB3LYP) =  -1992.23932959     A.U. after   15 cycles

 Excitation energies and oscillator strengths:

 Excited state symmetry could not be determined.
 Excited State   1:      Triplet-?Sym    3.1890 eV  388.79 nm  f=0.0000  <S**2>=2.000
     119 ->124        -0.10523
     123 ->124         0.54855
     123 ->126        -0.28933
     123 ->127        -0.10296
     123 ->128        -0.23587
 This state for optimization and/or second-order correction.
 Total Energy, E(TD-HF/TD-DFT) =  -1992.12213760
 Copying the excited state density for this state as the 1-particle RhoCI density.

 Excited state symmetry could not be determined.
 Excited State   2:      Triplet-?Sym    3.5421 eV  350.03 nm  f=0.0000  <S**2>=2.000
     114 ->124         0.11424
     115 ->124        -0.15720
     116 ->124         0.11288
     117 ->124        -0.14853
     117 ->127         0.19858
     117 ->128        -0.23689
     118 ->124        -0.14578
     119 ->124        -0.12853
     120 ->124         0.38770
     120 ->126         0.13103
     121 ->124         0.18612

 Excited state symmetry could not be determined.
 Excited State   3:      Singlet-?Sym    4.2547 eV  291.41 nm  f=0.1822  <S**2>=0.000
     120 ->124        -0.18010
     123 ->124         0.64640
     123 ->125        -0.13919

 Excited state symmetry could not be determined.
 Excited State   4:      Singlet-?Sym    4.2797 eV  289.70 nm  f=0.0129  <S**2>=0.000
     123 ->124         0.11403
     123 ->125         0.69029

 Alpha  occ. eigenvalues --  -88.92419 -24.72341 -24.72336 -24.71752 -19.13482
 Alpha  occ. eigenvalues --  -19.11856 -19.11356 -14.39784 -14.35989 -14.35310
 Alpha  occ. eigenvalues --  -14.33928 -10.43143 -10.31003 -10.30341 -10.29159
 Alpha  occ. eigenvalues --  -10.29019 -10.23945 -10.22527 -10.22500 -10.22124
 Alpha  occ. eigenvalues --  -10.21902 -10.21218 -10.21190 -10.20934 -10.20902
 Alpha  occ. eigenvalues --  -10.20730 -10.20702 -10.20622 -10.20575 -10.20418
 Alpha  occ. eigenvalues --  -10.20399 -10.20366 -10.20314  -7.98591  -5.95010
 Alpha  occ. eigenvalues --   -5.94655  -5.94234  -1.29882  -1.21368  -1.20860
 Alpha  occ. eigenvalues --   -1.05472  -1.03434  -1.02946  -0.99379  -0.93895
 Alpha  occ. eigenvalues --   -0.93027  -0.91057  -0.87549  -0.86738  -0.80856
 Alpha  occ. eigenvalues --   -0.79845  -0.79254  -0.77176  -0.76246  -0.75827
 Alpha  occ. eigenvalues --   -0.75063  -0.71276  -0.70016  -0.66356  -0.65039
 Alpha  occ. eigenvalues --   -0.63007  -0.62198  -0.62147  -0.61673  -0.60415
 Alpha  occ. eigenvalues --   -0.59071  -0.57710  -0.57482  -0.57444  -0.56404
 Alpha  occ. eigenvalues --   -0.55163  -0.54730  -0.53760  -0.52211  -0.50713
 Alpha  occ. eigenvalues --   -0.49278  -0.48437  -0.47777  -0.46903  -0.46611
 Alpha  occ. eigenvalues --   -0.45987  -0.45573  -0.45472  -0.45182  -0.45070
 Alpha  occ. eigenvalues --   -0.44856  -0.44498  -0.43834  -0.43527  -0.43344
 Alpha  occ. eigenvalues --   -0.42787  -0.42491  -0.41915  -0.41449  -0.41101
 Alpha  occ. eigenvalues --   -0.40853  -0.40403  -0.39850  -0.39724  -0.39522
 Alpha  occ. eigenvalues --   -0.38908  -0.37966  -0.37290  -0.36959  -0.36879
 Alpha  occ. eigenvalues --   -0.36441  -0.36010  -0.35791  -0.35531  -0.35083
 Alpha  occ. eigenvalues --   -0.32117  -0.30242  -0.29185  -0.27007  -0.26940
 Alpha  occ. eigenvalues --   -0.26801  -0.26437  -0.26274  -0.25809  -0.25385
 Alpha  occ. eigenvalues --   -0.25200  -0.24425  -0.22571
 Alpha virt. eigenvalues --   -0.05126  -0.04663  -0.01811  -0.01619  -0.01566
 Alpha virt. eigenvalues --   -0.00645   0.01317   0.04054   0.04858   0.06605
 Alpha virt. eigenvalues --    0.07727   0.08522   0.09774   0.10271   0.10957

 Mulliken charges:
               1
     1  O   -0.542047
     2  C    0.596885
     3  C   -0.425648
     4  C    0.335247
     5  C   -0.396161
     6  S    0.227610
     7  C    0.318597
     8  N   -0.658126
     9  C    0.574329
    10  O   -0.485547
    11  C    0.043858
    12  C   -0.147684
    13  C   -0.135940
    14  C   -0.118310
    15  C   -0.135474
    16  C   -0.176286
    17  N   -0.467975
    18  N   -0.566712
    19  C   -0.174366
    20  C   -0.127624
    21  N   -0.609443
    22  C    0.564967
    23  O   -0.552739
    24  C    0.075082
    25  C   -0.161602
    26  C   -0.167485
    27  C    0.000096
    28  C    0.783198
    29  F   -0.269968
    30  F   -0.269319
    31  F   -0.262751
    32  C   -0.177263
    33  C   -0.205584
    34  H    0.182343
    35  H    0.175760
    36  H    0.183471
    37  H    0.349861
    38  H    0.157625
    39  H    0.140231
    40  H    0.138952
    41  H    0.140024
    42  H    0.167518
    43  H    0.374954
    44  H    0.177235
    45  H    0.162574
    46  H    0.206545
    47  H    0.150453
    48  H    0.350521
    49  H    0.159266
    50  H    0.154952
    51  H    0.158455
    52  H    0.183443
 Sum of Mulliken charges =  -0.00000

 Dipole moment (field-independent basis, Debye):
    X=              3.1139    Y=              0.1001    Z=             -1.7611  Tot=              3.5788
 Quadrupole moment (field-independent basis, Debye-Ang):
   XX=           -200.2321   YY=           -188.6587   ZZ=           -181.7908
   XY=             -4.9877   XZ=             -9.9212   YZ=             -4.5665

 Normal termination of Gaussian 16 at Sat Nov  5 11:57:40 2022.
