 Gaussian 16, Revision B.01,
 Gaussian 16:  ES64L-G16RevB.01 20-Dec-2017

 -----------------------------
 #p b3lyp/6-31g(d) opt SCF=XQC
 -----------------------------

 ------------------------------
 Gaussian input prepared by ASE
 ------------------------------
 Symbolic Z-matrix:
 Charge =  0 Multiplicity = 1

 SCF Done:  E(RB3LYP) =  -1992.22361534     A.U. after   15 cycles
 SCF Done:  E(RB3LYP) =  -1992.22894584     A.U. after   16 cycles
 SCF Done:  E(RB3LYP) =  -1992.23325911     A.U. after   12 cycles
 SCF Done:  E(RB3LYP) =  -1992.20032034     A.U. after   15 cycles
 SCF Done:  E(RB3LYP) =  -1992.23721380     A.U. after   12 cycles
 SCF Done:  E(RB3LYP) =  -1992.23836871     A.U. after   12 cycles
 SCF Done:  E(RB3LYP) =  -1992.23827114     A.U. after   13 cycles
 SCF Done:  E(RB3LYP) =  -1992.23853428     A.U. after   13 cycles
 SCF Done:  E(RB3LYP) =  -1992.23898053     A.U. after   12 cycles
 SCF Done:  E(RB3LYP) =  -1992.23906649     A.U. after   12 cycles
 SCF Done:  E(RB3LYP) =  -1992.23922732     A.U. after   11 cycles
 SCF Done:  E(RB3LYP) =  -1992.23927168     A.U. after   11 cycles
 SCF Done:  E(RB3LYP) =  -1992.23929127     A.U. after   10 cycles
 SCF Done:  E(RB3LYP) =  -1992.23931753     A.U. after   12 cycles
 SCF Done:  E(RB3LYP) =  -1992.23932433     A.U. after   12 cycles
 SCF Done:  E(RB3LYP) =  -1992.23933555     A.U. after   10 cycles
 SCF Done:  E(RB3LYP) =  -1992.23933751     A.U. after   10 cycles
 SCF Done:  E(RB3LYP) =  -1992.23933812     A.U. after    9 cycles
 SCF Done:  E(RB3LYP) =  -1992.23933800     A.U. after    8 cycles
 SCF Done:  E(RB3LYP) =  -1992.23933831     A.U. after    9 cycles
 Optimization completed.
    -- Stationary point found.

                         Standard orientation:
 ---------------------------------------------------------------------
 Center     Atomic      Atomic             Coordinates (Angstroms)
 Number     Number       Type             X           Y           Z
 ---------------------------------------------------------------------
      1          8           0       -1.193673    3.797892   -0.916938
      2          6           0       -0.188096    3.663177   -0.217318
      3          6           0       -0.270819    3.630711    1.321546
      4          6           0        0.049256    2.249545    1.835313
      5          6           0       -0.757222    1.427106    2.562768
      6         16           0        0.008777   -0.127384    2.783135
      7          6           0        1.376479    0.476336    1.834156
      8          7           0        2.421308   -0.370541    1.514173
      9          6           0        3.454707   -0.099515    0.608277
     10          8           0        3.733711    1.021302    0.220093
     11          6           0        4.220235   -1.319354    0.193950
     12          6           0        5.606446   -1.203828    0.026495
     13          6           0        6.356159   -2.309156   -0.368101
     14          6           0        5.723551   -3.529464   -0.622242
     15          6           0        4.338262   -3.639364   -0.489567
     16          6           0        3.584641   -2.538962   -0.079759
     17          7           0        1.264867    1.710549    1.457069
     18          7           0        1.072071    3.526644   -0.717478
     19          6           0        1.296672    3.275428   -2.133537
     20          6           0        1.253414    1.781160   -2.490695
     21          7           0       -0.036635    1.196345   -2.153903
     22          6           0       -0.173123   -0.004139   -1.529578
     23          8           0        0.774377   -0.762383   -1.306988
     24          6           0       -1.579971   -0.388066   -1.140534
     25          6           0       -1.863693   -1.755996   -1.036844
     26          6           0       -3.135643   -2.191199   -0.680857
     27          6           0       -4.138053   -1.255303   -0.407838
     28          6           0       -5.496856   -1.720461    0.041247
     29          9           0       -5.820271   -2.920432   -0.490173
     30          9           0       -6.469470   -0.847772   -0.302960
     31          9           0       -5.555497   -1.860693    1.387761
     32          6           0       -3.860491    0.110922   -0.489911
     33          6           0       -2.587571    0.545408   -0.856522
     34          1           0        0.439923    4.355925    1.738570
     35          1           0       -1.281429    3.930227    1.603170
     36          1           0       -1.741787    1.619726    2.964249
     37          1           0        2.319164   -1.336314    1.793584
     38          1           0        6.079142   -0.244416    0.212070
     39          1           0        7.432951   -2.219816   -0.482159
     40          1           0        6.308903   -4.389619   -0.935871
     41          1           0        3.841405   -4.578199   -0.717768
     42          1           0        2.500660   -2.606580   -0.040019
     43          1           0        1.755083    3.122109   -0.078837
     44          1           0        0.536523    3.830571   -2.690028
     45          1           0        2.276807    3.676289   -2.412716
     46          1           0        2.019395    1.228720   -1.941521
     47          1           0        1.462760    1.665234   -3.564058
     48          1           0       -0.849657    1.788022   -2.264704
     49          1           0       -1.069459   -2.465349   -1.243216
     50          1           0       -3.355202   -3.252127   -0.620018
     51          1           0       -4.638246    0.835033   -0.270467
     52          1           0       -2.386522    1.613397   -0.883119
 ---------------------------------------------------------------------

 The electronic state is 1-A.
 Alpha  occ. eigenvalues --  -88.92420 -24.72341 -24.72336 -24.71752 -19.13482
 Alpha  occ. eigenvalues --  -19.11856 -19.11356 -14.39784 -14.35989 -14.35310
 Alpha  occ. eigenvalues --  -14.33928 -10.43143 -10.31003 -10.30341 -10.29159
 Alpha  occ. eigenvalues --  -10.29019 -10.23945 -10.22527 -10.22500 -10.22124
 Alpha  occ. eigenvalues --  -10.21902 -10.21218 -10.21190 -10.20934 -10.20902
 Alpha  occ. eigenvalues --  -10.20730 -10.20702 -10.20622 -10.20575 -10.20418
 Alpha  occ. eigenvalues --  -10.20399 -10.20365 -10.20314  -7.98592  -5.95011
 Alpha  occ. eigenvalues --   -5.94655  -5.94235  -1.29882  -1.21368  -1.20860
 Alpha  occ. eigenvalues --   -1.05472  -1.03434  -1.02946  -0.99380  -0.93895
 Alpha  occ. eigenvalues --   -0.93027  -0.91057  -0.87549  -0.86738  -0.80856
 Alpha  occ. eigenvalues --   -0.79845  -0.79254  -0.77176  -0.76246  -0.75827
 Alpha  occ. eigenvalues --   -0.75063  -0.71276  -0.70016  -0.66356  -0.65039
 Alpha  occ. eigenvalues --   -0.63007  -0.62198  -0.62147  -0.61673  -0.60415
 Alpha  occ. eigenvalues --   -0.59071  -0.57710  -0.57482  -0.57444  -0.56404
 Alpha  occ. eigenvalues --   -0.55163  -0.54730  -0.53760  -0.52211  -0.50713
 Alpha  occ. eigenvalues --   -0.49278  -0.48437  -0.47777  -0.46903  -0.46611
 Alpha  occ. eigenvalues --   -0.45987  -0.45573  -0.45472  -0.45182  -0.45070
 Alpha  occ. eigenvalues --   -0.44856  -0.44498  -0.43834  -0.43527  -0.43344
 Alpha  occ. eigenvalues --   -0.42787  -0.42491  -0.41915  -0.41449  -0.41101
 Alpha  occ. eigenvalues --   -0.40853  -0.40403  -0.39850  -0.39725  -0.39522
 Alpha  occ. eigenvalues --   -0.38908  -0.37966  -0.37290  -0.36959  -0.36879
 Alpha  occ. eigenvalues --   -0.36441  -0.36010  -0.35791  -0.35531  -0.35083
 Alpha  occ. eigenvalues --   -0.32117  -0.30242  -0.29185  -0.27007  -0.26940
 Alpha  occ. eigenvalues --   -0.26801  -0.26437  -0.26274  -0.25809  -0.25385
 Alpha  occ. eigenvalues --   -0.25200  -0.24425  -0.22571
 Alpha virt. eigenvalues --   -0.05126  -0.04663  -0.01811  -0.01618  -0.01566
 Alpha virt. eigenvalues --   -0.00645   0.01317   0.04054   0.04858   0.06605
 Alpha virt. eigenvalues --    0.07727   0.08522   0.09774   0.10271   0.10957

 Mulliken charges:
               1
     1  O   -0.542019
     2  C    0.596850
     3  C   -0.425657
     4  C    0.335287
     5  C   -0.396166
     6  S    0.227602
     7  C    0.318622
     8  N   -0.658119
     9  C    0.574310
    10  O   -0.485547
    11  C    0.043891
    12  C   -0.147700
    13  C   -0.135940
    14  C   -0.118302
    15  C   -0.135478
    16  C   -0.176296
    17  N   -0.468013
    18  N   -0.566717
    19  C   -0.174371
    20  C   -0.127624
    21  N   -0.609434
    22  C    0.564927
    23  O   -0.552720
    24  C    0.075106
    25  C   -0.161608
    26  C   -0.167500
    27  C    0.000119
    28  C    0.783193
    29  F   -0.269970
    30  F   -0.269316
    31  F   -0.262753
    32  C   -0.177268
    33  C   -0.205588
    34  H    0.182345
    35  H    0.175759
    36  H    0.183474
    37  H    0.349863
    38  H    0.157626
    39  H    0.140231
    40  H    0.138951
    41  H    0.140025
    42  H    0.167518
    43  H    0.374956
    44  H    0.177235
    45  H    0.162576
    46  H    0.206551
    47  H    0.150452
    48  H    0.350521
    49  H    0.159266
    50  H    0.154953
    51  H    0.158456
    52  H    0.183442
 Sum of Mulliken charges =  -0.00000

 Dipole moment (field-independent basis, Debye):
    X=              3.0497    Y=             -1.6372    Z=              0.9094  Tot=              3.5789
 Quadrupole moment (field-independent basis, Debye-Ang):
   XX=           -196.7197   YY=           -184.6572   ZZ=           -187.2007
   XY=            -12.8000   XZ=             -3.3248   YZ=              1.0089

 Normal termination of Gaussian 16 at Fri Nov  4 19:51:57 2022.
