 Gaussian 16, Revision B.01,
 Gaussian 16:  ES64L-G16RevB.01 20-Dec-2017

 -------------------------------------------------------------------
 #p b3lyp/6-31g(d) 6D 10F nosymm GFInput td=(50-50,nstate=2) SCF=XQC
 -------------------------------------------------------------------

 ------------------------------
 Gaussian input prepared by ASE
 ------------------------------
 Symbolic Z-matrix:
 Charge =  0 Multiplicity = 1

                          Input orientation:
 ---------------------------------------------------------------------
 Center     Atomic      Atomic             Coordinates (Angstroms)
 Number     Number       Type             X           Y           Z
 ---------------------------------------------------------------------
      1          6           0       -4.854668    2.220312   -1.480778
      2          6           0       -4.420883    1.225669   -0.402066
      3          7           0       -4.281246   -0.153942   -0.890527
      4          6           0       -5.515779   -0.702446   -1.472933
      5          6           0       -6.724566   -0.871870   -0.534817
      6          6           0       -3.664369   -1.027643    0.110674
      7          6           0       -3.441060   -2.475372   -0.361640
      8          6           0       -2.358167   -2.998641    0.583666
      9          7           0       -1.540470   -1.810143    0.868410
     10          6           0       -0.190985   -1.964052    1.068130
     11          8           0        0.322748   -3.086214    1.087981
     12          6           0        0.625521   -0.735128    1.271718
     13          6           0        0.339880    0.433503    2.034247
     14          7           0        1.350476    1.276139    2.068839
     15          7           0        2.320246    0.676711    1.308370
     16          6           0        3.544242    1.360245    1.114921
     17          7           0        3.839333    2.314804    2.000769
     18          6           0        4.992199    2.953071    1.776094
     19          6           0        5.843859    2.647881    0.721982
     20          6           0        5.433824    1.613356   -0.134048
     21          6           0        6.243850    1.195842   -1.268811
     22          6           0        7.454562    1.622407   -1.759854
     23          6           0        7.738546    0.820536   -2.903029
     24          6           0        6.683444   -0.036708   -3.028222
     25          8           0        5.771060    0.175906   -2.049667
     26          7           0        4.265885    0.977840    0.063190
     27          6           0        1.927144   -0.556093    0.820536
     28          6           0        2.773867   -1.484697    0.010000
     29          6           0       -2.232421   -0.570068    0.483192
     30          1           0       -5.895071    2.080521   -1.791785
     31          1           0       -4.764719    3.242276   -1.096344
     32          1           0       -4.215802    2.127969   -2.365733
     33          1           0       -3.439922    1.541641   -0.033518
     34          1           0       -5.109123    1.295171    0.462789
     35          1           0       -5.798989   -0.056334   -2.309933
     36          1           0       -5.268835   -1.670178   -1.920494
     37          1           0       -6.506649   -1.551156    0.297134
     38          1           0       -7.051517    0.083095   -0.108763
     39          1           0       -7.570624   -1.291673   -1.091340
     40          1           0       -4.257319   -1.060492    1.046406
     41          1           0       -3.069460   -2.458954   -1.393551
     42          1           0       -4.345621   -3.089431   -0.329703
     43          1           0       -1.729853   -3.779397    0.151528
     44          1           0       -2.788964   -3.396197    1.513242
     45          1           0       -0.558833    0.672690    2.587031
     46          1           0        5.245675    3.740313    2.484104
     47          1           0        6.775221    3.182850    0.576764
     48          1           0        8.070214    2.413296   -1.354990
     49          1           0        8.607522    0.873918   -3.543449
     50          1           0        6.443301   -0.822107   -3.728859
     51          1           0        3.744151   -1.652507    0.488189
     52          1           0        2.983361   -1.079270   -0.983428
     53          1           0        2.251726   -2.439000   -0.066929
     54          1           0       -2.241869    0.153151    1.301369
     55          1           0       -1.754072   -0.101395   -0.386624
 ---------------------------------------------------------------------

 SCF Done:  E(RB3LYP) =  -1294.81344751     A.U. after   15 cycles

 Excitation energies and oscillator strengths:

 Excited state symmetry could not be determined.
 Excited State   1:      Triplet-?Sym    2.7853 eV  445.14 nm  f=0.0000  <S**2>=2.000
     100 ->106        -0.15165
     102 ->106         0.60934
     103 ->106         0.11076
     104 ->106         0.22245
 This state for optimization and/or second-order correction.
 Total Energy, E(TD-HF/TD-DFT) =  -1294.71109063
 Copying the excited state density for this state as the 1-particle RhoCI density.

 Excited state symmetry could not be determined.
 Excited State   2:      Triplet-?Sym    3.4926 eV  354.99 nm  f=0.0000  <S**2>=2.000
      99 ->106         0.36932
     101 ->106         0.10728
     101 ->107        -0.19777
     102 ->106         0.10617
     104 ->106        -0.30228
     104 ->107         0.33357
     104 ->108        -0.14527
     105 ->106        -0.10368

 Excited state symmetry could not be determined.
 Excited State   3:      Singlet-?Sym    3.6681 eV  338.00 nm  f=0.0007  <S**2>=0.000
     104 ->106         0.11519
     105 ->106         0.69630

 Excited state symmetry could not be determined.
 Excited State   4:      Singlet-?Sym    3.8379 eV  323.05 nm  f=0.0017  <S**2>=0.000
      99 ->106        -0.18862
     101 ->106        -0.10585
     102 ->106        -0.11725
     104 ->106         0.64587
     105 ->106        -0.11580

 Alpha  occ. eigenvalues --  -19.23060 -19.09585 -14.41301 -14.35045 -14.34357
 Alpha  occ. eigenvalues --  -14.34168 -14.33908 -14.32396 -10.30190 -10.27581
 Alpha  occ. eigenvalues --  -10.26366 -10.25786 -10.25631 -10.24577 -10.23141
 Alpha  occ. eigenvalues --  -10.21968 -10.21746 -10.21127 -10.21045 -10.20972
 Alpha  occ. eigenvalues --  -10.20833 -10.20666 -10.20543 -10.20495 -10.18702
 Alpha  occ. eigenvalues --  -10.18216 -10.17696 -10.17668 -10.17109  -1.12700
 Alpha  occ. eigenvalues --   -1.05228  -1.01608  -0.99203  -0.93639  -0.91134
 Alpha  occ. eigenvalues --   -0.90319  -0.85176  -0.81857  -0.80395  -0.79113
 Alpha  occ. eigenvalues --   -0.77962  -0.75829  -0.75725  -0.74033  -0.70955
 Alpha  occ. eigenvalues --   -0.69856  -0.67547  -0.67245  -0.64472  -0.63609
 Alpha  occ. eigenvalues --   -0.61790  -0.60589  -0.60248  -0.58683  -0.56919
 Alpha  occ. eigenvalues --   -0.55222  -0.54725  -0.53906  -0.52233  -0.50943
 Alpha  occ. eigenvalues --   -0.50753  -0.49520  -0.48350  -0.47609  -0.47129
 Alpha  occ. eigenvalues --   -0.46605  -0.46280  -0.45320  -0.44019  -0.43388
 Alpha  occ. eigenvalues --   -0.43096  -0.42856  -0.42251  -0.42131  -0.41743
 Alpha  occ. eigenvalues --   -0.41641  -0.41294  -0.40984  -0.40182  -0.39314
 Alpha  occ. eigenvalues --   -0.38957  -0.38602  -0.38430  -0.37825  -0.37417
 Alpha  occ. eigenvalues --   -0.36905  -0.36690  -0.35751  -0.35069  -0.34763
 Alpha  occ. eigenvalues --   -0.33729  -0.33271  -0.33176  -0.32480  -0.31586
 Alpha  occ. eigenvalues --   -0.30968  -0.29448  -0.28603  -0.25321  -0.24865
 Alpha  occ. eigenvalues --   -0.24283  -0.23203  -0.22781  -0.22500  -0.21049
 Alpha virt. eigenvalues --   -0.06470  -0.03939   0.00988   0.01916   0.03699
 Alpha virt. eigenvalues --    0.07029   0.07355   0.08521   0.09548   0.09963
 Alpha virt. eigenvalues --    0.10776   0.11395   0.11619   0.12261   0.12594

 Mulliken charges:
               1
     1  C   -0.461335
     2  C   -0.117732
     3  N   -0.407568
     4  C   -0.137135
     5  C   -0.462663
     6  C    0.046313
     7  C   -0.323570
     8  C   -0.118618
     9  N   -0.467798
    10  C    0.521950
    11  O   -0.531366
    12  C   -0.112394
    13  C    0.041783
    14  N   -0.268031
    15  N   -0.446099
    16  C    0.669745
    17  N   -0.420138
    18  C    0.057533
    19  C   -0.180761
    20  C    0.274918
    21  C    0.306668
    22  C   -0.185509
    23  C   -0.188431
    24  C    0.105913
    25  O   -0.425653
    26  N   -0.534943
    27  C    0.387745
    28  C   -0.502982
    29  C   -0.121892
    30  H    0.149331
    31  H    0.147401
    32  H    0.158393
    33  H    0.151473
    34  H    0.114755
    35  H    0.146529
    36  H    0.147328
    37  H    0.148733
    38  H    0.150925
    39  H    0.145238
    40  H    0.114639
    41  H    0.158168
    42  H    0.148133
    43  H    0.182642
    44  H    0.148584
    45  H    0.149426
    46  H    0.157159
    47  H    0.148053
    48  H    0.152801
    49  H    0.153044
    50  H    0.168097
    51  H    0.165177
    52  H    0.181652
    53  H    0.196867
    54  H    0.152854
    55  H    0.164648
 Sum of Mulliken charges =  -0.00000

 Dipole moment (field-independent basis, Debye):
    X=              1.3071    Y=              2.1450    Z=             -3.4977  Tot=              4.3062
 Quadrupole moment (field-independent basis, Debye-Ang):
   XX=           -110.0518   YY=           -173.1314   ZZ=           -169.3291
   XY=             15.6599   XZ=            -14.2348   YZ=              3.7236

 Normal termination of Gaussian 16 at Sat Nov  5 11:42:28 2022.
