 Gaussian 16, Revision B.01,
 Gaussian 16:  ES64L-G16RevB.01 20-Dec-2017

 -----------------------------
 #p b3lyp/6-31g(d) opt SCF=XQC
 -----------------------------

 ------------------------------
 Gaussian input prepared by ASE
 ------------------------------
 Symbolic Z-matrix:
 Charge =  0 Multiplicity = 1

 SCF Done:  E(RB3LYP) =  -1294.80281703     A.U. after   15 cycles
 SCF Done:  E(RB3LYP) =  -1294.81040452     A.U. after   12 cycles
 SCF Done:  E(RB3LYP) =  -1294.81128205     A.U. after   12 cycles
 SCF Done:  E(RB3LYP) =  -1294.81184554     A.U. after   11 cycles
 SCF Done:  E(RB3LYP) =  -1294.81212523     A.U. after   11 cycles
 SCF Done:  E(RB3LYP) =  -1294.81234240     A.U. after   11 cycles
 SCF Done:  E(RB3LYP) =  -1294.81263035     A.U. after   11 cycles
 SCF Done:  E(RB3LYP) =  -1294.81303757     A.U. after   12 cycles
 SCF Done:  E(RB3LYP) =  -1294.81311166     A.U. after   11 cycles
 SCF Done:  E(RB3LYP) =  -1294.81309103     A.U. after   12 cycles
 SCF Done:  E(RB3LYP) =  -1294.81344925     A.U. after    7 cycles
 SCF Done:  E(RB3LYP) =  -1294.81344920     A.U. after    9 cycles
 SCF Done:  E(RB3LYP) =  -1294.81344934     A.U. after    7 cycles
 SCF Done:  E(RB3LYP) =  -1294.81344929     A.U. after    7 cycles
 SCF Done:  E(RB3LYP) =  -1294.81344924     A.U. after    7 cycles
 SCF Done:  E(RB3LYP) =  -1294.81344922     A.U. after    6 cycles
 SCF Done:  E(RB3LYP) =  -1294.81344921     A.U. after    7 cycles
 SCF Done:  E(RB3LYP) =  -1294.81344921     A.U. after    7 cycles
 SCF Done:  E(RB3LYP) =  -1294.81344924     A.U. after    7 cycles
 SCF Done:  E(RB3LYP) =  -1294.81344928     A.U. after    6 cycles
 Optimization completed.
    -- Stationary point found.

                         Standard orientation:
 ---------------------------------------------------------------------
 Center     Atomic      Atomic             Coordinates (Angstroms)
 Number     Number       Type             X           Y           Z
 ---------------------------------------------------------------------
      1          6           0        5.152844    2.572342    2.501917
      2          6           0        4.949696    1.871252    1.157183
      3          7           0        5.051362    0.406495    1.231837
      4          6           0        6.344842   -0.070725    1.744957
      5          6           0        7.596518    0.241840    0.904992
      6          6           0        4.643227   -0.233538   -0.021190
      7          6           0        4.675942   -1.771946    0.011949
      8          6           0        3.743162   -2.175801   -1.131245
      9          7           0        2.729671   -1.110514   -1.146641
     10          6           0        1.440140   -1.424897   -1.497295
     11          8           0        1.144661   -2.563716   -1.870582
     12          6           0        0.417441   -0.344590   -1.423743
     13          6           0        0.508017    1.024414   -1.806321
     14          7           0       -0.639556    1.659313   -1.694455
     15          7           0       -1.507517    0.712823   -1.216043
     16          6           0       -2.843188    1.096368   -0.948305
     17          7           0       -3.278779    2.201391   -1.558364
     18          6           0       -4.537305    2.545224   -1.267065
     19          6           0       -5.354298    1.811728   -0.416110
     20          6           0       -4.789934    0.659154    0.153299
     21          6           0       -5.548051   -0.196437    1.054060
     22          6           0       -6.833516   -0.138451    1.536884
     23          6           0       -7.004021   -1.270603    2.385209
     24          6           0       -5.813240   -1.937822    2.359895
     25          8           0       -4.922109   -1.303130    1.560977
     26          7           0       -3.518090    0.312568   -0.109672
     27          6           0       -0.909939   -0.523857   -1.055281
     28          6           0       -1.597742   -1.774496   -0.609138
     29          6           0        3.165334    0.064514   -0.375614
     30          1           0        6.189438    2.525896    2.851233
     31          1           0        4.888432    3.631396    2.408217
     32          1           0        4.511293    2.123875    3.268149
     33          1           0        3.940809    2.110349    0.806571
     34          1           0        5.643260    2.300697    0.408167
     35          1           0        6.473381    0.345805    2.749058
     36          1           0        6.266129   -1.153329    1.884847
     37          1           0        7.538076   -0.196461   -0.097772
     38          1           0        7.755406    1.319662    0.789101
     39          1           0        8.485551   -0.171804    1.395184
     40          1           0        5.264726    0.103736   -0.874565
     41          1           0        4.271450   -2.115168    0.972043
     42          1           0        5.679319   -2.189985   -0.109699
     43          1           0        3.255789   -3.141682   -0.987570
     44          1           0        4.272907   -2.211459   -2.093453
     45          1           0        1.365715    1.559610   -2.191529
     46          1           0       -4.907270    3.448380   -1.749468
     47          1           0       -6.373323    2.118152   -0.210179
     48          1           0       -7.570544    0.620285    1.314271
     49          1           0       -7.889928   -1.550061    2.937639
     50          1           0       -5.456449   -2.839361    2.834593
     51          1           0       -2.502463   -1.958355   -1.197313
     52          1           0       -1.913894   -1.712591    0.435551
     53          1           0       -0.910595   -2.608875   -0.753647
     54          1           0        3.069340    0.983074   -0.958351
     55          1           0        2.577808    0.176416    0.544899
 ---------------------------------------------------------------------

 The electronic state is 1-A.
 Alpha  occ. eigenvalues --  -19.23059 -19.09585 -14.41301 -14.35045 -14.34357
 Alpha  occ. eigenvalues --  -14.34168 -14.33908 -14.32395 -10.30190 -10.27581
 Alpha  occ. eigenvalues --  -10.26366 -10.25786 -10.25631 -10.24577 -10.23141
 Alpha  occ. eigenvalues --  -10.21968 -10.21746 -10.21127 -10.21045 -10.20972
 Alpha  occ. eigenvalues --  -10.20833 -10.20666 -10.20543 -10.20495 -10.18702
 Alpha  occ. eigenvalues --  -10.18216 -10.17696 -10.17668 -10.17109  -1.12700
 Alpha  occ. eigenvalues --   -1.05228  -1.01608  -0.99203  -0.93639  -0.91134
 Alpha  occ. eigenvalues --   -0.90319  -0.85176  -0.81857  -0.80395  -0.79113
 Alpha  occ. eigenvalues --   -0.77962  -0.75829  -0.75725  -0.74033  -0.70955
 Alpha  occ. eigenvalues --   -0.69856  -0.67547  -0.67245  -0.64472  -0.63609
 Alpha  occ. eigenvalues --   -0.61790  -0.60589  -0.60248  -0.58683  -0.56919
 Alpha  occ. eigenvalues --   -0.55222  -0.54725  -0.53906  -0.52233  -0.50943
 Alpha  occ. eigenvalues --   -0.50753  -0.49520  -0.48350  -0.47609  -0.47129
 Alpha  occ. eigenvalues --   -0.46605  -0.46280  -0.45320  -0.44019  -0.43388
 Alpha  occ. eigenvalues --   -0.43096  -0.42856  -0.42251  -0.42131  -0.41743
 Alpha  occ. eigenvalues --   -0.41641  -0.41294  -0.40984  -0.40182  -0.39314
 Alpha  occ. eigenvalues --   -0.38957  -0.38602  -0.38430  -0.37825  -0.37417
 Alpha  occ. eigenvalues --   -0.36905  -0.36690  -0.35751  -0.35069  -0.34763
 Alpha  occ. eigenvalues --   -0.33729  -0.33271  -0.33176  -0.32480  -0.31586
 Alpha  occ. eigenvalues --   -0.30968  -0.29448  -0.28603  -0.25321  -0.24865
 Alpha  occ. eigenvalues --   -0.24283  -0.23203  -0.22781  -0.22500  -0.21049
 Alpha virt. eigenvalues --   -0.06470  -0.03939   0.00988   0.01916   0.03699
 Alpha virt. eigenvalues --    0.07029   0.07355   0.08521   0.09548   0.09963
 Alpha virt. eigenvalues --    0.10776   0.11395   0.11619   0.12261   0.12595

 Mulliken charges:
               1
     1  C   -0.461344
     2  C   -0.117722
     3  N   -0.407553
     4  C   -0.137163
     5  C   -0.462649
     6  C    0.046313
     7  C   -0.323591
     8  C   -0.118614
     9  N   -0.467797
    10  C    0.521945
    11  O   -0.531365
    12  C   -0.112374
    13  C    0.041773
    14  N   -0.268030
    15  N   -0.446095
    16  C    0.669751
    17  N   -0.420136
    18  C    0.057545
    19  C   -0.180792
    20  C    0.274950
    21  C    0.306663
    22  C   -0.185508
    23  C   -0.188434
    24  C    0.105911
    25  O   -0.425646
    26  N   -0.534961
    27  C    0.387726
    28  C   -0.502977
    29  C   -0.121895
    30  H    0.149333
    31  H    0.147402
    32  H    0.158395
    33  H    0.151471
    34  H    0.114753
    35  H    0.146532
    36  H    0.147331
    37  H    0.148733
    38  H    0.150923
    39  H    0.145237
    40  H    0.114639
    41  H    0.158174
    42  H    0.148137
    43  H    0.182642
    44  H    0.148584
    45  H    0.149427
    46  H    0.157158
    47  H    0.148057
    48  H    0.152798
    49  H    0.153045
    50  H    0.168097
    51  H    0.165179
    52  H    0.181652
    53  H    0.196869
    54  H    0.152854
    55  H    0.164649
 Sum of Mulliken charges =  -0.00000

 Dipole moment (field-independent basis, Debye):
    X=             -1.8055    Y=              0.7990    Z=              3.8269  Tot=              4.3062
 Quadrupole moment (field-independent basis, Debye-Ang):
   XX=           -108.7203   YY=           -172.4679   ZZ=           -173.8646
   XY=              0.9691   XZ=             -8.2283   YZ=             -6.7534

 Normal termination of Gaussian 16 at Fri Nov  4 19:24:12 2022.
