 Gaussian 16, Revision B.01,
 Gaussian 16:  ES64L-G16RevB.01 20-Dec-2017

 -------------------------------------------------------------------
 #p b3lyp/6-31g(d) 6D 10F nosymm GFInput td=(50-50,nstate=2) SCF=XQC
 -------------------------------------------------------------------

 ------------------------------
 Gaussian input prepared by ASE
 ------------------------------
 Symbolic Z-matrix:
 Charge =  0 Multiplicity = 1

                          Input orientation:
 ---------------------------------------------------------------------
 Center     Atomic      Atomic             Coordinates (Angstroms)
 Number     Number       Type             X           Y           Z
 ---------------------------------------------------------------------
      1          6           0        6.979671    3.611800    2.315588
      2          6           0        6.390584    2.274609    1.930234
      3          6           0        7.140628    1.321745    1.235702
      4          6           0        6.588801    0.085503    0.887360
      5          6           0        5.271520   -0.232722    1.225578
      6          6           0        4.659915   -1.569639    0.851985
      7          7           0        3.609121   -1.469083   -0.172657
      8          6           0        4.088142   -1.261407   -1.530278
      9          6           0        2.296611   -1.525878    0.233311
     10          8           0        2.004070   -1.621451    1.427219
     11          6           0        1.195395   -1.513867   -0.832219
     12          6           0        1.054818   -2.898877   -1.503612
     13          6           0       -0.133597   -2.906875   -2.473445
     14          6           0       -1.409626   -2.413977   -1.783284
     15          7           0       -1.197647   -1.079552   -1.220811
     16          6           0       -2.415861   -0.375297   -0.793898
     17          6           0       -3.348720   -1.144950    0.168395
     18          6           0       -4.441108   -0.209944    0.708529
     19          7           0       -5.052427    0.568207   -0.380161
     20          6           0       -5.916003    1.619936   -0.186711
     21          8           0       -6.402480    2.249101   -1.128972
     22          6           0       -6.259792    1.994142    1.225556
     23          6           0       -7.642042    2.586792    1.448103
     24          6           0       -6.445705    3.478096    1.507120
     25          6           0       -4.741402    0.148612   -1.748946
     26          6           0       -3.226392    0.151499   -2.009824
     27          6           0       -0.146519   -1.104730   -0.200297
     28          6           0        4.514192    0.720394    1.925282
     29          6           0        5.066432    1.950122    2.268439
     30          1           0        6.387876    4.442335    1.911103
     31          1           0        8.003751    3.719977    1.944442
     32          1           0        7.005445    3.738537    3.405324
     33          1           0        8.169395    1.545569    0.961976
     34          1           0        7.197359   -0.640693    0.351557
     35          1           0        5.438171   -2.242084    0.469083
     36          1           0        4.198322   -2.036088    1.723803
     37          1           0        3.267056   -1.075385   -2.219478
     38          1           0        4.761815   -0.396259   -1.559830
     39          1           0        4.645308   -2.139758   -1.885300
     40          1           0        1.415607   -0.771881   -1.608742
     41          1           0        0.895600   -3.649673   -0.716918
     42          1           0        1.978159   -3.179361   -2.024515
     43          1           0       -0.294124   -3.918420   -2.867238
     44          1           0        0.080377   -2.251561   -3.327711
     45          1           0       -1.702159   -3.148585   -1.006349
     46          1           0       -2.229170   -2.374527   -2.508694
     47          1           0       -2.059408    0.500726   -0.236548
     48          1           0       -3.802342   -2.004740   -0.338460
     49          1           0       -2.785789   -1.542414    1.020638
     50          1           0       -5.200359   -0.794206    1.248412
     51          1           0       -3.982854    0.476475    1.431160
     52          1           0       -5.858870    1.394303    2.033711
     53          1           0       -8.270951    2.656179    0.566675
     54          1           0       -8.150189    2.325604    2.372111
     55          1           0       -6.278454    4.142091    0.665201
     56          1           0       -6.108747    3.847370    2.471685
     57          1           0       -5.263841    0.834865   -2.414517
     58          1           0       -5.155100   -0.855567   -1.919762
     59          1           0       -2.889486    1.165294   -2.251263
     60          1           0       -3.023558   -0.460192   -2.895946
     61          1           0       -0.053422   -0.102913    0.232102
     62          1           0       -0.369829   -1.792163    0.633228
     63          1           0        3.490573    0.481832    2.201446
     64          1           0        4.463259    2.673005    2.814330
 ---------------------------------------------------------------------

 SCF Done:  E(RB3LYP) =  -1250.33227763     A.U. after   15 cycles

 Excitation energies and oscillator strengths:

 Excited state symmetry could not be determined.
 Excited State   1:      Triplet-?Sym    3.6944 eV  335.60 nm  f=0.0000  <S**2>=2.000
     102 ->109        -0.17185
     102 ->110         0.12453
     103 ->109        -0.12018
     103 ->110        -0.39786
     104 ->109        -0.18841
     106 ->109         0.45640
     106 ->110        -0.14871
 This state for optimization and/or second-order correction.
 Total Energy, E(TD-HF/TD-DFT) =  -1250.19651067
 Copying the excited state density for this state as the 1-particle RhoCI density.

 Excited state symmetry could not be determined.
 Excited State   2:      Triplet-?Sym    4.5865 eV  270.33 nm  f=0.0000  <S**2>=2.000
     102 ->110        -0.21131
     103 ->109        -0.26189
     103 ->110         0.12735
     104 ->109        -0.15251
     104 ->110        -0.11517
     106 ->109         0.17062
     106 ->110         0.54194

 Excited state symmetry could not be determined.
 Excited State   3:      Singlet-?Sym    5.1603 eV  240.27 nm  f=0.0125  <S**2>=0.000
     108 ->109         0.65914
     108 ->111         0.17410

 Excited state symmetry could not be determined.
 Excited State   4:      Singlet-?Sym    5.2616 eV  235.64 nm  f=0.0010  <S**2>=0.000
     103 ->109        -0.22237
     104 ->110         0.11624
     106 ->109        -0.11907
     106 ->110        -0.26030
     108 ->110         0.57980

 Alpha  occ. eigenvalues --  -19.10692 -19.09318 -14.36463 -14.35178 -14.32187
 Alpha  occ. eigenvalues --  -10.28154 -10.27181 -10.22624 -10.22524 -10.21855
 Alpha  occ. eigenvalues --  -10.21622 -10.20811 -10.20780 -10.20273 -10.19714
 Alpha  occ. eigenvalues --  -10.19541 -10.19291 -10.19157 -10.19134 -10.18950
 Alpha  occ. eigenvalues --  -10.18799 -10.18612 -10.18569 -10.18541 -10.18459
 Alpha  occ. eigenvalues --  -10.18393 -10.18374 -10.18261 -10.18011  -1.02726
 Alpha  occ. eigenvalues --   -1.01502  -0.93078  -0.93022  -0.91878  -0.85304
 Alpha  occ. eigenvalues --   -0.85102  -0.81439  -0.78341  -0.77294  -0.76102
 Alpha  occ. eigenvalues --   -0.75881  -0.73992  -0.72545  -0.70513  -0.68638
 Alpha  occ. eigenvalues --   -0.66609  -0.64801  -0.63551  -0.62811  -0.61117
 Alpha  occ. eigenvalues --   -0.60426  -0.59441  -0.57906  -0.56803  -0.55405
 Alpha  occ. eigenvalues --   -0.53864  -0.53029  -0.51595  -0.51087  -0.49912
 Alpha  occ. eigenvalues --   -0.49318  -0.48097  -0.47719  -0.46592  -0.46110
 Alpha  occ. eigenvalues --   -0.46034  -0.45460  -0.45154  -0.44449  -0.43877
 Alpha  occ. eigenvalues --   -0.43162  -0.42743  -0.42230  -0.41801  -0.41446
 Alpha  occ. eigenvalues --   -0.41342  -0.40599  -0.40467  -0.40186  -0.39836
 Alpha  occ. eigenvalues --   -0.39337  -0.38761  -0.38266  -0.37882  -0.37352
 Alpha  occ. eigenvalues --   -0.37223  -0.36909  -0.36216  -0.35411  -0.34992
 Alpha  occ. eigenvalues --   -0.34777  -0.34543  -0.34063  -0.33929  -0.33400
 Alpha  occ. eigenvalues --   -0.33190  -0.32536  -0.31707  -0.31053  -0.29663
 Alpha  occ. eigenvalues --   -0.27938  -0.25056  -0.24733  -0.23819  -0.23729
 Alpha  occ. eigenvalues --   -0.23116  -0.22528  -0.20688
 Alpha virt. eigenvalues --   -0.00143   0.00144   0.02722   0.03021   0.07308
 Alpha virt. eigenvalues --    0.07997   0.09536   0.09589   0.09989   0.10730
 Alpha virt. eigenvalues --    0.11055   0.11918   0.12199   0.12877   0.13286

 Mulliken charges:
               1
     1  C   -0.530573
     2  C    0.179503
     3  C   -0.182940
     4  C   -0.188182
     5  C    0.162101
     6  C   -0.248106
     7  N   -0.415155
     8  C   -0.322373
     9  C    0.626073
    10  O   -0.544467
    11  C   -0.203174
    12  C   -0.276051
    13  C   -0.258621
    14  C   -0.129945
    15  N   -0.419259
    16  C    0.064112
    17  C   -0.320622
    18  C   -0.124231
    19  N   -0.461210
    20  C    0.618742
    21  O   -0.548770
    22  C   -0.208480
    23  C   -0.300211
    24  C   -0.301765
    25  C   -0.156250
    26  C   -0.281773
    27  C   -0.118738
    28  C   -0.180761
    29  C   -0.178215
    30  H    0.161786
    31  H    0.154063
    32  H    0.163838
    33  H    0.120626
    34  H    0.119419
    35  H    0.141966
    36  H    0.197814
    37  H    0.171815
    38  H    0.172199
    39  H    0.154604
    40  H    0.145898
    41  H    0.147735
    42  H    0.138209
    43  H    0.134123
    44  H    0.139015
    45  H    0.114255
    46  H    0.137740
    47  H    0.130299
    48  H    0.147098
    49  H    0.153985
    50  H    0.148519
    51  H    0.154819
    52  H    0.141799
    53  H    0.183333
    54  H    0.148973
    55  H    0.180810
    56  H    0.149549
    57  H    0.196274
    58  H    0.138541
    59  H    0.152422
    60  H    0.142054
    61  H    0.142522
    62  H    0.140819
    63  H    0.159125
    64  H    0.123298
 Sum of Mulliken charges =  -0.00000

 Dipole moment (field-independent basis, Debye):
    X=              3.5120    Y=             -1.9536    Z=             -0.4019  Tot=              4.0388
 Quadrupole moment (field-independent basis, Debye-Ang):
   XX=           -179.1615   YY=           -172.9143   ZZ=           -174.4037
   XY=             16.3997   XZ=            -20.6524   YZ=             14.4794

 Normal termination of Gaussian 16 at Sat Nov  5 12:05:59 2022.
