 Gaussian 16, Revision B.01,
 Gaussian 16:  ES64L-G16RevB.01 20-Dec-2017

 -----------------------------
 #p b3lyp/6-31g(d) opt SCF=XQC
 -----------------------------

 ------------------------------
 Gaussian input prepared by ASE
 ------------------------------
 Symbolic Z-matrix:
 Charge =  0 Multiplicity = 1

 SCF Done:  E(RB3LYP) =  -1250.32188249     A.U. after   14 cycles
 SCF Done:  E(RB3LYP) =  -1250.32924945     A.U. after   12 cycles
 SCF Done:  E(RB3LYP) =  -1250.33024332     A.U. after   11 cycles
 SCF Done:  E(RB3LYP) =  -1250.33096638     A.U. after   12 cycles
 SCF Done:  E(RB3LYP) =  -1250.33134350     A.U. after   11 cycles
 SCF Done:  E(RB3LYP) =  -1250.33164960     A.U. after   11 cycles
 SCF Done:  E(RB3LYP) =  -1250.33171943     A.U. after   10 cycles
 SCF Done:  E(RB3LYP) =  -1250.33175024     A.U. after    9 cycles
 SCF Done:  E(RB3LYP) =  -1250.33179618     A.U. after   10 cycles
 SCF Done:  E(RB3LYP) =  -1250.33181586     A.U. after   10 cycles
 SCF Done:  E(RB3LYP) =  -1250.33228620     A.U. after    8 cycles
 SCF Done:  E(RB3LYP) =  -1250.33228641     A.U. after    8 cycles
 SCF Done:  E(RB3LYP) =  -1250.33228670     A.U. after    8 cycles
 SCF Done:  E(RB3LYP) =  -1250.33228707     A.U. after    8 cycles
 SCF Done:  E(RB3LYP) =  -1250.33228748     A.U. after    9 cycles
 SCF Done:  E(RB3LYP) =  -1250.33228813     A.U. after    9 cycles
 SCF Done:  E(RB3LYP) =  -1250.33228851     A.U. after    9 cycles
 SCF Done:  E(RB3LYP) =  -1250.33228879     A.U. after    9 cycles
 SCF Done:  E(RB3LYP) =  -1250.33228888     A.U. after    8 cycles
 SCF Done:  E(RB3LYP) =  -1250.33228890     A.U. after    6 cycles
 Optimization completed.
    -- Stationary point found.

                         Standard orientation:
 ---------------------------------------------------------------------
 Center     Atomic      Atomic             Coordinates (Angstroms)
 Number     Number       Type             X           Y           Z
 ---------------------------------------------------------------------
      1          6           0        6.930479    4.210498   -0.916230
      2          6           0        6.392245    2.880536   -0.441776
      3          6           0        7.127964    1.702007   -0.592366
      4          6           0        6.623997    0.476781   -0.146283
      5          6           0        5.370436    0.396557    0.464482
      6          6           0        4.811009   -0.926726    0.951253
      7          7           0        3.658234   -1.400277    0.169570
      8          6           0        3.984051   -1.967923   -1.129409
      9          6           0        2.399525   -1.224475    0.694414
     10          8           0        2.235235   -0.652510    1.774227
     11          6           0        1.198230   -1.794467   -0.067279
     12          6           0        1.079600   -3.321237    0.141725
     13          6           0       -0.197370   -3.855642   -0.519129
     14          6           0       -1.426389   -3.064183   -0.060190
     15          7           0       -1.244588   -1.639347   -0.340883
     16          6           0       -2.456177   -0.814552   -0.222382
     17          6           0       -3.236461   -0.932938    1.106430
     18          6           0       -4.326473    0.146828    1.179044
     19          7           0       -5.092622    0.205476   -0.075566
     20          6           0       -5.997771    1.193507   -0.381870
     21          8           0       -6.615726    1.207068   -1.448786
     22          6           0       -6.220989    2.278358    0.631042
     23          6           0       -7.608870    2.898319    0.659578
     24          6           0       -6.472048    3.675713    0.083018
     25          6           0       -4.894662   -0.893629   -1.023802
     26          6           0       -3.416861   -1.035689   -1.422855
     27          6           0       -0.096711   -1.104888    0.396468
     28          6           0        4.627989    1.578130    0.620106
     29          6           0        5.132260    2.795066    0.173192
     30          1           0        6.249175    4.686456   -1.632404
     31          1           0        7.903033    4.097154   -1.405601
     32          1           0        7.057563    4.911442   -0.081498
     33          1           0        8.107581    1.738731   -1.063945
     34          1           0        7.220723   -0.424990   -0.270847
     35          1           0        5.588166   -1.700237    0.904530
     36          1           0        4.470170   -0.841086    1.984309
     37          1           0        3.087623   -2.187092   -1.705745
     38          1           0        4.594696   -1.260066   -1.703205
     39          1           0        4.557649   -2.898444   -1.014990
     40          1           0        1.291392   -1.596885   -1.141666
     41          1           0        1.048584   -3.520733    1.222082
     42          1           0        1.961897   -3.841844   -0.249545
     43          1           0       -0.331746   -4.917939   -0.279268
     44          1           0       -0.112685   -3.773108   -1.610463
     45          1           0       -1.591786   -3.255258    1.019156
     46          1           0       -2.315567   -3.425932   -0.587381
     47          1           0       -2.102167    0.223191   -0.276067
     48          1           0       -3.682906   -1.929384    1.204896
     49          1           0       -2.566448   -0.801592    1.963761
     50          1           0       -4.988706   -0.047012    2.035299
     51          1           0       -3.842655    1.115770    1.353499
     52          1           0       -5.703339    2.216291    1.580697
     53          1           0       -8.326371    2.476236   -0.036334
     54          1           0       -8.003794    3.184499    1.630330
     55          1           0       -6.433065    3.772324   -0.997185
     56          1           0       -6.064075    4.511134    0.645086
     57          1           0       -5.524146   -0.681164   -1.887213
     58          1           0       -5.258452   -1.827702   -0.572290
     59          1           0       -3.171388   -0.318463   -2.213368
     60          1           0       -3.265513   -2.032162   -1.852569
     61          1           0       -0.024781   -0.029578    0.202026
     62          1           0       -0.190700   -1.225643    1.489070
     63          1           0        3.654669    1.530380    1.101087
     64          1           0        4.542107    3.699560    0.307301
 ---------------------------------------------------------------------

 The electronic state is 1-A.
 Alpha  occ. eigenvalues --  -19.10692 -19.09318 -14.36463 -14.35178 -14.32187
 Alpha  occ. eigenvalues --  -10.28155 -10.27181 -10.22623 -10.22524 -10.21855
 Alpha  occ. eigenvalues --  -10.21622 -10.20811 -10.20780 -10.20273 -10.19714
 Alpha  occ. eigenvalues --  -10.19541 -10.19291 -10.19157 -10.19135 -10.18950
 Alpha  occ. eigenvalues --  -10.18799 -10.18612 -10.18569 -10.18541 -10.18459
 Alpha  occ. eigenvalues --  -10.18393 -10.18374 -10.18261 -10.18011  -1.02726
 Alpha  occ. eigenvalues --   -1.01502  -0.93078  -0.93022  -0.91878  -0.85305
 Alpha  occ. eigenvalues --   -0.85102  -0.81439  -0.78341  -0.77293  -0.76102
 Alpha  occ. eigenvalues --   -0.75881  -0.73992  -0.72545  -0.70513  -0.68638
 Alpha  occ. eigenvalues --   -0.66609  -0.64801  -0.63551  -0.62811  -0.61117
 Alpha  occ. eigenvalues --   -0.60426  -0.59441  -0.57906  -0.56803  -0.55405
 Alpha  occ. eigenvalues --   -0.53864  -0.53029  -0.51595  -0.51087  -0.49912
 Alpha  occ. eigenvalues --   -0.49318  -0.48097  -0.47719  -0.46592  -0.46110
 Alpha  occ. eigenvalues --   -0.46034  -0.45460  -0.45154  -0.44449  -0.43877
 Alpha  occ. eigenvalues --   -0.43162  -0.42743  -0.42230  -0.41801  -0.41446
 Alpha  occ. eigenvalues --   -0.41342  -0.40599  -0.40467  -0.40186  -0.39836
 Alpha  occ. eigenvalues --   -0.39337  -0.38761  -0.38266  -0.37882  -0.37352
 Alpha  occ. eigenvalues --   -0.37223  -0.36909  -0.36216  -0.35411  -0.34992
 Alpha  occ. eigenvalues --   -0.34777  -0.34543  -0.34063  -0.33929  -0.33400
 Alpha  occ. eigenvalues --   -0.33190  -0.32536  -0.31707  -0.31053  -0.29663
 Alpha  occ. eigenvalues --   -0.27938  -0.25056  -0.24733  -0.23819  -0.23729
 Alpha  occ. eigenvalues --   -0.23116  -0.22528  -0.20688
 Alpha virt. eigenvalues --   -0.00143   0.00144   0.02722   0.03021   0.07308
 Alpha virt. eigenvalues --    0.07997   0.09536   0.09589   0.09989   0.10730
 Alpha virt. eigenvalues --    0.11055   0.11918   0.12199   0.12877   0.13286

 Mulliken charges:
               1
     1  C   -0.530571
     2  C    0.179505
     3  C   -0.182938
     4  C   -0.188175
     5  C    0.162103
     6  C   -0.248116
     7  N   -0.415145
     8  C   -0.322375
     9  C    0.626072
    10  O   -0.544465
    11  C   -0.203205
    12  C   -0.276063
    13  C   -0.258601
    14  C   -0.129968
    15  N   -0.419278
    16  C    0.064137
    17  C   -0.320641
    18  C   -0.124207
    19  N   -0.461210
    20  C    0.618734
    21  O   -0.548763
    22  C   -0.208492
    23  C   -0.300208
    24  C   -0.301763
    25  C   -0.156259
    26  C   -0.281778
    27  C   -0.118701
    28  C   -0.180764
    29  C   -0.178223
    30  H    0.161785
    31  H    0.154063
    32  H    0.163838
    33  H    0.120626
    34  H    0.119417
    35  H    0.141967
    36  H    0.197814
    37  H    0.171815
    38  H    0.172200
    39  H    0.154603
    40  H    0.145903
    41  H    0.147738
    42  H    0.138213
    43  H    0.134123
    44  H    0.139013
    45  H    0.114259
    46  H    0.137743
    47  H    0.130296
    48  H    0.147099
    49  H    0.153983
    50  H    0.148517
    51  H    0.154814
    52  H    0.141802
    53  H    0.183333
    54  H    0.148973
    55  H    0.180809
    56  H    0.149550
    57  H    0.196276
    58  H    0.138542
    59  H    0.152424
    60  H    0.142054
    61  H    0.142520
    62  H    0.140816
    63  H    0.159128
    64  H    0.123300
 Sum of Mulliken charges =  -0.00000

 Dipole moment (field-independent basis, Debye):
    X=              3.5714    Y=             -1.8611    Z=              0.3063  Tot=              4.0389
 Quadrupole moment (field-independent basis, Debye-Ang):
   XX=           -185.4898   YY=           -159.8598   ZZ=           -180.9130
   XY=              2.8505   XZ=            -26.6462   YZ=              4.9506

 Normal termination of Gaussian 16 at Fri Nov  4 19:54:59 2022.
