 Gaussian 16, Revision B.01,
 Gaussian 16:  ES64L-G16RevB.01 20-Dec-2017

 -----------------------------
 #p b3lyp/6-31g(d) opt SCF=XQC
 -----------------------------

 ------------------------------
 Gaussian input prepared by ASE
 ------------------------------
 Symbolic Z-matrix:
 Charge =  0 Multiplicity = 1

 SCF Done:  E(RB3LYP) =  -1383.07266954     A.U. after   15 cycles
 SCF Done:  E(RB3LYP) =  -1383.07765537     A.U. after   13 cycles
 SCF Done:  E(RB3LYP) =  -1383.07859076     A.U. after   14 cycles
 SCF Done:  E(RB3LYP) =  -1383.07968983     A.U. after   13 cycles
 SCF Done:  E(RB3LYP) =  -1383.08001498     A.U. after   13 cycles
 SCF Done:  E(RB3LYP) =  -1383.08017152     A.U. after   11 cycles
 SCF Done:  E(RB3LYP) =  -1383.08024449     A.U. after   12 cycles
 SCF Done:  E(RB3LYP) =  -1383.08027981     A.U. after   10 cycles
 SCF Done:  E(RB3LYP) =  -1383.08031056     A.U. after   10 cycles
 SCF Done:  E(RB3LYP) =  -1383.08035260     A.U. after   11 cycles
 SCF Done:  E(RB3LYP) =  -1383.08036547     A.U. after   10 cycles
 SCF Done:  E(RB3LYP) =  -1383.08038044     A.U. after   10 cycles
 SCF Done:  E(RB3LYP) =  -1383.08039060     A.U. after   10 cycles
 SCF Done:  E(RB3LYP) =  -1383.08039435     A.U. after    9 cycles
 SCF Done:  E(RB3LYP) =  -1383.08039907     A.U. after   10 cycles
 SCF Done:  E(RB3LYP) =  -1383.08040342     A.U. after   10 cycles
 SCF Done:  E(RB3LYP) =  -1383.08040481     A.U. after    9 cycles
 SCF Done:  E(RB3LYP) =  -1383.08040526     A.U. after    8 cycles
 SCF Done:  E(RB3LYP) =  -1383.08040538     A.U. after    7 cycles
 SCF Done:  E(RB3LYP) =  -1383.08040539     A.U. after    7 cycles
 Optimization completed.
    -- Stationary point found.

                         Standard orientation:
 ---------------------------------------------------------------------
 Center     Atomic      Atomic             Coordinates (Angstroms)
 Number     Number       Type             X           Y           Z
 ---------------------------------------------------------------------
      1          6           0        4.057888   -2.754731   -2.307227
      2          8           0        3.290138   -2.392740   -1.167260
      3          6           0        3.196535   -1.078635   -0.826337
      4          6           0        3.901028   -0.052931   -1.476609
      5          6           0        3.757444    1.262141   -1.053641
      6          6           0        2.920707    1.586101    0.022827
      7          6           0        2.785158    3.018264    0.421637
      8          6           0        1.826149    3.372927    1.547882
      9          8           0        3.419871    3.892918   -0.152729
     10          6           0        2.230062    0.548826    0.666992
     11          6           0        2.342127   -0.775908    0.254497
     12          6           0        1.562200   -1.876055    0.952208
     13          7           0        0.136357   -1.580116    1.091273
     14          6           0       -0.432931   -1.044694    2.266048
     15          8           0        0.182621   -0.717290    3.262076
     16          7           0       -1.787583   -0.991323    2.052800
     17          6           0       -2.173026   -1.329303    0.679955
     18          6           0       -3.057543   -2.587019    0.652101
     19          6           0       -2.786629   -0.136689   -0.059015
     20          6           0       -4.046665   -0.197102   -0.665870
     21          6           0       -4.568840    0.917956   -1.312199
     22          9           0       -5.786944    0.819244   -1.882385
     23          6           0       -3.881957    2.121807   -1.386910
     24          6           0       -2.623296    2.199752   -0.791740
     25          6           0       -2.106114    1.084655   -0.149191
     26          9           0       -0.873595    1.190673    0.408935
     27          6           0       -0.789167   -1.721753    0.082087
     28          8           0       -0.587265   -2.128198   -1.042054
     29          1           0        5.118884   -2.510502   -2.170467
     30          1           0        3.945767   -3.835385   -2.408140
     31          1           0        3.683331   -2.263032   -3.213294
     32          1           0        4.555309   -0.277858   -2.310808
     33          1           0        4.291632    2.065176   -1.551126
     34          1           0        2.129724    2.899184    2.489318
     35          1           0        1.822818    4.456879    1.675677
     36          1           0        0.811942    3.022997    1.323141
     37          1           0        1.584433    0.766219    1.510953
     38          1           0        1.652587   -2.809027    0.395738
     39          1           0        1.935415   -2.032374    1.968648
     40          1           0       -2.357763   -0.420820    2.660783
     41          1           0       -2.564869   -3.382421    1.217718
     42          1           0       -4.030791   -2.395847    1.115115
     43          1           0       -3.202512   -2.930743   -0.375743
     44          1           0       -4.637436   -1.104204   -0.653012
     45          1           0       -4.321568    2.968897   -1.901731
     46          1           0       -2.035178    3.110499   -0.825469
 ---------------------------------------------------------------------

 The electronic state is 1-A.
 Alpha  occ. eigenvalues --  -24.73069 -24.71894 -19.19010 -19.14232 -19.13221
 Alpha  occ. eigenvalues --  -19.12225 -14.39041 -14.37563 -10.33011 -10.30985
 Alpha  occ. eigenvalues --  -10.29330 -10.29028 -10.27396 -10.26455 -10.26029
 Alpha  occ. eigenvalues --  -10.24877 -10.23562 -10.23460 -10.22231 -10.22134
 Alpha  occ. eigenvalues --  -10.22106 -10.20422 -10.20092 -10.19604 -10.19429
 Alpha  occ. eigenvalues --  -10.19355 -10.18842 -10.17837  -1.23915  -1.23091
 Alpha  occ. eigenvalues --   -1.07958  -1.07605  -1.05038  -1.02144  -0.98206
 Alpha  occ. eigenvalues --   -0.92848  -0.88835  -0.85967  -0.81220  -0.78614
 Alpha  occ. eigenvalues --   -0.77049  -0.76679  -0.75983  -0.73470  -0.71837
 Alpha  occ. eigenvalues --   -0.70053  -0.68559  -0.65016  -0.63636  -0.62902
 Alpha  occ. eigenvalues --   -0.61480  -0.61091  -0.58377  -0.56585  -0.54947
 Alpha  occ. eigenvalues --   -0.54309  -0.53461  -0.53357  -0.52303  -0.50009
 Alpha  occ. eigenvalues --   -0.49427  -0.48675  -0.48306  -0.47691  -0.47042
 Alpha  occ. eigenvalues --   -0.46875  -0.46720  -0.46239  -0.45318  -0.44874
 Alpha  occ. eigenvalues --   -0.44670  -0.44044  -0.43816  -0.43111  -0.43061
 Alpha  occ. eigenvalues --   -0.42081  -0.41610  -0.41114  -0.40911  -0.40568
 Alpha  occ. eigenvalues --   -0.39811  -0.39253  -0.39069  -0.38365  -0.37887
 Alpha  occ. eigenvalues --   -0.37096  -0.36946  -0.36439  -0.35999  -0.35217
 Alpha  occ. eigenvalues --   -0.33325  -0.31758  -0.29974  -0.28695  -0.27733
 Alpha  occ. eigenvalues --   -0.27415  -0.26423  -0.25543  -0.25020  -0.23676
 Alpha  occ. eigenvalues --   -0.22559
 Alpha virt. eigenvalues --   -0.04032  -0.03930  -0.01534  -0.01166  -0.00864
 Alpha virt. eigenvalues --    0.05145   0.05943   0.06571   0.08177   0.09332
 Alpha virt. eigenvalues --    0.09983   0.10588   0.10688   0.11501   0.12984

 Mulliken charges:
               1
     1  C   -0.217871
     2  O   -0.509443
     3  C    0.344464
     4  C   -0.191564
     5  C   -0.172205
     6  C    0.083851
     7  C    0.403673
     8  C   -0.549423
     9  O   -0.465944
    10  C   -0.252312
    11  C    0.107250
    12  C   -0.235834
    13  N   -0.490524
    14  C    0.797355
    15  O   -0.526960
    16  N   -0.652399
    17  C    0.050113
    18  C   -0.453868
    19  C    0.120327
    20  C   -0.280354
    21  C    0.398638
    22  F   -0.294307
    23  C   -0.196742
    24  C   -0.190716
    25  C    0.332250
    26  F   -0.290447
    27  C    0.611491
    28  O   -0.490731
    29  H    0.157058
    30  H    0.175145
    31  H    0.163050
    32  H    0.138226
    33  H    0.162921
    34  H    0.176476
    35  H    0.173731
    36  H    0.169059
    37  H    0.160620
    38  H    0.199359
    39  H    0.195229
    40  H    0.338043
    41  H    0.170103
    42  H    0.157959
    43  H    0.182667
    44  H    0.161241
    45  H    0.163356
    46  H    0.167991
 Sum of Mulliken charges =  -0.00000

 Dipole moment (field-independent basis, Debye):
    X=             -2.7033    Y=             -2.5538    Z=             -0.7357  Tot=              3.7909
 Quadrupole moment (field-independent basis, Debye-Ang):
   XX=           -149.1237   YY=           -159.4606   ZZ=           -161.8847
   XY=            -18.1523   XZ=            -13.5334   YZ=              2.6191

 Normal termination of Gaussian 16 at Fri Nov  4 19:09:50 2022.
