 Gaussian 16, Revision B.01,
 Gaussian 16:  ES64L-G16RevB.01 20-Dec-2017

 -------------------------------------------------------------------
 #p b3lyp/6-31g(d) 6D 10F nosymm GFInput td=(50-50,nstate=2) SCF=XQC
 -------------------------------------------------------------------

 ------------------------------
 Gaussian input prepared by ASE
 ------------------------------
 Symbolic Z-matrix:
 Charge =  0 Multiplicity = 1

                          Input orientation:
 ---------------------------------------------------------------------
 Center     Atomic      Atomic             Coordinates (Angstroms)
 Number     Number       Type             X           Y           Z
 ---------------------------------------------------------------------
      1          6           0       -2.362877   -3.922854   -2.693176
      2          8           0       -1.997846   -2.555023   -2.567503
      3          6           0       -2.356435   -1.878233   -1.442677
      4          6           0       -3.161775   -2.422327   -0.429454
      5          6           0       -3.491929   -1.655039    0.680140
      6          6           0       -3.037817   -0.335183    0.805142
      7          6           0       -3.403271    0.437360    2.029125
      8          6           0       -2.854546    1.846769    2.191538
      9          8           0       -4.117386   -0.054865    2.892567
     10          6           0       -2.240803    0.196271   -0.219651
     11          6           0       -1.880775   -0.554589   -1.335097
     12          6           0       -0.994342    0.036346   -2.416967
     13          7           0        0.223175    0.658130   -1.896407
     14          6           0        0.346231    2.044070   -1.662121
     15          8           0       -0.539310    2.864772   -1.805070
     16          7           0        1.642973    2.258488   -1.267291
     17          6           0        2.399136    1.020416   -1.060175
     18          6           0        3.586690    0.933319   -2.033378
     19          6           0        2.797035    0.823740    0.405399
     20          6           0        4.123778    0.618727    0.802055
     21          6           0        4.437917    0.460809    2.147471
     22          9           0        5.728289    0.267514    2.488362
     23          6           0        3.472619    0.497626    3.144211
     24          6           0        2.144766    0.696748    2.767800
     25          6           0        1.836128    0.852638    1.424584
     26          9           0        0.532870    1.032458    1.091372
     27          6           0        1.348590   -0.036400   -1.514069
     28          8           0        1.521103   -1.235042   -1.570225
     29          1           0       -3.452714   -4.045708   -2.728205
     30          1           0       -1.930699   -4.258621   -3.637130
     31          1           0       -1.953565   -4.522396   -1.870964
     32          1           0       -3.526539   -3.440191   -0.503366
     33          1           0       -4.108765   -2.065216    1.473224
     34          1           0       -3.210389    2.504296    1.389088
     35          1           0       -3.185723    2.242005    3.153517
     36          1           0       -1.759267    1.847874    2.147509
     37          1           0       -1.884127    1.218670   -0.157610
     38          1           0       -0.693238   -0.740873   -3.119486
     39          1           0       -1.521346    0.823529   -2.964218
     40          1           0        1.881091    3.131415   -0.818382
     41          1           0        3.227454    1.107067   -3.051256
     42          1           0        4.340178    1.694120   -1.806267
     43          1           0        4.044332   -0.058870   -1.991529
     44          1           0        4.929010    0.572433    0.079928
     45          1           0        3.756567    0.368303    4.182723
     46          1           0        1.345552    0.725521    3.500542
 ---------------------------------------------------------------------

 SCF Done:  E(RB3LYP) =  -1383.08041023     A.U. after   15 cycles

 Excitation energies and oscillator strengths:

 Excited state symmetry could not be determined.
 Excited State   1:      Triplet-?Sym    3.2109 eV  386.14 nm  f=0.0000  <S**2>=2.000
      92 ->102        -0.11781
      98 ->106        -0.12670
      99 ->106         0.13714
     101 ->102         0.62060
     101 ->103         0.17595
 This state for optimization and/or second-order correction.
 Total Energy, E(TD-HF/TD-DFT) =  -1382.96241252
 Copying the excited state density for this state as the 1-particle RhoCI density.

 Excited state symmetry could not be determined.
 Excited State   2:      Triplet-?Sym    3.3047 eV  375.18 nm  f=0.0000  <S**2>=2.000
     100 ->102         0.65040
     100 ->103         0.20923
     100 ->107        -0.14111

 Excited state symmetry could not be determined.
 Excited State   3:      Singlet-?Sym    3.8342 eV  323.36 nm  f=0.0000  <S**2>=0.000
     100 ->102         0.66203
     100 ->103         0.20970
     100 ->107        -0.10483

 Excited state symmetry could not be determined.
 Excited State   4:      Singlet-?Sym    4.6167 eV  268.56 nm  f=0.0051  <S**2>=0.000
     101 ->102        -0.16464
     101 ->103         0.67339

 Alpha  occ. eigenvalues --  -24.73069 -24.71894 -19.19010 -19.14232 -19.13221
 Alpha  occ. eigenvalues --  -19.12225 -14.39041 -14.37563 -10.33011 -10.30985
 Alpha  occ. eigenvalues --  -10.29330 -10.29028 -10.27396 -10.26455 -10.26029
 Alpha  occ. eigenvalues --  -10.24877 -10.23562 -10.23460 -10.22231 -10.22134
 Alpha  occ. eigenvalues --  -10.22106 -10.20422 -10.20092 -10.19604 -10.19429
 Alpha  occ. eigenvalues --  -10.19355 -10.18842 -10.17837  -1.23915  -1.23091
 Alpha  occ. eigenvalues --   -1.07958  -1.07605  -1.05038  -1.02144  -0.98206
 Alpha  occ. eigenvalues --   -0.92848  -0.88835  -0.85967  -0.81220  -0.78614
 Alpha  occ. eigenvalues --   -0.77049  -0.76679  -0.75983  -0.73470  -0.71837
 Alpha  occ. eigenvalues --   -0.70053  -0.68559  -0.65016  -0.63636  -0.62902
 Alpha  occ. eigenvalues --   -0.61480  -0.61091  -0.58377  -0.56585  -0.54947
 Alpha  occ. eigenvalues --   -0.54309  -0.53461  -0.53357  -0.52303  -0.50009
 Alpha  occ. eigenvalues --   -0.49427  -0.48675  -0.48307  -0.47691  -0.47042
 Alpha  occ. eigenvalues --   -0.46875  -0.46720  -0.46239  -0.45318  -0.44874
 Alpha  occ. eigenvalues --   -0.44670  -0.44044  -0.43816  -0.43111  -0.43061
 Alpha  occ. eigenvalues --   -0.42081  -0.41610  -0.41114  -0.40911  -0.40568
 Alpha  occ. eigenvalues --   -0.39811  -0.39253  -0.39069  -0.38365  -0.37887
 Alpha  occ. eigenvalues --   -0.37096  -0.36946  -0.36439  -0.35998  -0.35217
 Alpha  occ. eigenvalues --   -0.33325  -0.31758  -0.29974  -0.28696  -0.27733
 Alpha  occ. eigenvalues --   -0.27415  -0.26423  -0.25543  -0.25020  -0.23676
 Alpha  occ. eigenvalues --   -0.22559
 Alpha virt. eigenvalues --   -0.04032  -0.03930  -0.01534  -0.01166  -0.00864
 Alpha virt. eigenvalues --    0.05145   0.05943   0.06571   0.08177   0.09332
 Alpha virt. eigenvalues --    0.09983   0.10588   0.10688   0.11501   0.12983

 Mulliken charges:
               1
     1  C   -0.217873
     2  O   -0.509448
     3  C    0.344458
     4  C   -0.191552
     5  C   -0.172206
     6  C    0.083845
     7  C    0.403679
     8  C   -0.549428
     9  O   -0.465946
    10  C   -0.252280
    11  C    0.107234
    12  C   -0.235845
    13  N   -0.490538
    14  C    0.797372
    15  O   -0.526963
    16  N   -0.652384
    17  C    0.050051
    18  C   -0.453872
    19  C    0.120377
    20  C   -0.280349
    21  C    0.398631
    22  F   -0.294308
    23  C   -0.196735
    24  C   -0.190716
    25  C    0.332208
    26  F   -0.290441
    27  C    0.611509
    28  O   -0.490717
    29  H    0.157058
    30  H    0.175145
    31  H    0.163051
    32  H    0.138225
    33  H    0.162921
    34  H    0.176477
    35  H    0.173731
    36  H    0.169059
    37  H    0.160611
    38  H    0.199364
    39  H    0.195231
    40  H    0.338044
    41  H    0.170105
    42  H    0.157960
    43  H    0.182667
    44  H    0.161240
    45  H    0.163355
    46  H    0.167992
 Sum of Mulliken charges =  -0.00000

 Dipole moment (field-independent basis, Debye):
    X=              3.4075    Y=             -0.5364    Z=             -1.5725  Tot=              3.7910
 Quadrupole moment (field-independent basis, Debye-Ang):
   XX=           -164.3798   YY=           -149.4711   ZZ=           -155.5670
   XY=             16.3375   XZ=             11.0541   YZ=             10.3789

 Normal termination of Gaussian 16 at Sat Nov  5 11:41:27 2022.
