 Gaussian 16, Revision B.01,
 Gaussian 16:  ES64L-G16RevB.01 20-Dec-2017

 -------------------------------------------------------------------
 #p b3lyp/6-31g(d) 6D 10F nosymm GFInput td=(50-50,nstate=2) SCF=XQC
 -------------------------------------------------------------------

 ------------------------------
 Gaussian input prepared by ASE
 ------------------------------
 Symbolic Z-matrix:
 Charge =  0 Multiplicity = 1

                          Input orientation:
 ---------------------------------------------------------------------
 Center     Atomic      Atomic             Coordinates (Angstroms)
 Number     Number       Type             X           Y           Z
 ---------------------------------------------------------------------
      1          6           0      -12.812220    0.691529   -3.171232
      2          6           0      -11.591054    1.167474   -3.973091
      3          6           0      -11.942068    2.416711   -4.795352
      4          6           0      -10.364347    1.436733   -3.078682
      5          6           0       -9.803461    0.209642   -2.344229
      6          6           0       -8.523227    0.532262   -1.556827
      7          6           0       -7.956096   -0.629124   -0.700561
      8          6           0       -7.465703   -1.761219   -1.619899
      9          6           0       -6.878283   -0.082233    0.279671
     10          6           0       -7.465770    1.010799    1.227507
     11          6           0       -6.786134    0.841296    2.607692
     12          6           0       -5.599548   -0.123147    2.375320
     13          6           0       -4.313459    0.664062    1.988958
     14          6           0       -3.821294    1.569684    3.151483
     15          6           0       -2.536534    1.151221    3.805956
     16          6           0       -1.793776    0.088822    3.481189
     17          6           0       -0.451835   -0.173121    4.122839
     18          6           0        0.710837    0.061208    3.105627
     19          6           0        1.313358    1.468703    3.275466
     20          6           0        2.476498    1.826941    2.333608
     21          6           0        3.733673    0.964219    2.524612
     22          6           0        4.963231    1.447961    1.736657
     23          6           0        4.826746    1.436444    0.195129
     24          6           0        4.550422    0.072459   -0.382839
     25          6           0        5.375518   -0.703066   -1.096851
     26          6           0        6.800085   -0.411663   -1.513565
     27          6           0        7.750927   -1.485849   -1.034715
     28          6           0        8.820368   -1.348355   -0.241452
     29          6           0        9.376599   -0.094007    0.380885
     30          6           0       10.826578    0.209377   -0.055741
     31          6           0       10.952642    0.599590   -1.534582
     32          6           0       12.383615    0.935874   -1.988635
     33          6           0       13.399174   -0.220353   -1.921943
     34          6           0       13.038460   -1.469487   -2.745729
     35          6           0       12.802243   -1.206069   -4.249891
     36          6           0       13.964795   -0.494600   -4.928678
     37          8           0       13.907652    0.608953   -5.410110
     38          8           0       15.143111   -1.183519   -4.953967
     39          6           0        0.199551   -0.188848    1.667221
     40          6           0       -0.863778   -1.294538    1.627888
     41          6           0       -2.185103   -0.892347    2.375030
     42          6           0       -2.760093   -2.170836    3.032189
     43          6           0       -3.158278   -0.179189    1.369765
     44          6           0       -3.740142   -1.062085    0.242404
     45          6           0       -4.982276   -1.881476    0.621163
     46          6           0       -6.139141   -1.075211    1.253101
     47          6           0       -7.137118   -2.074684    1.879744
     48          1           0      -12.615588   -0.243383   -2.635734
     49          1           0      -13.671316    0.519606   -3.830701
     50          1           0      -13.109346    1.445493   -2.429899
     51          1           0      -11.318425    0.367221   -4.679113
     52          1           0      -12.787965    2.227206   -5.466975
     53          1           0      -12.220533    3.252088   -4.139364
     54          1           0      -11.093461    2.744215   -5.407939
     55          1           0       -9.566397    1.865000   -3.703281
     56          1           0      -10.622739    2.215488   -2.344175
     57          1           0      -10.555689   -0.188062   -1.649038
     58          1           0       -9.615181   -0.583988   -3.079648
     59          1           0       -8.739746    1.390550   -0.910070
     60          1           0       -7.741742    0.870875   -2.255058
     61          1           0       -8.786907   -1.023062   -0.094842
     62          1           0       -6.575171   -1.454557   -2.184015
     63          1           0       -7.216281   -2.670376   -1.067344
     64          1           0       -8.235884   -2.035469   -2.348139
     65          1           0       -6.106841    0.389890   -0.345355
     66          1           0       -8.552883    0.898930    1.319311
     67          1           0       -7.296890    2.013813    0.822036
     68          1           0       -7.486517    0.405874    3.328612
     69          1           0       -6.476131    1.802163    3.029286
     70          1           0       -5.394385   -0.702193    3.285126
     71          1           0       -4.618355    1.339999    1.177350
     72          1           0       -3.692595    2.601935    2.790839
     73          1           0       -4.597495    1.646202    3.925493
     74          1           0       -2.186244    1.806809    4.605069
     75          1           0       -0.406093   -1.210422    4.481571
     76          1           0       -0.317659    0.463520    5.005212
     77          1           0        1.492831   -0.679545    3.322868
     78          1           0        0.506616    2.203745    3.140012
     79          1           0        1.657094    1.579611    4.314699
     80          1           0        2.135913    1.771297    1.291343
     81          1           0        2.744467    2.879951    2.504404
     82          1           0        3.519327   -0.079711    2.261043
     83          1           0        3.994589    0.955630    3.592824
     84          1           0        5.825283    0.825322    2.010072
     85          1           0        5.206020    2.473187    2.051617
     86          1           0        4.015958    2.117791   -0.099305
     87          1           0        5.742947    1.858277   -0.232614
     88          1           0        3.553802   -0.323118   -0.182832
     89          1           0        4.999033   -1.673036   -1.426056
     90          1           0        7.117516    0.574880   -1.168508
     91          1           0        6.840412   -0.382489   -2.615329
     92          1           0        7.504599   -2.492103   -1.378072
     93          1           0        9.382286   -2.254158   -0.002302
     94          1           0        9.364588   -0.212924    1.474689
     95          1           0        8.742705    0.772530    0.159479
     96          1           0       11.450369   -0.669702    0.159648
     97          1           0       11.221787    1.023777    0.567621
     98          1           0       10.318230    1.478215   -1.719376
     99          1           0       10.533492   -0.202609   -2.156815
    100          1           0       12.768785    1.759238   -1.370931
    101          1           0       12.354046    1.324719   -3.014254
    102          1           0       13.544384   -0.532128   -0.879591
    103          1           0       14.373668    0.158719   -2.258345
    104          1           0       13.838618   -2.214045   -2.620030
    105          1           0       12.133854   -1.941865   -2.344173
    106          1           0       12.617626   -2.160604   -4.762669
    107          1           0       11.919446   -0.581517   -4.400580
    108          1           0       15.028288   -2.051815   -4.533700
    109          1           0       -0.231814    0.740250    1.267603
    110          1           0        1.034786   -0.447738    1.004638
    111          1           0       -0.446491   -2.199901    2.089751
    112          1           0       -1.087141   -1.567403    0.590890
    113          1           0       -2.872141   -2.978957    2.301412
    114          1           0       -2.076813   -2.535399    3.808091
    115          1           0       -3.728912   -1.995560    3.506670
    116          1           0       -2.510847    0.559560    0.873989
    117          1           0       -3.994913   -0.399603   -0.596616
    118          1           0       -2.977098   -1.744671   -0.150919
    119          1           0       -5.331172   -2.411859   -0.269517
    120          1           0       -4.699344   -2.664075    1.332909
    121          1           0       -6.658547   -2.631991    2.694353
    122          1           0       -7.485586   -2.808600    1.144952
    123          1           0       -8.023442   -1.581874    2.293382
 ---------------------------------------------------------------------

 SCF Done:  E(RB3LYP) =  -1910.99262844     A.U. after   14 cycles

 Excitation energies and oscillator strengths:

 Excited state symmetry could not be determined.
 Excited State   1:      Triplet-?Sym    4.0091 eV  309.25 nm  f=0.0000  <S**2>=2.000
     179 ->185         0.21312
     179 ->186        -0.24073
     180 ->182         0.13643
     180 ->183         0.55681
     180 ->185         0.17220
     180 ->186        -0.15301
 This state for optimization and/or second-order correction.
 Total Energy, E(TD-HF/TD-DFT) =  -1910.84529514
 Copying the excited state density for this state as the 1-particle RhoCI density.

 Excited state symmetry could not be determined.
 Excited State   2:      Triplet-?Sym    4.0556 eV  305.71 nm  f=0.0000  <S**2>=2.000
     179 ->182         0.14929
     179 ->183         0.52691
     179 ->185        -0.10695
     179 ->186         0.16382
     180 ->185         0.24469
     180 ->186        -0.28437

 Excited state symmetry could not be determined.
 Excited State   3:      Singlet-?Sym    6.0798 eV  203.93 nm  f=0.0016  <S**2>=0.000
     181 ->182         0.49432
     181 ->183         0.50346

 Excited state symmetry could not be determined.
 Excited State   4:      Singlet-?Sym    6.1456 eV  201.74 nm  f=0.0009  <S**2>=0.000
     181 ->182         0.50554
     181 ->183        -0.49301

 Alpha  occ. eigenvalues --  -19.19363 -19.13140 -10.31627 -10.20741 -10.20466
 Alpha  occ. eigenvalues --  -10.19131 -10.18876 -10.18725 -10.18585 -10.18510
 Alpha  occ. eigenvalues --  -10.18502 -10.18336 -10.18331 -10.18272 -10.18233
 Alpha  occ. eigenvalues --  -10.18207 -10.18132 -10.18062 -10.18011 -10.17926
 Alpha  occ. eigenvalues --  -10.17924 -10.17899 -10.17865 -10.17854 -10.17668
 Alpha  occ. eigenvalues --  -10.17639 -10.17467 -10.17458 -10.17427 -10.17390
 Alpha  occ. eigenvalues --  -10.17351 -10.17347 -10.17326 -10.17297 -10.17237
 Alpha  occ. eigenvalues --  -10.17224 -10.17219 -10.17170 -10.17075 -10.16942
 Alpha  occ. eigenvalues --  -10.16849 -10.16837 -10.16832 -10.16807 -10.16723
 Alpha  occ. eigenvalues --  -10.16664 -10.16652  -1.09545  -1.01434  -0.85695
 Alpha  occ. eigenvalues --   -0.84055  -0.82233  -0.81535  -0.81171  -0.80631
 Alpha  occ. eigenvalues --   -0.79915  -0.78905  -0.78155  -0.77836  -0.76841
 Alpha  occ. eigenvalues --   -0.75695  -0.75051  -0.74102  -0.73352  -0.72410
 Alpha  occ. eigenvalues --   -0.71939  -0.70399  -0.69870  -0.68375  -0.67828
 Alpha  occ. eigenvalues --   -0.67649  -0.67179  -0.66399  -0.65964  -0.65010
 Alpha  occ. eigenvalues --   -0.64083  -0.62535  -0.61396  -0.60990  -0.60761
 Alpha  occ. eigenvalues --   -0.59828  -0.59742  -0.58399  -0.57157  -0.56304
 Alpha  occ. eigenvalues --   -0.55802  -0.55428  -0.55218  -0.54657  -0.53686
 Alpha  occ. eigenvalues --   -0.53222  -0.51691  -0.51168  -0.51079  -0.48929
 Alpha  occ. eigenvalues --   -0.48446  -0.47789  -0.47292  -0.47058  -0.46933
 Alpha  occ. eigenvalues --   -0.46658  -0.46147  -0.46093  -0.45844  -0.45585
 Alpha  occ. eigenvalues --   -0.45237  -0.44850  -0.44249  -0.43897  -0.43571
 Alpha  occ. eigenvalues --   -0.43443  -0.43297  -0.42897  -0.42523  -0.42435
 Alpha  occ. eigenvalues --   -0.42049  -0.41973  -0.41520  -0.41097  -0.40934
 Alpha  occ. eigenvalues --   -0.40752  -0.40475  -0.40214  -0.39984  -0.39876
 Alpha  occ. eigenvalues --   -0.39688  -0.39275  -0.39120  -0.38917  -0.38452
 Alpha  occ. eigenvalues --   -0.38422  -0.38052  -0.37875  -0.37827  -0.37565
 Alpha  occ. eigenvalues --   -0.37096  -0.36914  -0.36668  -0.36383  -0.36249
 Alpha  occ. eigenvalues --   -0.36078  -0.35937  -0.35648  -0.35318  -0.35125
 Alpha  occ. eigenvalues --   -0.34958  -0.34678  -0.34378  -0.34269  -0.34081
 Alpha  occ. eigenvalues --   -0.33960  -0.33724  -0.33118  -0.32680  -0.32579
 Alpha  occ. eigenvalues --   -0.32497  -0.32351  -0.32059  -0.32006  -0.31740
 Alpha  occ. eigenvalues --   -0.31651  -0.31536  -0.31498  -0.31407  -0.31281
 Alpha  occ. eigenvalues --   -0.31061  -0.30876  -0.30773  -0.30452  -0.30398
 Alpha  occ. eigenvalues --   -0.29909  -0.29593  -0.29038  -0.28148  -0.27553
 Alpha  occ. eigenvalues --   -0.27052  -0.26574  -0.26487  -0.24282  -0.23660
 Alpha  occ. eigenvalues --   -0.22124
 Alpha virt. eigenvalues --    0.00962   0.01432   0.03582   0.04012   0.04325
 Alpha virt. eigenvalues --    0.06693   0.07510   0.07994   0.08036   0.08756
 Alpha virt. eigenvalues --    0.09034   0.09194   0.09573   0.10312   0.10556

 Mulliken charges:
               1
     1  C   -0.444460
     2  C   -0.065162
     3  C   -0.441665
     4  C   -0.247059
     5  C   -0.266233
     6  C   -0.264049
     7  C   -0.081113
     8  C   -0.464947
     9  C   -0.091032
    10  C   -0.291221
    11  C   -0.294424
    12  C   -0.114783
    13  C   -0.096838
    14  C   -0.318863
    15  C   -0.194306
    16  C    0.173513
    17  C   -0.357663
    18  C   -0.058284
    19  C   -0.270566
    20  C   -0.263178
    21  C   -0.258258
    22  C   -0.253857
    23  C   -0.310598
    24  C   -0.104278
    25  C   -0.099459
    26  C   -0.345985
    27  C   -0.099924
    28  C   -0.097021
    29  C   -0.303311
    30  C   -0.259150
    31  C   -0.258211
    32  C   -0.270352
    33  C   -0.267593
    34  C   -0.279182
    35  C   -0.385533
    36  C    0.597788
    37  O   -0.440428
    38  O   -0.565914
    39  C   -0.285934
    40  C   -0.301828
    41  C    0.062955
    42  C   -0.473880
    43  C   -0.109415
    44  C   -0.293703
    45  C   -0.280136
    46  C    0.093645
    47  C   -0.474675
    48  H    0.144503
    49  H    0.138767
    50  H    0.136763
    51  H    0.118571
    52  H    0.138268
    53  H    0.137692
    54  H    0.138507
    55  H    0.124368
    56  H    0.122447
    57  H    0.130853
    58  H    0.130778
    59  H    0.137541
    60  H    0.121824
    61  H    0.115912
    62  H    0.138321
    63  H    0.150605
    64  H    0.143501
    65  H    0.116578
    66  H    0.133751
    67  H    0.136941
    68  H    0.135414
    69  H    0.136528
    70  H    0.120583
    71  H    0.119610
    72  H    0.139122
    73  H    0.147403
    74  H    0.108597
    75  H    0.134853
    76  H    0.136297
    77  H    0.119481
    78  H    0.131304
    79  H    0.122802
    80  H    0.136830
    81  H    0.125811
    82  H    0.138775
    83  H    0.127523
    84  H    0.135701
    85  H    0.126407
    86  H    0.143717
    87  H    0.135091
    88  H    0.125496
    89  H    0.118031
    90  H    0.148308
    91  H    0.151805
    92  H    0.118483
    93  H    0.114443
    94  H    0.142170
    95  H    0.138504
    96  H    0.129907
    97  H    0.131128
    98  H    0.130326
    99  H    0.137675
   100  H    0.132747
   101  H    0.156036
   102  H    0.138294
   103  H    0.149293
   104  H    0.121388
   105  H    0.157050
   106  H    0.156954
   107  H    0.185362
   108  H    0.408901
   109  H    0.138533
   110  H    0.134655
   111  H    0.128104
   112  H    0.137625
   113  H    0.146476
   114  H    0.139548
   115  H    0.151610
   116  H    0.119676
   117  H    0.130297
   118  H    0.130555
   119  H    0.132579
   120  H    0.131084
   121  H    0.137820
   122  H    0.144684
   123  H    0.142683
 Sum of Mulliken charges =  -0.00000

 Dipole moment (field-independent basis, Debye):
    X=             -1.4035    Y=             -3.0494    Z=              2.1941  Tot=              4.0104
 Quadrupole moment (field-independent basis, Debye-Ang):
   XX=           -333.3235   YY=           -290.9937   ZZ=           -319.9334
   XY=            -44.9771   XZ=             40.5618   YZ=             17.4902

 Normal termination of Gaussian 16 at Sat Nov  5 11:59:36 2022.
