 Gaussian 16, Revision B.01,
 Gaussian 16:  ES64L-G16RevB.01 20-Dec-2017

 -----------------------------
 #p b3lyp/6-31g(d) opt SCF=XQC
 -----------------------------

 ------------------------------
 Gaussian input prepared by ASE
 ------------------------------
 Symbolic Z-matrix:
 Charge =  0 Multiplicity = 1

 SCF Done:  E(RB3LYP) =  -1910.97425348     A.U. after   14 cycles
 SCF Done:  E(RB3LYP) =  -1910.98792150     A.U. after   12 cycles
 SCF Done:  E(RB3LYP) =  -1910.98940179     A.U. after   11 cycles
 SCF Done:  E(RB3LYP) =  -1910.98945452     A.U. after   12 cycles
 SCF Done:  E(RB3LYP) =  -1910.99011993     A.U. after   11 cycles
 SCF Done:  E(RB3LYP) =  -1910.99018399     A.U. after   12 cycles
 SCF Done:  E(RB3LYP) =  -1910.99073794     A.U. after   11 cycles
 SCF Done:  E(RB3LYP) =  -1910.99116934     A.U. after   12 cycles
 SCF Done:  E(RB3LYP) =  -1910.99135685     A.U. after   12 cycles
 SCF Done:  E(RB3LYP) =  -1910.99161875     A.U. after   11 cycles
 SCF Done:  E(RB3LYP) =  -1910.99263053     A.U. after   11 cycles
 SCF Done:  E(RB3LYP) =  -1910.99263409     A.U. after   10 cycles
 SCF Done:  E(RB3LYP) =  -1910.99263868     A.U. after    9 cycles
 SCF Done:  E(RB3LYP) =  -1910.99263895     A.U. after    9 cycles
 SCF Done:  E(RB3LYP) =  -1910.99263905     A.U. after    9 cycles
 SCF Done:  E(RB3LYP) =  -1910.99263932     A.U. after    7 cycles
 SCF Done:  E(RB3LYP) =  -1910.99263945     A.U. after    7 cycles
 SCF Done:  E(RB3LYP) =  -1910.99263964     A.U. after    7 cycles
 SCF Done:  E(RB3LYP) =  -1910.99263968     A.U. after    6 cycles
 SCF Done:  E(RB3LYP) =  -1910.99263971     A.U. after    6 cycles
 Optimization completed.
    -- Stationary point found.

                         Standard orientation:
 ---------------------------------------------------------------------
 Center     Atomic      Atomic             Coordinates (Angstroms)
 Number     Number       Type             X           Y           Z
 ---------------------------------------------------------------------
      1          6           0      -13.041910    4.183625    0.322399
      2          6           0      -11.769414    4.886750    0.819509
      3          6           0      -12.080324    5.754049    2.048755
      4          6           0      -10.629747    3.896293    1.131648
      5          6           0      -10.102902    3.099133   -0.071156
      6          6           0       -8.902181    2.211573    0.294348
      7          6           0       -8.381036    1.293493   -0.841074
      8          6           0       -7.786901    2.151409   -1.971689
      9          6           0       -7.403785    0.234175   -0.254174
     10          6           0       -8.096083   -0.644536    0.835249
     11          6           0       -7.531624   -2.079412    0.700839
     12          6           0       -6.306227   -1.962095   -0.235522
     13          6           0       -5.011869   -1.673807    0.579663
     14          6           0       -4.642247   -2.860119    1.512339
     15          6           0       -3.407510   -3.626586    1.135500
     16          6           0       -2.613988   -3.381284    0.088596
     17          6           0       -1.325067   -4.137475   -0.130474
     18          6           0       -0.086671   -3.218436    0.120882
     19          6           0        0.464452   -3.417565    1.545498
     20          6           0        1.693888   -2.571810    1.921680
     21          6           0        2.951289   -2.880756    1.094182
     22          6           0        4.230777   -2.192077    1.599479
     23          6           0        4.225464   -0.644871    1.564918
     24          6           0        4.032710   -0.065936    0.187044
     25          6           0        4.934094    0.564497   -0.575908
     26          6           0        6.381180    0.864026   -0.253135
     27          6           0        7.314311    0.290956   -1.296270
     28          6           0        8.309125   -0.587432   -1.121182
     29          6           0        8.779649   -1.235769    0.154887
     30          6           0       10.253436   -0.918364    0.490040
     31          6           0       10.494448    0.550220    0.864614
     32          6           0       11.949966    0.887075    1.231942
     33          6           0       12.984437    0.717989    0.103250
     34          6           0       12.725578    1.550648   -1.165113
     35          6           0       12.610983    3.073094   -0.926953
     36          6           0       13.808880    3.662018   -0.194370
     37          8           0       13.765469    4.162833    0.901153
     38          8           0       15.001736    3.577785   -0.852911
     39          6           0       -0.468169   -1.745940   -0.160486
     40          6           0       -1.496784   -1.633566   -1.293663
     41          6           0       -2.886068   -2.260742   -0.916279
     42          6           0       -3.482881   -2.885992   -2.200756
     43          6           0       -3.788031   -1.166646   -0.241267
     44          6           0       -4.250537   -0.007479   -1.153095
     45          6           0       -5.499675   -0.292370   -1.999410
     46          6           0       -6.725356   -0.812633   -1.215334
     47          6           0       -7.747809   -1.367728   -2.232215
     48          1           0      -12.868281    3.619693   -0.600269
     49          1           0      -13.837661    4.910485    0.120019
     50          1           0      -13.419155    3.481189    1.077772
     51          1           0      -11.418415    5.555383    0.017680
     52          1           0      -12.861466    6.491646    1.828987
     53          1           0      -12.433770    5.136278    2.884908
     54          1           0      -11.191285    6.297772    2.390267
     55          1           0       -9.792636    4.457742    1.572422
     56          1           0      -10.968443    3.197762    1.912715
     57          1           0      -10.901191    2.463952   -0.479305
     58          1           0       -9.833602    3.804256   -0.868914
     59          1           0       -9.193707    1.598122    1.154885
     60          1           0       -8.073035    2.846444    0.644147
     61          1           0       -9.250130    0.754130   -1.248621
     62          1           0       -6.859686    2.643001   -1.649314
     63          1           0       -7.562765    1.566417   -2.867033
     64          1           0       -8.485747    2.937786   -2.274928
     65          1           0       -6.594125    0.798932    0.229748
     66          1           0       -9.183976   -0.646107    0.696529
     67          1           0       -7.918296   -0.239928    1.837071
     68          1           0       -8.279515   -2.745153    0.256652
     69          1           0       -7.282162   -2.511349    1.674651
     70          1           0       -6.164525   -2.894416   -0.797509
     71          1           0       -5.263609   -0.829490    1.237170
     72          1           0       -4.508996   -2.496358    2.542916
     73          1           0       -5.482770   -3.564793    1.578595
     74          1           0       -3.142317   -4.442570    1.809979
     75          1           0       -1.284270   -4.514097   -1.161622
     76          1           0       -1.281722   -5.018494    0.520543
     77          1           0        0.692172   -3.511701   -0.596629
     78          1           0       -0.345818   -3.203787    2.257698
     79          1           0        0.716237   -4.480298    1.678396
     80          1           0        1.444135   -1.505502    1.844066
     81          1           0        1.920416   -2.748962    2.983334
     82          1           0        2.785797   -2.615551    0.041813
     83          1           0        3.121071   -3.967157    1.105861
     84          1           0        5.081705   -2.546305    1.002811
     85          1           0        4.420717   -2.511156    2.634537
     86          1           0        3.425930   -0.273150    2.221327
     87          1           0        5.163877   -0.289610    2.004806
     88          1           0        3.032801   -0.187133   -0.231559
     89          1           0        4.610820    0.909848   -1.559364
     90          1           0        6.643880    0.508101    0.745563
     91          1           0        6.513800    1.958791   -0.236888
     92          1           0        7.122779    0.638907   -2.312815
     93          1           0        8.870963   -0.886434   -2.009078
     94          1           0        8.678120   -2.326315    0.049564
     95          1           0        8.145582   -0.948965    1.001900
     96          1           0       10.878257   -1.198508   -0.369847
     97          1           0       10.574321   -1.560672    1.322199
     98          1           0        9.856471    0.800768    1.724160
     99          1           0       10.149319    1.193600    0.044047
    100          1           0       12.261108    0.251381    2.072731
    101          1           0       11.997656    1.917183    1.606872
    102          1           0       13.048624   -0.337389   -0.191446
    103          1           0       13.974248    0.976701    0.503056
    104          1           0       13.530350    1.347004   -1.887118
    105          1           0       11.802175    1.219754   -1.655558
    106          1           0       12.493975    3.585414   -1.892353
    107          1           0       11.728966    3.306820   -0.327353
    108          1           0       14.873223    3.155876   -1.718489
    109          1           0       -0.886967   -1.297707    0.752032
    110          1           0        0.426231   -1.159955   -0.406104
    111          1           0       -1.097859   -2.142278   -2.182030
    112          1           0       -1.624861   -0.585593   -1.585315
    113          1           0       -3.512777   -2.160415   -3.020691
    114          1           0       -2.858884   -3.721991   -2.537704
    115          1           0       -4.492379   -3.274551   -2.044548
    116          1           0       -3.119402   -0.716277    0.507608
    117          1           0       -4.449697    0.859729   -0.508091
    118          1           0       -3.440373    0.310041   -1.820687
    119          1           0       -5.758822    0.616581   -2.549861
    120          1           0       -5.258740   -1.036919   -2.765368
    121          1           0       -7.326247   -2.227905   -2.766620
    122          1           0       -8.014696   -0.617142   -2.984129
    123          1           0       -8.677814   -1.697915   -1.757246
 ---------------------------------------------------------------------

 The electronic state is 1-A.
 Alpha  occ. eigenvalues --  -19.19363 -19.13140 -10.31627 -10.20741 -10.20466
 Alpha  occ. eigenvalues --  -10.19131 -10.18876 -10.18725 -10.18585 -10.18510
 Alpha  occ. eigenvalues --  -10.18502 -10.18335 -10.18331 -10.18272 -10.18233
 Alpha  occ. eigenvalues --  -10.18207 -10.18132 -10.18062 -10.18011 -10.17926
 Alpha  occ. eigenvalues --  -10.17924 -10.17898 -10.17866 -10.17854 -10.17668
 Alpha  occ. eigenvalues --  -10.17639 -10.17467 -10.17458 -10.17427 -10.17390
 Alpha  occ. eigenvalues --  -10.17351 -10.17347 -10.17326 -10.17296 -10.17237
 Alpha  occ. eigenvalues --  -10.17224 -10.17220 -10.17170 -10.17075 -10.16942
 Alpha  occ. eigenvalues --  -10.16849 -10.16837 -10.16832 -10.16807 -10.16724
 Alpha  occ. eigenvalues --  -10.16664 -10.16653  -1.09545  -1.01434  -0.85695
 Alpha  occ. eigenvalues --   -0.84055  -0.82233  -0.81535  -0.81171  -0.80631
 Alpha  occ. eigenvalues --   -0.79915  -0.78905  -0.78155  -0.77836  -0.76841
 Alpha  occ. eigenvalues --   -0.75695  -0.75051  -0.74102  -0.73352  -0.72410
 Alpha  occ. eigenvalues --   -0.71939  -0.70399  -0.69870  -0.68375  -0.67828
 Alpha  occ. eigenvalues --   -0.67649  -0.67179  -0.66399  -0.65964  -0.65010
 Alpha  occ. eigenvalues --   -0.64083  -0.62535  -0.61396  -0.60990  -0.60761
 Alpha  occ. eigenvalues --   -0.59828  -0.59742  -0.58399  -0.57157  -0.56304
 Alpha  occ. eigenvalues --   -0.55802  -0.55428  -0.55218  -0.54657  -0.53686
 Alpha  occ. eigenvalues --   -0.53222  -0.51691  -0.51167  -0.51079  -0.48929
 Alpha  occ. eigenvalues --   -0.48446  -0.47789  -0.47292  -0.47058  -0.46933
 Alpha  occ. eigenvalues --   -0.46658  -0.46147  -0.46093  -0.45844  -0.45585
 Alpha  occ. eigenvalues --   -0.45237  -0.44850  -0.44249  -0.43897  -0.43571
 Alpha  occ. eigenvalues --   -0.43443  -0.43297  -0.42897  -0.42523  -0.42435
 Alpha  occ. eigenvalues --   -0.42049  -0.41973  -0.41520  -0.41097  -0.40934
 Alpha  occ. eigenvalues --   -0.40752  -0.40475  -0.40214  -0.39984  -0.39876
 Alpha  occ. eigenvalues --   -0.39688  -0.39275  -0.39120  -0.38917  -0.38452
 Alpha  occ. eigenvalues --   -0.38422  -0.38052  -0.37875  -0.37827  -0.37565
 Alpha  occ. eigenvalues --   -0.37096  -0.36914  -0.36668  -0.36383  -0.36249
 Alpha  occ. eigenvalues --   -0.36078  -0.35937  -0.35648  -0.35318  -0.35125
 Alpha  occ. eigenvalues --   -0.34958  -0.34678  -0.34378  -0.34269  -0.34081
 Alpha  occ. eigenvalues --   -0.33960  -0.33724  -0.33118  -0.32680  -0.32579
 Alpha  occ. eigenvalues --   -0.32497  -0.32351  -0.32059  -0.32006  -0.31740
 Alpha  occ. eigenvalues --   -0.31651  -0.31535  -0.31498  -0.31407  -0.31281
 Alpha  occ. eigenvalues --   -0.31061  -0.30876  -0.30773  -0.30452  -0.30398
 Alpha  occ. eigenvalues --   -0.29909  -0.29593  -0.29038  -0.28148  -0.27553
 Alpha  occ. eigenvalues --   -0.27052  -0.26574  -0.26487  -0.24282  -0.23660
 Alpha  occ. eigenvalues --   -0.22124
 Alpha virt. eigenvalues --    0.00962   0.01432   0.03582   0.04012   0.04325
 Alpha virt. eigenvalues --    0.06693   0.07510   0.07994   0.08036   0.08756
 Alpha virt. eigenvalues --    0.09034   0.09194   0.09573   0.10311   0.10556

 Mulliken charges:
               1
     1  C   -0.444471
     2  C   -0.065134
     3  C   -0.441669
     4  C   -0.247067
     5  C   -0.266232
     6  C   -0.264052
     7  C   -0.081070
     8  C   -0.464959
     9  C   -0.091030
    10  C   -0.291225
    11  C   -0.294407
    12  C   -0.114683
    13  C   -0.096816
    14  C   -0.318884
    15  C   -0.194373
    16  C    0.173554
    17  C   -0.357634
    18  C   -0.058307
    19  C   -0.270560
    20  C   -0.263194
    21  C   -0.258272
    22  C   -0.253837
    23  C   -0.310592
    24  C   -0.104280
    25  C   -0.099462
    26  C   -0.345984
    27  C   -0.099924
    28  C   -0.097030
    29  C   -0.303303
    30  C   -0.259148
    31  C   -0.258237
    32  C   -0.270310
    33  C   -0.267631
    34  C   -0.279171
    35  C   -0.385529
    36  C    0.597786
    37  O   -0.440424
    38  O   -0.565917
    39  C   -0.285944
    40  C   -0.301832
    41  C    0.062965
    42  C   -0.473859
    43  C   -0.109393
    44  C   -0.293782
    45  C   -0.280087
    46  C    0.093475
    47  C   -0.474670
    48  H    0.144504
    49  H    0.138768
    50  H    0.136763
    51  H    0.118566
    52  H    0.138268
    53  H    0.137691
    54  H    0.138507
    55  H    0.124369
    56  H    0.122447
    57  H    0.130853
    58  H    0.130775
    59  H    0.137541
    60  H    0.121823
    61  H    0.115907
    62  H    0.138321
    63  H    0.150606
    64  H    0.143504
    65  H    0.116590
    66  H    0.133749
    67  H    0.136943
    68  H    0.135408
    69  H    0.136524
    70  H    0.120576
    71  H    0.119600
    72  H    0.139127
    73  H    0.147406
    74  H    0.108604
    75  H    0.134849
    76  H    0.136294
    77  H    0.119488
    78  H    0.131306
    79  H    0.122806
    80  H    0.136834
    81  H    0.125814
    82  H    0.138779
    83  H    0.127526
    84  H    0.135696
    85  H    0.126404
    86  H    0.143716
    87  H    0.135089
    88  H    0.125494
    89  H    0.118031
    90  H    0.148308
    91  H    0.151805
    92  H    0.118482
    93  H    0.114442
    94  H    0.142170
    95  H    0.138507
    96  H    0.129906
    97  H    0.131129
    98  H    0.130328
    99  H    0.137680
   100  H    0.132745
   101  H    0.156024
   102  H    0.138299
   103  H    0.149296
   104  H    0.121387
   105  H    0.157056
   106  H    0.156953
   107  H    0.185361
   108  H    0.408901
   109  H    0.138537
   110  H    0.134662
   111  H    0.128104
   112  H    0.137623
   113  H    0.146470
   114  H    0.139544
   115  H    0.151603
   116  H    0.119680
   117  H    0.130306
   118  H    0.130563
   119  H    0.132584
   120  H    0.131083
   121  H    0.137823
   122  H    0.144687
   123  H    0.142688
 Sum of Mulliken charges =  -0.00000

 Dipole moment (field-independent basis, Debye):
    X=             -1.5085    Y=             -2.1130    Z=             -3.0567  Tot=              4.0104
 Quadrupole moment (field-independent basis, Debye-Ang):
   XX=           -336.1553   YY=           -313.3439   ZZ=           -292.8899
   XY=            -37.9842   XZ=            -45.2527   YZ=            -14.0808

 1\1\GINC-NODE61\FOpt\RB3LYP\6-31G(d)\C45H76O2\WYKGROUP\04-Nov-2022\0\\
 #p b3lyp/6-31g(d) opt SCF=XQC\\Gaussian input prepared by ASE\\0,1\C,-
 12.8122203808,0.6915292907,-3.1712317406\C,-11.5910536043,1.1674740465
 ,-3.9730913569\C,-11.9420683096,2.4167112302,-4.7953519272\C,-10.36434
 71039,1.4367333562,-3.0786820755\C,-9.8034614533,0.2096420352,-2.34422
 88143\C,-8.5232265964,0.532262148,-1.5568271282\C,-7.956096013,-0.6291
 23949,-0.7005611297\C,-7.4657026699,-1.7612194637,-1.6198985904\C,-6.8
 782832628,-0.0822330713,0.2796714112\C,-7.4657697517,1.0107994852,1.22

 Normal termination of Gaussian 16 at Fri Nov  4 20:25:38 2022.
