 Gaussian 16, Revision B.01,
 Gaussian 16:  ES64L-G16RevB.01 20-Dec-2017

 -----------------------------
 #p b3lyp/6-31g(d) opt SCF=XQC
 -----------------------------

 ------------------------------
 Gaussian input prepared by ASE
 ------------------------------
 Symbolic Z-matrix:
 Charge =  0 Multiplicity = 1

 SCF Done:  E(RB3LYP) =  -1515.02354871     A.U. after   15 cycles
 SCF Done:  E(RB3LYP) =  -1515.03016076     A.U. after   13 cycles
 SCF Done:  E(RB3LYP) =  -1515.03148265     A.U. after   12 cycles
 SCF Done:  E(RB3LYP) =  -1515.03196441     A.U. after   12 cycles
 SCF Done:  E(RB3LYP) =  -1515.03202227     A.U. after   12 cycles
 SCF Done:  E(RB3LYP) =  -1515.03216242     A.U. after   10 cycles
 SCF Done:  E(RB3LYP) =  -1515.03220795     A.U. after   10 cycles
 SCF Done:  E(RB3LYP) =  -1515.03224072     A.U. after   11 cycles
 SCF Done:  E(RB3LYP) =  -1515.03225542     A.U. after   11 cycles
 SCF Done:  E(RB3LYP) =  -1515.03227674     A.U. after   10 cycles
 SCF Done:  E(RB3LYP) =  -1515.03235065     A.U. after   11 cycles
 SCF Done:  E(RB3LYP) =  -1515.03240341     A.U. after   12 cycles
 SCF Done:  E(RB3LYP) =  -1515.03241724     A.U. after   10 cycles
 SCF Done:  E(RB3LYP) =  -1515.03242554     A.U. after   11 cycles
 SCF Done:  E(RB3LYP) =  -1515.03242708     A.U. after   10 cycles
 SCF Done:  E(RB3LYP) =  -1515.03242804     A.U. after   11 cycles
 SCF Done:  E(RB3LYP) =  -1515.03242894     A.U. after   10 cycles
 SCF Done:  E(RB3LYP) =  -1515.03242965     A.U. after   10 cycles
 SCF Done:  E(RB3LYP) =  -1515.03242998     A.U. after    9 cycles
 SCF Done:  E(RB3LYP) =  -1515.03243000     A.U. after    7 cycles
 Optimization completed.
    -- Stationary point found.

                         Standard orientation:
 ---------------------------------------------------------------------
 Center     Atomic      Atomic             Coordinates (Angstroms)
 Number     Number       Type             X           Y           Z
 ---------------------------------------------------------------------
      1          6           0        7.531291   -1.123402   -0.064557
      2          7           0        6.158480   -1.080028    0.422366
      3          6           0        6.128065   -0.800992    1.852109
      4          6           0        5.427126   -2.300406    0.071236
      5          6           0        3.904129   -2.165306    0.190645
      6          6           0        3.344430   -1.053284   -0.709705
      7          7           0        1.896147   -0.926557   -0.616807
      8          6           0        1.053403   -1.679160   -1.388649
      9          8           0        1.376869   -2.480541   -2.249207
     10          6           0       -0.381749   -1.316731   -0.960438
     11          8           0       -1.372827   -1.777032   -1.502127
     12          6           0       -0.244338   -0.394565    0.169344
     13          6           0       -1.202189    0.021443    1.043924
     14          8           0       -0.752913    0.658635    2.164049
     15          6           0       -2.661507   -0.168783    0.966828
     16          6           0       -3.380484   -0.428431    2.152599
     17          6           0       -4.763229   -0.557912    2.127664
     18          6           0       -5.458223   -0.419226    0.924456
     19          6           0       -4.746529   -0.176901   -0.266622
     20          6           0       -3.362499   -0.049054   -0.241157
     21          8           0       -5.389584   -0.044268   -1.470157
     22          6           0       -6.712379   -0.581993   -1.473917
     23          6           0       -7.472455   -0.097259   -0.250899
     24          8           0       -6.819190   -0.536179    0.945503
     25          6           0        1.234109   -0.077289    0.377522
     26          6           0        1.576530    1.402005    0.197766
     27          6           0        2.014839    2.164938    1.284454
     28          6           0        2.316974    3.519605    1.125470
     29          6           0        2.189239    4.131150   -0.120676
     30          6           0        1.754828    3.355179   -1.191093
     31          9           0        1.629310    3.934025   -2.404772
     32          6           0        1.447514    2.008885   -1.057569
     33          1           0        7.535767   -1.264724   -1.150543
     34          1           0        8.030173   -0.173283    0.156327
     35          1           0        8.132156   -1.936463    0.389854
     36          1           0        5.097577   -0.679645    2.198921
     37          1           0        6.601480   -1.599078    2.459148
     38          1           0        6.657682    0.136538    2.052596
     39          1           0        5.670037   -2.537124   -0.972297
     40          1           0        5.766693   -3.165750    0.676352
     41          1           0        3.610286   -1.986309    1.233021
     42          1           0        3.449285   -3.118814   -0.102259
     43          1           0        3.802238   -0.092520   -0.461221
     44          1           0        3.576878   -1.278841   -1.755431
     45          1           0       -1.508627    1.082832    2.603859
     46          1           0       -2.852139   -0.574630    3.090751
     47          1           0       -5.328702   -0.767569    3.030019
     48          1           0       -2.844930    0.127366   -1.174154
     49          1           0       -6.667399   -1.679364   -1.482975
     50          1           0       -7.182854   -0.235253   -2.397133
     51          1           0       -8.483328   -0.510930   -0.215061
     52          1           0       -7.531765    0.999188   -0.253734
     53          1           0        1.551731   -0.373632    1.387044
     54          1           0        2.111379    1.697970    2.260569
     55          1           0        2.658245    4.102174    1.976745
     56          1           0        2.420672    5.179741   -0.275688
     57          1           0        1.121059    1.448000   -1.927591
 ---------------------------------------------------------------------

 The electronic state is 1-A.
 Alpha  occ. eigenvalues --  -24.70089 -19.20710 -19.19780 -19.19052 -19.12691
 Alpha  occ. eigenvalues --  -19.10404 -14.36144 -14.32441 -10.28357 -10.27137
 Alpha  occ. eigenvalues --  -10.26828 -10.26554 -10.26373 -10.26306 -10.26096
 Alpha  occ. eigenvalues --  -10.25963 -10.24341 -10.21665 -10.21084 -10.21023
 Alpha  occ. eigenvalues --  -10.20691 -10.20627 -10.20535 -10.20310 -10.20144
 Alpha  occ. eigenvalues --  -10.20106 -10.19993 -10.19677 -10.19652 -10.19472
 Alpha  occ. eigenvalues --  -10.19369 -10.18176  -1.21239  -1.10026  -1.08879
 Alpha  occ. eigenvalues --   -1.06376  -1.03506  -1.01002  -0.94599  -0.91769
 Alpha  occ. eigenvalues --   -0.87411  -0.86332  -0.81806  -0.79786  -0.77640
 Alpha  occ. eigenvalues --   -0.76976  -0.76079  -0.74964  -0.73634  -0.71233
 Alpha  occ. eigenvalues --   -0.70282  -0.69402  -0.68060  -0.65761  -0.63736
 Alpha  occ. eigenvalues --   -0.62052  -0.61717  -0.60590  -0.59613  -0.57459
 Alpha  occ. eigenvalues --   -0.56520  -0.56136  -0.54201  -0.53907  -0.52586
 Alpha  occ. eigenvalues --   -0.52132  -0.50524  -0.50323  -0.49382  -0.48386
 Alpha  occ. eigenvalues --   -0.47731  -0.46985  -0.46893  -0.46646  -0.45564
 Alpha  occ. eigenvalues --   -0.45410  -0.45269  -0.45073  -0.44865  -0.44614
 Alpha  occ. eigenvalues --   -0.43757  -0.43605  -0.42882  -0.42323  -0.41687
 Alpha  occ. eigenvalues --   -0.40872  -0.40590  -0.40402  -0.40207  -0.39764
 Alpha  occ. eigenvalues --   -0.39136  -0.38946  -0.38355  -0.38178  -0.37609
 Alpha  occ. eigenvalues --   -0.37177  -0.36982  -0.36567  -0.35869  -0.35231
 Alpha  occ. eigenvalues --   -0.34717  -0.34509  -0.34350  -0.33977  -0.33490
 Alpha  occ. eigenvalues --   -0.33083  -0.31600  -0.27646  -0.26323  -0.25573
 Alpha  occ. eigenvalues --   -0.24358  -0.23968  -0.23621  -0.22094  -0.21699
 Alpha  occ. eigenvalues --   -0.21099
 Alpha virt. eigenvalues --   -0.07106  -0.01581  -0.01422  -0.00670   0.00335
 Alpha virt. eigenvalues --    0.04083   0.06843   0.07444   0.07802   0.09101
 Alpha virt. eigenvalues --    0.09460   0.09751   0.10941   0.11872   0.12174

 Mulliken charges:
               1
     1  C   -0.294344
     2  N   -0.365190
     3  C   -0.299160
     4  C   -0.122184
     5  C   -0.281614
     6  C   -0.141344
     7  N   -0.459363
     8  C    0.561620
     9  O   -0.516601
    10  C    0.313068
    11  O   -0.479303
    12  C   -0.003844
    13  C    0.257897
    14  O   -0.603985
    15  C    0.084519
    16  C   -0.208757
    17  C   -0.191869
    18  C    0.344718
    19  C    0.328499
    20  C   -0.185166
    21  O   -0.515588
    22  C   -0.066427
    23  C   -0.062764
    24  O   -0.516792
    25  C   -0.101439
    26  C    0.200440
    27  C   -0.182526
    28  C   -0.135084
    29  C   -0.195414
    30  C    0.382707
    31  F   -0.298198
    32  C   -0.255557
    33  H    0.152010
    34  H    0.147698
    35  H    0.117700
    36  H    0.147583
    37  H    0.117668
    38  H    0.149447
    39  H    0.143061
    40  H    0.113769
    41  H    0.134205
    42  H    0.163612
    43  H    0.172737
    44  H    0.172040
    45  H    0.414802
    46  H    0.143010
    47  H    0.149638
    48  H    0.176887
    49  H    0.169417
    50  H    0.167684
    51  H    0.166051
    52  H    0.164517
    53  H    0.156526
    54  H    0.131440
    55  H    0.137093
    56  H    0.145967
    57  H    0.154482
 Sum of Mulliken charges =  -0.00000

 Dipole moment (field-independent basis, Debye):
    X=             -2.9224    Y=              3.2482    Z=              5.6492  Tot=              7.1418
 Quadrupole moment (field-independent basis, Debye-Ang):
   XX=           -132.7609   YY=           -191.9412   ZZ=           -185.3651
   XY=             -2.0871   XZ=              8.9205   YZ=             -3.1081

 Normal termination of Gaussian 16 at Fri Nov  4 19:28:44 2022.
