 Gaussian 16, Revision B.01,
 Gaussian 16:  ES64L-G16RevB.01 20-Dec-2017

 -------------------------------------------------------------------
 #p b3lyp/6-31g(d) 6D 10F nosymm GFInput td=(50-50,nstate=2) SCF=XQC
 -------------------------------------------------------------------

 ------------------------------
 Gaussian input prepared by ASE
 ------------------------------
 Symbolic Z-matrix:
 Charge =  0 Multiplicity = 1

                          Input orientation:
 ---------------------------------------------------------------------
 Center     Atomic      Atomic             Coordinates (Angstroms)
 Number     Number       Type             X           Y           Z
 ---------------------------------------------------------------------
      1          6           0       -6.978030    0.056938   -1.032066
      2          7           0       -5.661957    0.329553   -0.468845
      3          6           0       -5.748541    0.519664    0.973137
      4          6           0       -5.011983    1.454342   -1.146986
      5          6           0       -3.502388    1.542567   -0.891312
      6          6           0       -2.758540    0.277324   -1.345555
      7          7           0       -1.321111    0.356371   -1.122486
      8          6           0       -0.477005    0.921243   -2.039424
      9          8           0       -0.784206    1.367905   -3.131909
     10          6           0        0.935330    0.882109   -1.424481
     11          8           0        1.929868    1.261285   -2.020014
     12          6           0        0.769949    0.352430   -0.068837
     13          6           0        1.669822    0.347360    0.953726
     14          8           0        1.170740    0.046676    2.187843
     15          6           0        3.106575    0.672860    0.914610
     16          6           0        3.678168    1.374226    1.997091
     17          6           0        5.039320    1.649947    2.021857
     18          6           0        5.859847    1.222281    0.976009
     19          6           0        5.294442    0.536416   -0.116604
     20          6           0        3.931817    0.262251   -0.141482
     21          8           0        6.062986    0.108281   -1.168102
     22          6           0        7.325955    0.768255   -1.259159
     23          6           0        8.001450    0.784859    0.101681
     24          8           0        7.195982    1.498109    1.046815
     25          6           0       -0.687348   -0.053791    0.133838
     26          6           0       -0.875980   -1.543937    0.419775
     27          6           0       -1.349583   -1.972310    1.663667
     28          6           0       -1.511546   -3.333808    1.931574
     29          6           0       -1.206442   -4.286732    0.960992
     30          6           0       -0.739486   -3.841417   -0.272006
     31          9           0       -0.442738   -4.753589   -1.222646
     32          6           0       -0.569114   -2.495206   -0.560907
     33          1           0       -6.887461   -0.151822   -2.103315
     34          1           0       -7.408984   -0.827021   -0.549059
     35          1           0       -7.691593    0.895544   -0.904928
     36          1           0       -4.750814    0.634777    1.406955
     37          1           0       -6.349591    1.407033    1.257522
     38          1           0       -6.209061   -0.362438    1.430816
     39          1           0       -5.170485    1.320938   -2.224522
     40          1           0       -5.486240    2.420110   -0.877423
     41          1           0       -3.298483    1.735938    0.169802
     42          1           0       -3.108239    2.401933   -1.446280
     43          1           0       -3.150570   -0.603188   -0.830373
     44          1           0       -2.905453    0.133938   -2.420873
     45          1           0        1.914146   -0.126397    2.789401
     46          1           0        3.048402    1.745125    2.801132
     47          1           0        5.491386    2.197190    2.842906
     48          1           0        3.527277   -0.257714   -0.999077
     49          1           0        7.183702    1.793974   -1.625213
     50          1           0        7.914904    0.206362   -1.988076
     51          1           0        8.962519    1.303961    0.067756
     52          1           0        8.159000   -0.242054    0.457141
     53          1           0       -1.128849    0.505614    0.970486
     54          1           0       -1.584005   -1.236828    2.428058
     55          1           0       -1.881839   -3.654924    2.901259
     56          1           0       -1.326227   -5.350370    1.138362
     57          1           0       -0.209696   -2.202142   -1.542251
 ---------------------------------------------------------------------

 SCF Done:  E(RB3LYP) =  -1515.03242678     A.U. after   16 cycles

 Excitation energies and oscillator strengths:

 Excited state symmetry could not be determined.
 Excited State   1:      Triplet-?Sym    2.3664 eV  523.94 nm  f=0.0000  <S**2>=2.000
     108 ->117        -0.12229
     115 ->117         0.66159
     115 ->120         0.13461
 This state for optimization and/or second-order correction.
 Total Energy, E(TD-HF/TD-DFT) =  -1514.94546423
 Copying the excited state density for this state as the 1-particle RhoCI density.

 Excited state symmetry could not be determined.
 Excited State   2:      Triplet-?Sym    2.4834 eV  499.25 nm  f=0.0000  <S**2>=2.000
     109 ->117        -0.18865
     112 ->117        -0.28952
     114 ->117         0.59390

 Excited state symmetry could not be determined.
 Excited State   3:      Singlet-?Sym    2.7635 eV  448.65 nm  f=0.0004  <S**2>=0.000
     115 ->117         0.67816

 Excited state symmetry could not be determined.
 Excited State   4:      Singlet-?Sym    3.4024 eV  364.40 nm  f=0.0261  <S**2>=0.000
     116 ->117         0.69731

 Alpha  occ. eigenvalues --  -24.70089 -19.20709 -19.19780 -19.19052 -19.12691
 Alpha  occ. eigenvalues --  -19.10404 -14.36144 -14.32442 -10.28357 -10.27137
 Alpha  occ. eigenvalues --  -10.26828 -10.26554 -10.26373 -10.26306 -10.26096
 Alpha  occ. eigenvalues --  -10.25963 -10.24340 -10.21665 -10.21084 -10.21023
 Alpha  occ. eigenvalues --  -10.20691 -10.20627 -10.20535 -10.20310 -10.20144
 Alpha  occ. eigenvalues --  -10.20106 -10.19993 -10.19677 -10.19652 -10.19472
 Alpha  occ. eigenvalues --  -10.19369 -10.18176  -1.21239  -1.10026  -1.08879
 Alpha  occ. eigenvalues --   -1.06376  -1.03506  -1.01002  -0.94599  -0.91769
 Alpha  occ. eigenvalues --   -0.87411  -0.86332  -0.81805  -0.79786  -0.77640
 Alpha  occ. eigenvalues --   -0.76976  -0.76079  -0.74964  -0.73634  -0.71233
 Alpha  occ. eigenvalues --   -0.70282  -0.69402  -0.68060  -0.65761  -0.63736
 Alpha  occ. eigenvalues --   -0.62052  -0.61717  -0.60590  -0.59613  -0.57458
 Alpha  occ. eigenvalues --   -0.56520  -0.56136  -0.54201  -0.53907  -0.52586
 Alpha  occ. eigenvalues --   -0.52132  -0.50524  -0.50323  -0.49382  -0.48386
 Alpha  occ. eigenvalues --   -0.47731  -0.46985  -0.46893  -0.46646  -0.45564
 Alpha  occ. eigenvalues --   -0.45410  -0.45269  -0.45073  -0.44865  -0.44614
 Alpha  occ. eigenvalues --   -0.43757  -0.43605  -0.42882  -0.42323  -0.41687
 Alpha  occ. eigenvalues --   -0.40872  -0.40590  -0.40402  -0.40207  -0.39764
 Alpha  occ. eigenvalues --   -0.39136  -0.38947  -0.38355  -0.38178  -0.37609
 Alpha  occ. eigenvalues --   -0.37177  -0.36982  -0.36567  -0.35869  -0.35231
 Alpha  occ. eigenvalues --   -0.34717  -0.34509  -0.34350  -0.33977  -0.33490
 Alpha  occ. eigenvalues --   -0.33083  -0.31600  -0.27646  -0.26323  -0.25573
 Alpha  occ. eigenvalues --   -0.24358  -0.23968  -0.23621  -0.22094  -0.21699
 Alpha  occ. eigenvalues --   -0.21099
 Alpha virt. eigenvalues --   -0.07106  -0.01581  -0.01422  -0.00670   0.00335
 Alpha virt. eigenvalues --    0.04083   0.06843   0.07444   0.07802   0.09101
 Alpha virt. eigenvalues --    0.09460   0.09751   0.10941   0.11872   0.12174

 Mulliken charges:
               1
     1  C   -0.294345
     2  N   -0.365195
     3  C   -0.299154
     4  C   -0.122187
     5  C   -0.281619
     6  C   -0.141346
     7  N   -0.459369
     8  C    0.561617
     9  O   -0.516601
    10  C    0.313075
    11  O   -0.479305
    12  C   -0.003785
    13  C    0.257851
    14  O   -0.603984
    15  C    0.084521
    16  C   -0.208761
    17  C   -0.191865
    18  C    0.344714
    19  C    0.328513
    20  C   -0.185169
    21  O   -0.515590
    22  C   -0.066435
    23  C   -0.062761
    24  O   -0.516796
    25  C   -0.101438
    26  C    0.200427
    27  C   -0.182526
    28  C   -0.135081
    29  C   -0.195415
    30  C    0.382700
    31  F   -0.298198
    32  C   -0.255550
    33  H    0.152011
    34  H    0.147699
    35  H    0.117700
    36  H    0.147583
    37  H    0.117669
    38  H    0.149445
    39  H    0.143064
    40  H    0.113770
    41  H    0.134209
    42  H    0.163614
    43  H    0.172737
    44  H    0.172040
    45  H    0.414801
    46  H    0.143010
    47  H    0.149637
    48  H    0.176886
    49  H    0.169419
    50  H    0.167686
    51  H    0.166051
    52  H    0.164516
    53  H    0.156523
    54  H    0.131441
    55  H    0.137092
    56  H    0.145968
    57  H    0.154489
 Sum of Mulliken charges =  -0.00000

 Dipole moment (field-independent basis, Debye):
    X=              2.6276    Y=             -0.9428    Z=              6.5735  Tot=              7.1417
 Quadrupole moment (field-independent basis, Debye-Ang):
   XX=           -128.5271   YY=           -189.5667   ZZ=           -190.2749
   XY=              0.8554   XZ=             -1.0594   YZ=              3.0810

 Normal termination of Gaussian 16 at Sat Nov  5 11:29:26 2022.
