 Gaussian 16, Revision B.01,
 Gaussian 16:  ES64L-G16RevB.01 20-Dec-2017

 -------------------------------------------------------------------
 #p b3lyp/6-31g(d) 6D 10F nosymm GFInput td=(50-50,nstate=2) SCF=XQC
 -------------------------------------------------------------------

 ------------------------------
 Gaussian input prepared by ASE
 ------------------------------
 Symbolic Z-matrix:
 Charge =  0 Multiplicity = 1

                          Input orientation:
 ---------------------------------------------------------------------
 Center     Atomic      Atomic             Coordinates (Angstroms)
 Number     Number       Type             X           Y           Z
 ---------------------------------------------------------------------
      1          6           0        6.529193    3.189868   -0.812014
      2          6           0        5.480570    2.576221    0.079671
      3          6           0        4.546510    3.330917    0.793693
      4          6           0        3.589071    2.723076    1.610918
      5          6           0        3.538865    1.333008    1.740391
      6          6           0        2.498442    0.658561    2.616153
      7          7           0        1.511204   -0.116219    1.870964
      8          6           0        1.654460   -1.461469    1.653662
      9          8           0        2.555508   -2.128010    2.158965
     10          6           0        0.611114   -2.043609    0.709384
     11          6           0        1.236739   -2.325099   -0.671554
     12          6           0        0.134627   -2.744597   -1.673636
     13          7           0       -1.092301   -3.145243   -0.967897
     14          6           0       -2.136322   -3.586612   -1.872650
     15          6           0       -2.907089   -2.455057   -2.574375
     16          8           0       -3.592715   -2.706633   -3.556545
     17          7           0       -2.788167   -1.225800   -1.967439
     18          6           0       -3.389267   -0.013966   -2.336119
     19          6           0       -4.206163    0.086206   -3.478070
     20          6           0       -4.791924    1.298530   -3.827952
     21          6           0       -4.587147    2.444623   -3.059244
     22          6           0       -3.797216    2.351816   -1.919176
     23          6           0       -3.199576    1.142148   -1.529804
     24          6           0       -2.344854    1.112674   -0.300240
     25          8           0       -1.317689    0.427490   -0.214331
     26          7           0       -2.768445    1.895297    0.735918
     27          6           0       -2.020693    2.055542    1.951414
     28          6           0       -1.968740    0.921511    2.944668
     29          6           0       -2.788156    2.150917    3.244742
     30          6           0       -0.781802   -4.077666    0.124041
     31          6           0       -0.007819   -3.343920    1.248893
     32          6           0        4.469557    0.555271    1.035195
     33          6           0        5.403578    1.187753    0.231899
     34          9           0        6.300290    0.428895   -0.443630
     35          1           0        6.448706    4.280857   -0.814912
     36          1           0        6.431261    2.836860   -1.845469
     37          1           0        7.540073    2.922344   -0.482284
     38          1           0        4.570477    4.414679    0.706268
     39          1           0        2.877727    3.340952    2.154360
     40          1           0        1.974262    1.411467    3.215875
     41          1           0        2.977423   -0.046453    3.301109
     42          1           0        0.812020    0.375744    1.325863
     43          1           0       -0.183815   -1.309918    0.572814
     44          1           0        1.762390   -1.440656   -1.047718
     45          1           0        1.988056   -3.115431   -0.559913
     46          1           0       -0.116268   -1.906567   -2.332802
     47          1           0        0.498940   -3.566337   -2.319416
     48          1           0       -2.886977   -4.148466   -1.302635
     49          1           0       -1.782955   -4.261021   -2.671620
     50          1           0       -2.130843   -1.195257   -1.188313
     51          1           0       -4.364710   -0.799830   -4.075435
     52          1           0       -5.408919    1.344513   -4.721384
     53          1           0       -5.026761    3.395135   -3.345942
     54          1           0       -3.601733    3.247604   -1.335646
     55          1           0       -3.632639    2.407534    0.631110
     56          1           0       -1.126972    2.670312    1.853231
     57          1           0       -1.038384    0.759720    3.480465
     58          1           0       -2.499814    0.013089    2.679595
     59          1           0       -3.870284    2.057815    3.196580
     60          1           0       -2.433116    2.853310    3.992991
     61          1           0       -0.198695   -4.940386   -0.249175
     62          1           0       -1.723210   -4.481005    0.510886
     63          1           0        0.785869   -3.982883    1.649698
     64          1           0       -0.682878   -3.106966    2.080014
     65          1           0        4.468127   -0.527184    1.116777
 ---------------------------------------------------------------------

 SCF Done:  E(RB3LYP) =  -1553.97875923     A.U. after   14 cycles

 Excitation energies and oscillator strengths:

 Excited state symmetry could not be determined.
 Excited State   1:      Triplet-?Sym    3.3394 eV  371.28 nm  f=0.0000  <S**2>=2.000
     117 ->125        -0.26050
     117 ->126         0.11645
     123 ->125         0.51951
     123 ->126         0.32244
 This state for optimization and/or second-order correction.
 Total Energy, E(TD-HF/TD-DFT) =  -1553.85603884
 Copying the excited state density for this state as the 1-particle RhoCI density.

 Excited state symmetry could not be determined.
 Excited State   2:      Triplet-?Sym    3.7648 eV  329.33 nm  f=0.0000  <S**2>=2.000
     117 ->125         0.23378
     117 ->126        -0.17211
     123 ->125         0.44409
     123 ->126        -0.41874

 Excited state symmetry could not be determined.
 Excited State   3:      Singlet-?Sym    4.1467 eV  298.99 nm  f=0.0006  <S**2>=0.000
     124 ->125         0.69166

 Excited state symmetry could not be determined.
 Excited State   4:      Singlet-?Sym    4.3075 eV  287.83 nm  f=0.0983  <S**2>=0.000
     117 ->126         0.14168
     123 ->125         0.67448
     123 ->126        -0.10237

 Alpha  occ. eigenvalues --  -24.69606 -19.13496 -19.11765 -19.10142 -14.38182
 Alpha  occ. eigenvalues --  -14.36767 -14.35107 -14.33385 -10.30868 -10.29049
 Alpha  occ. eigenvalues --  -10.27214 -10.26168 -10.25015 -10.24761 -10.22212
 Alpha  occ. eigenvalues --  -10.21883 -10.21360 -10.21179 -10.21136 -10.20919
 Alpha  occ. eigenvalues --  -10.20891 -10.20538 -10.20075 -10.19890 -10.19794
 Alpha  occ. eigenvalues --  -10.19690 -10.19249 -10.18859 -10.18856 -10.18531
 Alpha  occ. eigenvalues --  -10.18529 -10.18203 -10.18098 -10.17763  -1.20617
 Alpha  occ. eigenvalues --   -1.05176  -1.03597  -1.01857  -0.94981  -0.94274
 Alpha  occ. eigenvalues --   -0.92769  -0.91235  -0.86574  -0.85827  -0.85158
 Alpha  occ. eigenvalues --   -0.80388  -0.78310  -0.76868  -0.75750  -0.74819
 Alpha  occ. eigenvalues --   -0.74214  -0.72687  -0.70956  -0.67151  -0.66562
 Alpha  occ. eigenvalues --   -0.64004  -0.63148  -0.62797  -0.62760  -0.61613
 Alpha  occ. eigenvalues --   -0.61266  -0.59287  -0.58761  -0.57311  -0.56978
 Alpha  occ. eigenvalues --   -0.55100  -0.54250  -0.52833  -0.52002  -0.51938
 Alpha  occ. eigenvalues --   -0.51344  -0.50110  -0.49872  -0.49106  -0.48091
 Alpha  occ. eigenvalues --   -0.47717  -0.46836  -0.46505  -0.46100  -0.45373
 Alpha  occ. eigenvalues --   -0.45215  -0.44176  -0.43959  -0.43665  -0.43219
 Alpha  occ. eigenvalues --   -0.42582  -0.42282  -0.42009  -0.41669  -0.41051
 Alpha  occ. eigenvalues --   -0.40896  -0.40837  -0.40217  -0.39803  -0.39573
 Alpha  occ. eigenvalues --   -0.39000  -0.38838  -0.38527  -0.38238  -0.37492
 Alpha  occ. eigenvalues --   -0.37067  -0.36665  -0.36343  -0.35735  -0.35292
 Alpha  occ. eigenvalues --   -0.34574  -0.34434  -0.33893  -0.33255  -0.33167
 Alpha  occ. eigenvalues --   -0.32104  -0.31833  -0.30831  -0.30765  -0.27650
 Alpha  occ. eigenvalues --   -0.27088  -0.25950  -0.25432  -0.25161  -0.24160
 Alpha  occ. eigenvalues --   -0.23754  -0.23064  -0.22514  -0.21904
 Alpha virt. eigenvalues --   -0.04309  -0.01752  -0.00618   0.00674   0.03362
 Alpha virt. eigenvalues --    0.03666   0.04409   0.06426   0.07172   0.07945
 Alpha virt. eigenvalues --    0.09194   0.09752   0.10359   0.10447   0.11385

 Mulliken charges:
               1
     1  C   -0.521103
     2  C    0.101144
     3  C   -0.182223
     4  C   -0.185159
     5  C    0.162404
     6  C   -0.232736
     7  N   -0.605409
     8  C    0.625484
     9  O   -0.550801
    10  C   -0.207197
    11  C   -0.302894
    12  C   -0.121289
    13  N   -0.432402
    14  C   -0.204154
    15  C    0.587915
    16  O   -0.506730
    17  N   -0.752551
    18  C    0.321635
    19  C   -0.168486
    20  C   -0.136382
    21  C   -0.128073
    22  C   -0.206889
    23  C    0.028476
    24  C    0.553738
    25  O   -0.539365
    26  N   -0.612238
    27  C    0.046714
    28  C   -0.296905
    29  C   -0.339615
    30  C   -0.129877
    31  C   -0.277771
    32  C   -0.255047
    33  C    0.329375
    34  F   -0.297732
    35  H    0.151969
    36  H    0.170115
    37  H    0.170743
    38  H    0.126078
    39  H    0.116404
    40  H    0.140923
    41  H    0.195383
    42  H    0.348480
    43  H    0.196271
    44  H    0.152287
    45  H    0.158611
    46  H    0.152375
    47  H    0.124205
    48  H    0.170922
    49  H    0.154752
    50  H    0.397553
    51  H    0.199513
    52  H    0.140689
    53  H    0.132985
    54  H    0.131350
    55  H    0.336549
    56  H    0.160349
    57  H    0.170154
    58  H    0.171090
    59  H    0.160756
    60  H    0.164932
    61  H    0.125214
    62  H    0.140124
    63  H    0.164807
    64  H    0.134808
    65  H    0.175751
 Sum of Mulliken charges =  -0.00000

 Dipole moment (field-independent basis, Debye):
    X=             -3.6971    Y=              5.4547    Z=              2.1225  Tot=              6.9230
 Quadrupole moment (field-independent basis, Debye-Ang):
   XX=           -204.4169   YY=           -183.9576   ZZ=           -204.7382
   XY=             -3.5141   XZ=            -16.4612   YZ=              1.1382

 Normal termination of Gaussian 16 at Sat Nov  5 11:33:36 2022.
