 Gaussian 16, Revision B.01,
 Gaussian 16:  ES64L-G16RevB.01 20-Dec-2017

 -----------------------------
 #p b3lyp/6-31g(d) opt SCF=XQC
 -----------------------------

 ------------------------------
 Gaussian input prepared by ASE
 ------------------------------
 Symbolic Z-matrix:
 Charge =  0 Multiplicity = 1

 SCF Done:  E(RB3LYP) =  -1553.96253490     A.U. after   15 cycles
 SCF Done:  E(RB3LYP) =  -1553.96883414     A.U. after   13 cycles
 SCF Done:  E(RB3LYP) =  -1553.96920000     A.U. after   13 cycles
 SCF Done:  E(RB3LYP) =  -1553.97057949     A.U. after   12 cycles
 SCF Done:  E(RB3LYP) =  -1553.97065015     A.U. after   13 cycles
 SCF Done:  E(RB3LYP) =  -1553.97110113     A.U. after   11 cycles
 SCF Done:  E(RB3LYP) =  -1553.97120835     A.U. after   12 cycles
 SCF Done:  E(RB3LYP) =  -1553.97137994     A.U. after   11 cycles
 SCF Done:  E(RB3LYP) =  -1553.97155124     A.U. after   12 cycles
 SCF Done:  E(RB3LYP) =  -1553.97161522     A.U. after   12 cycles
 SCF Done:  E(RB3LYP) =  -1553.97874745     A.U. after   10 cycles
 SCF Done:  E(RB3LYP) =  -1553.97875367     A.U. after    9 cycles
 SCF Done:  E(RB3LYP) =  -1553.97875584     A.U. after    9 cycles
 SCF Done:  E(RB3LYP) =  -1553.97875653     A.U. after    9 cycles
 SCF Done:  E(RB3LYP) =  -1553.97875703     A.U. after    9 cycles
 SCF Done:  E(RB3LYP) =  -1553.97875725     A.U. after    7 cycles
 SCF Done:  E(RB3LYP) =  -1553.97875749     A.U. after    7 cycles
 SCF Done:  E(RB3LYP) =  -1553.97875756     A.U. after    6 cycles
 SCF Done:  E(RB3LYP) =  -1553.97875761     A.U. after    7 cycles
 SCF Done:  E(RB3LYP) =  -1553.97875761     A.U. after    6 cycles
 Optimization completed.
    -- Stationary point found.

                         Standard orientation:
 ---------------------------------------------------------------------
 Center     Atomic      Atomic             Coordinates (Angstroms)
 Number     Number       Type             X           Y           Z
 ---------------------------------------------------------------------
      1          6           0       -6.460717    1.462015    3.031078
      2          6           0       -5.652223    1.203493    1.785775
      3          6           0       -5.173539    2.222899    0.959014
      4          6           0       -4.426569    1.941203   -0.188462
      5          6           0       -4.136282    0.622360   -0.546176
      6          6           0       -3.317757    0.301736   -1.783728
      7          7           0       -2.006411   -0.269450   -1.493298
      8          6           0       -1.792609   -1.622460   -1.460281
      9          8           0       -2.651077   -2.442854   -1.778846
     10          6           0       -0.404935   -2.011156   -0.967945
     11          6           0       -0.481217   -2.555961    0.472542
     12          6           0        0.945961   -2.778226    1.028024
     13          7           0        1.935323   -2.803543   -0.060304
     14          6           0        3.281992   -3.052704    0.416941
     15          6           0        3.987702   -1.832189    1.032761
     16          8           0        4.989020   -1.992520    1.718099
     17          7           0        3.430069   -0.621561    0.690692
     18          6           0        3.855341    0.663843    1.054928
     19          6           0        4.957135    0.861460    1.908393
     20          6           0        5.362083    2.145213    2.259473
     21          6           0        4.690141    3.268552    1.776792
     22          6           0        3.612363    3.084485    0.918378
     23          6           0        3.183189    1.803815    0.533964
     24          6           0        2.003729    1.672812   -0.379797
     25          8           0        1.167416    0.767152   -0.268963
     26          7           0        1.901230    2.622181   -1.356397
     27          6           0        0.786200    2.699352   -2.258059
     28          6           0        0.651639    1.677703   -3.359606
     29          6           0        1.059993    3.091547   -3.687050
     30          6           0        1.488630   -3.685229   -1.147156
     31          6           0        0.260711   -3.068522   -1.864521
     32          6           0       -4.609959   -0.417706    0.267615
     33          6           0       -5.344824   -0.105273    1.399017
     34          9           0       -5.800513   -1.116216    2.177889
     35          1           0       -6.609483    2.535018    3.183647
     36          1           0       -5.965282    1.055420    3.920718
     37          1           0       -7.446191    0.984826    2.973633
     38          1           0       -5.390181    3.256020    1.220715
     39          1           0       -4.070776    2.759163   -0.810926
     40          1           0       -3.180798    1.209160   -2.382996
     41          1           0       -3.835985   -0.436902   -2.401373
     42          1           0       -1.285868    0.329488   -1.105854
     43          1           0        0.223051   -1.119900   -0.955307
     44          1           0       -1.027760   -1.863184    1.121694
     45          1           0       -1.049240   -3.493403    0.461637
     46          1           0        1.217748   -1.964733    1.709275
     47          1           0        0.985722   -3.716985    1.612972
     48          1           0        3.907896   -3.362061   -0.429594
     49          1           0        3.350882   -3.859799    1.166540
     50          1           0        2.565620   -0.685369    0.153382
     51          1           0        5.477817   -0.007195    2.284387
     52          1           0        6.210302    2.263130    2.928530
     53          1           0        4.993458    4.269184    2.069475
     54          1           0        3.059988    3.952314    0.567793
     55          1           0        2.628511    3.319295   -1.429184
     56          1           0       -0.134573    3.065730   -1.806105
     57          1           0       -0.347405    1.340211   -3.618117
     58          1           0        1.414370    0.907456   -3.409550
     59          1           0        2.094832    3.262358   -3.973266
     60          1           0        0.346879    3.747853   -4.176967
     61          1           0        1.246907   -4.693469   -0.761656
     62          1           0        2.317207   -3.810710   -1.851640
     63          1           0       -0.470576   -3.845071   -2.111607
     64          1           0        0.568679   -2.602333   -2.808150
     65          1           0       -4.412536   -1.455588    0.018229
 ---------------------------------------------------------------------

 The electronic state is 1-A.
 Alpha  occ. eigenvalues --  -24.69606 -19.13496 -19.11765 -19.10142 -14.38182
 Alpha  occ. eigenvalues --  -14.36767 -14.35107 -14.33385 -10.30868 -10.29049
 Alpha  occ. eigenvalues --  -10.27214 -10.26168 -10.25015 -10.24761 -10.22212
 Alpha  occ. eigenvalues --  -10.21883 -10.21360 -10.21179 -10.21136 -10.20918
 Alpha  occ. eigenvalues --  -10.20891 -10.20538 -10.20075 -10.19890 -10.19794
 Alpha  occ. eigenvalues --  -10.19690 -10.19249 -10.18859 -10.18856 -10.18531
 Alpha  occ. eigenvalues --  -10.18529 -10.18203 -10.18098 -10.17763  -1.20617
 Alpha  occ. eigenvalues --   -1.05176  -1.03597  -1.01857  -0.94981  -0.94274
 Alpha  occ. eigenvalues --   -0.92768  -0.91235  -0.86574  -0.85827  -0.85158
 Alpha  occ. eigenvalues --   -0.80388  -0.78310  -0.76868  -0.75750  -0.74819
 Alpha  occ. eigenvalues --   -0.74214  -0.72687  -0.70956  -0.67151  -0.66562
 Alpha  occ. eigenvalues --   -0.64004  -0.63148  -0.62797  -0.62760  -0.61613
 Alpha  occ. eigenvalues --   -0.61266  -0.59287  -0.58761  -0.57311  -0.56978
 Alpha  occ. eigenvalues --   -0.55100  -0.54250  -0.52833  -0.52002  -0.51938
 Alpha  occ. eigenvalues --   -0.51344  -0.50110  -0.49872  -0.49106  -0.48091
 Alpha  occ. eigenvalues --   -0.47717  -0.46836  -0.46505  -0.46100  -0.45373
 Alpha  occ. eigenvalues --   -0.45215  -0.44176  -0.43959  -0.43665  -0.43219
 Alpha  occ. eigenvalues --   -0.42582  -0.42282  -0.42009  -0.41669  -0.41051
 Alpha  occ. eigenvalues --   -0.40896  -0.40837  -0.40217  -0.39802  -0.39573
 Alpha  occ. eigenvalues --   -0.39000  -0.38838  -0.38527  -0.38238  -0.37492
 Alpha  occ. eigenvalues --   -0.37067  -0.36665  -0.36343  -0.35735  -0.35292
 Alpha  occ. eigenvalues --   -0.34574  -0.34434  -0.33893  -0.33255  -0.33167
 Alpha  occ. eigenvalues --   -0.32104  -0.31833  -0.30831  -0.30765  -0.27650
 Alpha  occ. eigenvalues --   -0.27088  -0.25950  -0.25432  -0.25161  -0.24160
 Alpha  occ. eigenvalues --   -0.23754  -0.23064  -0.22514  -0.21904
 Alpha virt. eigenvalues --   -0.04309  -0.01752  -0.00618   0.00674   0.03362
 Alpha virt. eigenvalues --    0.03666   0.04409   0.06426   0.07172   0.07945
 Alpha virt. eigenvalues --    0.09194   0.09752   0.10359   0.10447   0.11385

 Mulliken charges:
               1
     1  C   -0.521103
     2  C    0.101138
     3  C   -0.182215
     4  C   -0.185159
     5  C    0.162375
     6  C   -0.232728
     7  N   -0.605412
     8  C    0.625489
     9  O   -0.550795
    10  C   -0.207216
    11  C   -0.302886
    12  C   -0.121283
    13  N   -0.432408
    14  C   -0.204134
    15  C    0.587925
    16  O   -0.506739
    17  N   -0.752554
    18  C    0.321624
    19  C   -0.168488
    20  C   -0.136384
    21  C   -0.128078
    22  C   -0.206893
    23  C    0.028493
    24  C    0.553739
    25  O   -0.539365
    26  N   -0.612225
    27  C    0.046684
    28  C   -0.296898
    29  C   -0.339612
    30  C   -0.129900
    31  C   -0.277753
    32  C   -0.255024
    33  C    0.329374
    34  F   -0.297734
    35  H    0.151970
    36  H    0.170115
    37  H    0.170743
    38  H    0.126077
    39  H    0.116403
    40  H    0.140925
    41  H    0.195381
    42  H    0.348482
    43  H    0.196264
    44  H    0.152289
    45  H    0.158610
    46  H    0.152379
    47  H    0.124202
    48  H    0.170919
    49  H    0.154749
    50  H    0.397556
    51  H    0.199517
    52  H    0.140689
    53  H    0.132986
    54  H    0.131351
    55  H    0.336546
    56  H    0.160355
    57  H    0.170152
    58  H    0.171096
    59  H    0.160756
    60  H    0.164932
    61  H    0.125216
    62  H    0.140127
    63  H    0.164806
    64  H    0.134807
    65  H    0.175751
 Sum of Mulliken charges =  -0.00000

 Dipole moment (field-independent basis, Debye):
    X=              1.6141    Y=              6.3567    Z=             -2.2167  Tot=              6.9229
 Quadrupole moment (field-independent basis, Debye-Ang):
   XX=           -214.6612   YY=           -182.1484   ZZ=           -195.0861
   XY=             -1.5590   XZ=            -12.8485   YZ=             -4.0140

 Normal termination of Gaussian 16 at Fri Nov  4 20:15:48 2022.
