 Gaussian 16, Revision B.01,
 Gaussian 16:  ES64L-G16RevB.01 20-Dec-2017

 -------------------------------------------------------------------
 #p b3lyp/6-31g(d) 6D 10F nosymm GFInput td=(50-50,nstate=2) SCF=XQC
 -------------------------------------------------------------------

 ------------------------------
 Gaussian input prepared by ASE
 ------------------------------
 Symbolic Z-matrix:
 Charge =  0 Multiplicity = 1

                          Input orientation:
 ---------------------------------------------------------------------
 Center     Atomic      Atomic             Coordinates (Angstroms)
 Number     Number       Type             X           Y           Z
 ---------------------------------------------------------------------
      1          6           0       -2.580495   -0.431684    0.450896
      2          7           0       -1.888179    0.749603    0.968378
      3         16           0       -0.773929    1.553392    0.010810
      4          8           0       -0.281569    2.659682    0.830032
      5          8           0       -1.402106    1.740186   -1.296090
      6          6           0        0.611890    0.418990   -0.232879
      7          6           0        1.668734    0.405887    0.676354
      8          6           0        2.695824   -0.514499    0.459584
      9          7           0        2.719485   -1.378251   -0.563207
     10          6           0        1.699117   -1.337663   -1.427620
     11          6           0        0.618210   -0.459383   -1.314951
     12          1           0       -3.007075   -0.182686   -0.522279
     13          1           0       -3.399312   -0.669122    1.135240
     14          1           0       -1.931880   -1.313663    0.350084
     15          1           0       -1.564093    0.691114    1.929826
     16          1           0        1.700148    1.103392    1.506499
     17          1           0        3.543813   -0.555144    1.140581
     18          1           0        1.746090   -2.039552   -2.258120
     19          1           0       -0.174673   -0.440597   -2.054466
 ---------------------------------------------------------------------

 SCF Done:  E(RB3LYP) =  -891.511779690     A.U. after   14 cycles

 Excitation energies and oscillator strengths:

 Excited state symmetry could not be determined.
 Excited State   1:      Triplet-?Sym    3.8030 eV  326.02 nm  f=0.0000  <S**2>=2.000
      39 -> 46        -0.12514
      42 -> 46        -0.19137
      43 -> 47        -0.19054
      44 -> 47         0.17300
      45 -> 46         0.60608
 This state for optimization and/or second-order correction.
 Total Energy, E(TD-HF/TD-DFT) =  -891.372023512
 Copying the excited state density for this state as the 1-particle RhoCI density.

 Excited state symmetry could not be determined.
 Excited State   2:      Triplet-?Sym    3.8208 eV  324.49 nm  f=0.0000  <S**2>=2.000
      39 -> 46         0.24410
      42 -> 46         0.14703
      43 -> 46        -0.22347
      43 -> 47         0.32234
      44 -> 46        -0.30879
      44 -> 47        -0.29018
      45 -> 46         0.28001

 Excited state symmetry could not be determined.
 Excited State   3:      Singlet-?Sym    4.5201 eV  274.30 nm  f=0.0067  <S**2>=0.000
      44 -> 46        -0.14879
      45 -> 46         0.68319

 Excited state symmetry could not be determined.
 Excited State   4:      Singlet-?Sym    5.1086 eV  242.70 nm  f=0.0001  <S**2>=0.000
      44 -> 47        -0.14331
      45 -> 47         0.68508

 Alpha  occ. eigenvalues --  -89.12265 -19.15215 -19.15191 -14.38181 -14.35260
 Alpha  occ. eigenvalues --  -10.24989 -10.24570 -10.24549 -10.23988 -10.22665
 Alpha  occ. eigenvalues --  -10.22652  -8.14749  -6.11235  -6.11165  -6.11083
 Alpha  occ. eigenvalues --   -1.12113  -1.01253  -0.96258  -0.93623  -0.83850
 Alpha  occ. eigenvalues --   -0.78488  -0.73106  -0.68197  -0.65527  -0.61756
 Alpha  occ. eigenvalues --   -0.57020  -0.52225  -0.51007  -0.50189  -0.48947
 Alpha  occ. eigenvalues --   -0.47253  -0.45271  -0.45168  -0.44342  -0.42265
 Alpha  occ. eigenvalues --   -0.41580  -0.38857  -0.34673  -0.33020  -0.32641
 Alpha  occ. eigenvalues --   -0.31356  -0.30875  -0.28647  -0.28292  -0.27226
 Alpha virt. eigenvalues --   -0.06093  -0.03411   0.04916   0.06965   0.08134
 Alpha virt. eigenvalues --    0.08637   0.10674   0.11310   0.12919   0.13189
 Alpha virt. eigenvalues --    0.14355   0.15578   0.16260   0.17168   0.17671

 Mulliken charges:
               1
     1  C   -0.332381
     2  N   -0.644760
     3  S    1.216560
     4  O   -0.526158
     5  O   -0.537727
     6  C   -0.129119
     7  C   -0.157235
     8  C    0.043348
     9  N   -0.394639
    10  C    0.043556
    11  C   -0.155483
    12  H    0.206188
    13  H    0.178448
    14  H    0.157777
    15  H    0.351159
    16  H    0.182492
    17  H    0.157884
    18  H    0.157810
    19  H    0.182282
 Sum of Mulliken charges =   0.00000

 Dipole moment (field-independent basis, Debye):
    X=             -0.6904    Y=             -3.8122    Z=              1.8497  Tot=              4.2931
 Quadrupole moment (field-independent basis, Debye-Ang):
   XX=            -71.1154   YY=            -84.1619   ZZ=            -65.8554
   XY=              9.1078   XZ=             -0.7273   YZ=              1.9548

 Normal termination of Gaussian 16 at Sat Nov  5 11:26:47 2022.
