 Gaussian 16, Revision B.01,
 Gaussian 16:  ES64L-G16RevB.01 20-Dec-2017

 -----------------------------
 #p b3lyp/6-31g(d) opt SCF=XQC
 -----------------------------

 ------------------------------
 Gaussian input prepared by ASE
 ------------------------------
 Symbolic Z-matrix:
 Charge =  0 Multiplicity = 1

 SCF Done:  E(RB3LYP) =  -891.505637558     A.U. after   14 cycles
 SCF Done:  E(RB3LYP) =  -891.511163865     A.U. after   12 cycles
 SCF Done:  E(RB3LYP) =  -891.511666394     A.U. after   12 cycles
 SCF Done:  E(RB3LYP) =  -891.511730106     A.U. after   11 cycles
 SCF Done:  E(RB3LYP) =  -891.511753283     A.U. after   10 cycles
 SCF Done:  E(RB3LYP) =  -891.511771385     A.U. after   10 cycles
 SCF Done:  E(RB3LYP) =  -891.511779039     A.U. after   10 cycles
 SCF Done:  E(RB3LYP) =  -891.511779833     A.U. after    8 cycles
 Optimization completed.
    -- Stationary point found.

                         Standard orientation:
 ---------------------------------------------------------------------
 Center     Atomic      Atomic             Coordinates (Angstroms)
 Number     Number       Type             X           Y           Z
 ---------------------------------------------------------------------
      1          6           0        1.948705    1.722186    1.125165
      2          7           0        1.990386    0.266583    0.976813
      3         16           0        1.257934   -0.461900   -0.341289
      4          8           0        1.484139   -1.896098   -0.170035
      5          8           0        1.687530    0.282725   -1.523857
      6          6           0       -0.519046   -0.182629   -0.164951
      7          6           0       -1.299335   -1.092777    0.546790
      8          6           0       -2.659767   -0.810024    0.682030
      9          7           0       -3.249459    0.278419    0.171847
     10          6           0       -2.480744    1.130238   -0.516260
     11          6           0       -1.109877    0.951461   -0.719220
     12          1           0        2.285107    2.173883    0.190368
     13          1           0        2.651673    2.000691    1.914744
     14          1           0        0.952390    2.110760    1.380347
     15          1           0        1.831403   -0.272731    1.823395
     16          1           0       -0.866250   -1.998389    0.957820
     17          1           0       -3.307713   -1.496253    1.224017
     18          1           0       -2.983868    2.000813   -0.932855
     19          1           0       -0.529146    1.652871   -1.308012
 ---------------------------------------------------------------------

 The electronic state is 1-A.
 Alpha  occ. eigenvalues --  -89.12265 -19.15215 -19.15191 -14.38181 -14.35260
 Alpha  occ. eigenvalues --  -10.24989 -10.24570 -10.24549 -10.23988 -10.22665
 Alpha  occ. eigenvalues --  -10.22652  -8.14749  -6.11235  -6.11165  -6.11083
 Alpha  occ. eigenvalues --   -1.12113  -1.01253  -0.96258  -0.93623  -0.83850
 Alpha  occ. eigenvalues --   -0.78488  -0.73106  -0.68197  -0.65527  -0.61756
 Alpha  occ. eigenvalues --   -0.57020  -0.52225  -0.51007  -0.50189  -0.48947
 Alpha  occ. eigenvalues --   -0.47253  -0.45271  -0.45168  -0.44342  -0.42265
 Alpha  occ. eigenvalues --   -0.41580  -0.38857  -0.34673  -0.33020  -0.32641
 Alpha  occ. eigenvalues --   -0.31356  -0.30875  -0.28647  -0.28292  -0.27226
 Alpha virt. eigenvalues --   -0.06093  -0.03411   0.04916   0.06965   0.08134
 Alpha virt. eigenvalues --    0.08637   0.10674   0.11310   0.12919   0.13189
 Alpha virt. eigenvalues --    0.14355   0.15578   0.16260   0.17168   0.17671

 Mulliken charges:
               1
     1  C   -0.332384
     2  N   -0.644766
     3  S    1.216590
     4  O   -0.526163
     5  O   -0.537734
     6  C   -0.129153
     7  C   -0.157222
     8  C    0.043343
     9  N   -0.394626
    10  C    0.043536
    11  C   -0.155460
    12  H    0.206188
    13  H    0.178448
    14  H    0.157777
    15  H    0.351159
    16  H    0.182490
    17  H    0.157884
    18  H    0.157810
    19  H    0.182281
 Sum of Mulliken charges =  -0.00000

 Dipole moment (field-independent basis, Debye):
    X=             -0.9244    Y=              2.3868    Z=              3.4467  Tot=              4.2932
 Quadrupole moment (field-independent basis, Debye-Ang):
   XX=            -80.6568   YY=            -68.1807   ZZ=            -68.4435
   XY=              6.5689   XZ=              7.2373   YZ=             -2.6489

 Normal termination of Gaussian 16 at Fri Nov  4 18:27:20 2022.
