 Gaussian 16, Revision B.01,
 Gaussian 16:  ES64L-G16RevB.01 20-Dec-2017

 -------------------------------------------------------------------
 #p b3lyp/6-31g(d) 6D 10F nosymm GFInput td=(50-50,nstate=2) SCF=XQC
 -------------------------------------------------------------------

 ------------------------------
 Gaussian input prepared by ASE
 ------------------------------
 Symbolic Z-matrix:
 Charge =  0 Multiplicity = 1

                          Input orientation:
 ---------------------------------------------------------------------
 Center     Atomic      Atomic             Coordinates (Angstroms)
 Number     Number       Type             X           Y           Z
 ---------------------------------------------------------------------
      1          6           0       -1.438567   -5.586860    1.047631
      2          8           0       -0.971220   -4.250539    0.938676
      3          6           0        0.168251   -3.892965    1.595748
      4          6           0        0.913850   -4.733177    2.424200
      5          6           0        2.065908   -4.256727    3.050562
      6          6           0        2.494306   -2.946941    2.835271
      7          6           0        3.741863   -2.474391    3.526524
      8          8           0        4.141156   -2.985173    4.570431
      9          7           0        4.393828   -1.442128    2.904953
     10          6           0        5.561196   -0.773663    3.456102
     11          6           0        5.260553    0.662162    3.924638
     12          6           0        4.545648    1.508532    2.876871
     13          8           0        5.334510    1.501206    1.686491
     14          6           0        4.861915    2.146578    0.570078
     15          6           0        3.587765    2.704712    0.463609
     16          6           0        3.202636    3.331987   -0.726968
     17          6           0        4.067423    3.415759   -1.817799
     18          6           0        3.664110    4.109211   -3.098949
     19          6           0        5.342132    2.841743   -1.682498
     20          6           0        5.762809    2.209284   -0.514920
     21          6           0        7.137195    1.601045   -0.391292
     22          6           0        1.738481   -2.097702    2.013837
     23          6           0        0.576108   -2.552279    1.392777
     24          7           0       -0.238264   -1.755971    0.556635
     25          6           0       -0.110695   -0.417469    0.329973
     26          8           0        0.770895    0.302582    0.789654
     27          6           0       -1.122879    0.214513   -0.655713
     28          6           0       -0.720395    0.011958   -2.146145
     29          6           0        0.749630    0.145284   -2.472647
     30          8           0       -1.572831   -0.203491   -2.978641
     31          7           0       -2.529171   -0.088372   -0.452298
     32          6           0       -3.173344   -1.273257   -0.703929
     33          8           0       -2.661209   -2.361475   -0.910019
     34          6           0       -4.689454   -0.979539   -0.660499
     35          8           0       -5.308612   -1.197504   -1.902814
     36          6           0       -5.590217   -2.565876   -2.188370
     37          7           0       -4.718571    0.417993   -0.327677
     38          6           0       -5.939895    1.203873   -0.128992
     39          6           0       -6.552116    1.776866   -1.394285
     40          6           0       -7.755417    1.272094   -1.895765
     41          6           0       -8.329436    1.813931   -3.047004
     42          6           0       -7.699271    2.867024   -3.710580
     43          6           0       -6.496347    3.376921   -3.215908
     44          6           0       -5.927522    2.838792   -2.062226
     45          6           0       -3.469474    0.970396   -0.270618
     46          8           0       -3.167821    2.130759   -0.074253
     47          1           0       -2.333253   -5.636384    0.425544
     48          1           0       -1.696810   -5.836050    2.084681
     49          1           0       -0.692980   -6.301331    0.676788
     50          1           0        0.597748   -5.757110    2.587976
     51          1           0        2.643176   -4.895721    3.710257
     52          1           0        4.093075   -1.170291    1.980710
     53          1           0        6.349737   -0.753911    2.696779
     54          1           0        5.907275   -1.381331    4.294830
     55          1           0        4.625082    0.632349    4.818522
     56          1           0        6.204740    1.143706    4.208227
     57          1           0        3.550171    1.093066    2.672253
     58          1           0        4.410462    2.540642    3.229560
     59          1           0        2.881293    2.647715    1.282991
     60          1           0        2.207719    3.767084   -0.791512
     61          1           0        2.611732    4.410528   -3.074212
     62          1           0        3.804790    3.460539   -3.972665
     63          1           0        4.261144    5.013816   -3.274002
     64          1           0        6.036792    2.892485   -2.519729
     65          1           0        7.718493    1.762435   -1.304293
     66          1           0        7.083938    0.520853   -0.206826
     67          1           0        7.690473    2.032395    0.451278
     68          1           0        2.010129   -1.062353    1.872443
     69          1           0       -0.998671   -2.247615    0.081938
     70          1           0       -1.035688    1.288236   -0.457612
     71          1           0        0.866314    0.275354   -3.550137
     72          1           0        1.218862    0.970424   -1.927467
     73          1           0        1.272209   -0.771126   -2.169294
     74          1           0       -5.171345   -1.598169    0.116641
     75          1           0       -6.196534   -3.018776   -1.388543
     76          1           0       -4.673160   -3.149393   -2.317732
     77          1           0       -6.162181   -2.565247   -3.118134
     78          1           0       -6.661019    0.555976    0.380883
     79          1           0       -5.670296    2.010150    0.559482
     80          1           0       -8.246618    0.447353   -1.384006
     81          1           0       -9.266178    1.412600   -3.424788
     82          1           0       -8.143491    3.290477   -4.607481
     83          1           0       -6.002710    4.199437   -3.726669
     84          1           0       -4.993856    3.237486   -1.674580
 ---------------------------------------------------------------------

 SCF Done:  E(RB3LYP) =  -2139.36003847     A.U. after   15 cycles

 Excitation energies and oscillator strengths:

 Excited state symmetry could not be determined.
 Excited State   1:      Triplet-?Sym    3.2573 eV  380.63 nm  f=0.0000  <S**2>=2.000
     161 ->171        -0.18412
     163 ->171         0.13948
     166 ->169        -0.39787
     166 ->170         0.48338
 This state for optimization and/or second-order correction.
 Total Energy, E(TD-HF/TD-DFT) =  -2139.24033324
 Copying the excited state density for this state as the 1-particle RhoCI density.

 Excited state symmetry could not be determined.
 Excited State   2:      Triplet-?Sym    3.6546 eV  339.25 nm  f=0.0000  <S**2>=2.000
     165 ->174        -0.40636
     167 ->174         0.14254
     167 ->175        -0.54719

 Excited state symmetry could not be determined.
 Excited State   3:      Singlet-?Sym    4.2164 eV  294.05 nm  f=0.0009  <S**2>=0.000
     167 ->168        -0.38313
     167 ->169         0.59265

 Excited state symmetry could not be determined.
 Excited State   4:      Singlet-?Sym    4.2643 eV  290.75 nm  f=0.0003  <S**2>=0.000
     167 ->168         0.59098
     167 ->169         0.38058

 Alpha  occ. eigenvalues --  -19.19459 -19.17703 -19.17133 -19.16346 -19.15773
 Alpha  occ. eigenvalues --  -19.14697 -19.13413 -19.09880 -14.40746 -14.38871
 Alpha  occ. eigenvalues --  -14.38084 -14.34898 -10.34134 -10.32560 -10.31033
 Alpha  occ. eigenvalues --  -10.30631 -10.29727 -10.27673 -10.26102 -10.25840
 Alpha  occ. eigenvalues --  -10.25277 -10.24351 -10.24110 -10.24037 -10.23769
 Alpha  occ. eigenvalues --  -10.23531 -10.21244 -10.19947 -10.19680 -10.19664
 Alpha  occ. eigenvalues --  -10.19343 -10.19262 -10.19244 -10.19207 -10.19138
 Alpha  occ. eigenvalues --  -10.19072 -10.18983 -10.18764 -10.18740 -10.18607
 Alpha  occ. eigenvalues --  -10.18308 -10.17839 -10.17748 -10.17744 -10.17674
 Alpha  occ. eigenvalues --  -10.17505  -1.10168  -1.08180  -1.06868  -1.06324
 Alpha  occ. eigenvalues --   -1.05709  -1.05526  -1.05124  -1.01730  -0.99226
 Alpha  occ. eigenvalues --   -0.94896  -0.94194  -0.91148  -0.85674  -0.85437
 Alpha  occ. eigenvalues --   -0.84669  -0.80784  -0.78988  -0.77743  -0.77130
 Alpha  occ. eigenvalues --   -0.76255  -0.75394  -0.75081  -0.74656  -0.74416
 Alpha  occ. eigenvalues --   -0.73781  -0.71665  -0.70053  -0.69416  -0.68340
 Alpha  occ. eigenvalues --   -0.68023  -0.66096  -0.65298  -0.63348  -0.62896
 Alpha  occ. eigenvalues --   -0.61587  -0.60764  -0.60549  -0.58931  -0.58557
 Alpha  occ. eigenvalues --   -0.57771  -0.56948  -0.56431  -0.56100  -0.55612
 Alpha  occ. eigenvalues --   -0.54345  -0.53756  -0.53090  -0.52524  -0.51657
 Alpha  occ. eigenvalues --   -0.51339  -0.49589  -0.49451  -0.48793  -0.48363
 Alpha  occ. eigenvalues --   -0.48254  -0.47803  -0.47675  -0.47197  -0.46963
 Alpha  occ. eigenvalues --   -0.46584  -0.45896  -0.45696  -0.45450  -0.45042
 Alpha  occ. eigenvalues --   -0.44800  -0.44541  -0.43843  -0.43727  -0.43540
 Alpha  occ. eigenvalues --   -0.43055  -0.42942  -0.42605  -0.42348  -0.42120
 Alpha  occ. eigenvalues --   -0.42010  -0.41909  -0.41636  -0.41471  -0.41242
 Alpha  occ. eigenvalues --   -0.40536  -0.40362  -0.40172  -0.40073  -0.39985
 Alpha  occ. eigenvalues --   -0.39601  -0.39353  -0.38658  -0.38424  -0.37657
 Alpha  occ. eigenvalues --   -0.37366  -0.37120  -0.36549  -0.36294  -0.36186
 Alpha  occ. eigenvalues --   -0.35521  -0.35207  -0.34859  -0.34395  -0.34248
 Alpha  occ. eigenvalues --   -0.34164  -0.34098  -0.33488  -0.32618  -0.32244
 Alpha  occ. eigenvalues --   -0.31452  -0.31032  -0.30527  -0.30192  -0.29629
 Alpha  occ. eigenvalues --   -0.28066  -0.27605  -0.26589  -0.25247  -0.24978
 Alpha  occ. eigenvalues --   -0.24756  -0.24537  -0.24167  -0.23936  -0.23529
 Alpha  occ. eigenvalues --   -0.21442  -0.20519
 Alpha virt. eigenvalues --   -0.03682  -0.03335  -0.02136  -0.01722  -0.00697
 Alpha virt. eigenvalues --   -0.00058   0.00929   0.01966   0.02619   0.04248
 Alpha virt. eigenvalues --    0.07404   0.07666   0.08206   0.08971   0.09083

 Mulliken charges:
               1
     1  C   -0.217669
     2  O   -0.524413
     3  C    0.344991
     4  C   -0.207204
     5  C   -0.165906
     6  C    0.063312
     7  C    0.552343
     8  O   -0.529377
     9  N   -0.616106
    10  C   -0.134816
    11  C   -0.280321
    12  C   -0.053263
    13  O   -0.535598
    14  C    0.313745
    15  C   -0.182143
    16  C   -0.210444
    17  C    0.188489
    18  C   -0.531008
    19  C   -0.248239
    20  C    0.132666
    21  C   -0.514644
    22  C   -0.251541
    23  C    0.301240
    24  N   -0.771548
    25  C    0.623687
    26  O   -0.514316
    27  C   -0.198265
    28  C    0.476396
    29  C   -0.546259
    30  O   -0.425429
    31  N   -0.523726
    32  C    0.625891
    33  O   -0.518165
    34  C    0.231744
    35  O   -0.444816
    36  C   -0.217549
    37  N   -0.496885
    38  C   -0.256151
    39  C    0.192286
    40  C   -0.172812
    41  C   -0.129544
    42  C   -0.126252
    43  C   -0.128684
    44  C   -0.183845
    45  C    0.842251
    46  O   -0.519390
    47  H    0.179827
    48  H    0.157564
    49  H    0.159452
    50  H    0.139205
    51  H    0.159945
    52  H    0.337767
    53  H    0.159352
    54  H    0.186775
    55  H    0.154114
    56  H    0.148002
    57  H    0.159600
    58  H    0.145837
    59  H    0.148020
    60  H    0.122065
    61  H    0.151758
    62  H    0.154929
    63  H    0.160110
    64  H    0.112342
    65  H    0.146741
    66  H    0.159180
    67  H    0.163952
    68  H    0.193285
    69  H    0.420252
    70  H    0.237554
    71  H    0.185427
    72  H    0.201560
    73  H    0.190328
    74  H    0.147884
    75  H    0.132127
    76  H    0.179309
    77  H    0.172535
    78  H    0.156512
    79  H    0.191965
    80  H    0.119160
    81  H    0.128926
    82  H    0.130717
    83  H    0.133625
    84  H    0.159588
 Sum of Mulliken charges =  -0.00000

 Dipole moment (field-independent basis, Debye):
    X=             -4.7638    Y=             -2.2870    Z=             -2.0164  Tot=              5.6560
 Quadrupole moment (field-independent basis, Debye-Ang):
   XX=           -240.5638   YY=           -251.0687   ZZ=           -281.2448
   XY=             24.1622   XZ=            -15.1214   YZ=              5.0750

 Normal termination of Gaussian 16 at Sat Nov  5 12:01:00 2022.
