 Gaussian 16, Revision B.01,
 Gaussian 16:  ES64L-G16RevB.01 20-Dec-2017

 -----------------------------
 #p b3lyp/6-31g(d) opt SCF=XQC
 -----------------------------

 ------------------------------
 Gaussian input prepared by ASE
 ------------------------------
 Symbolic Z-matrix:
 Charge =  0 Multiplicity = 1

 SCF Done:  E(RB3LYP) =  -2139.33882349     A.U. after   15 cycles
 SCF Done:  E(RB3LYP) =  -2139.34680080     A.U. after   14 cycles
 SCF Done:  E(RB3LYP) =  -2139.35488890     A.U. after   15 cycles
 SCF Done:  E(RB3LYP) =  -2139.35635700     A.U. after   14 cycles
 SCF Done:  E(RB3LYP) =  -2139.35635189     A.U. after   14 cycles
 SCF Done:  E(RB3LYP) =  -2139.35790987     A.U. after   12 cycles
 SCF Done:  E(RB3LYP) =  -2139.35867316     A.U. after   12 cycles
 SCF Done:  E(RB3LYP) =  -2139.35936496     A.U. after   13 cycles
 SCF Done:  E(RB3LYP) =  -2139.35948751     A.U. after   13 cycles
 SCF Done:  E(RB3LYP) =  -2139.35977347     A.U. after   12 cycles
 SCF Done:  E(RB3LYP) =  -2139.36002355     A.U. after    9 cycles
 SCF Done:  E(RB3LYP) =  -2139.36002713     A.U. after    9 cycles
 SCF Done:  E(RB3LYP) =  -2139.36002896     A.U. after    9 cycles
 SCF Done:  E(RB3LYP) =  -2139.36003040     A.U. after    9 cycles
 SCF Done:  E(RB3LYP) =  -2139.36003211     A.U. after    9 cycles
 SCF Done:  E(RB3LYP) =  -2139.36003301     A.U. after    8 cycles
 SCF Done:  E(RB3LYP) =  -2139.36003357     A.U. after    9 cycles
 SCF Done:  E(RB3LYP) =  -2139.36003368     A.U. after    7 cycles
 SCF Done:  E(RB3LYP) =  -2139.36003379     A.U. after    7 cycles
 SCF Done:  E(RB3LYP) =  -2139.36003381     A.U. after    6 cycles
 Optimization completed.
    -- Stationary point found.

                         Standard orientation:
 ---------------------------------------------------------------------
 Center     Atomic      Atomic             Coordinates (Angstroms)
 Number     Number       Type             X           Y           Z
 ---------------------------------------------------------------------
      1          6           0       -0.561489    5.492815    1.487008
      2          8           0       -0.227652    4.183982    1.049350
      3          6           0        1.041396    3.934308    0.619025
      4          6           0        2.058597    4.885526    0.525796
      5          6           0        3.323178    4.515923    0.066666
      6          6           0        3.587420    3.190802   -0.279234
      7          6           0        4.963367    2.834196   -0.766198
      8          8           0        5.704631    3.663677   -1.288277
      9          7           0        5.323282    1.525404   -0.580454
     10          6           0        6.567659    0.951704   -1.065998
     11          6           0        6.356039   -0.032103   -2.231694
     12          6           0        5.296923   -1.092443   -1.950276
     13          8           0        5.659811   -1.774742   -0.749383
     14          6           0        4.818589   -2.739124   -0.250846
     15          6           0        3.549556   -3.016393   -0.759753
     16          6           0        2.768122   -4.015625   -0.168001
     17          6           0        3.229853   -4.748454    0.924955
     18          6           0        2.398472   -5.842050    1.555617
     19          6           0        4.509560   -4.444614    1.417617
     20          6           0        5.317474   -3.458262    0.856726
     21          6           0        6.689504   -3.149865    1.401334
     22          6           0        2.562320    2.236893   -0.198875
     23          6           0        1.288504    2.591850    0.242560
     24          7           0        0.206214    1.689399    0.345880
     25          6           0        0.180884    0.394868   -0.081653
     26          8           0        1.122887   -0.206865   -0.589126
     27          6           0       -1.127557   -0.390797    0.175655
     28          6           0       -1.215816   -0.958241    1.622938
     29          6           0        0.061309   -1.516453    2.208343
     30          8           0       -2.277766   -0.968538    2.204550
     31          7           0       -2.374820    0.247759   -0.208219
     32          6           0       -3.000113    1.299737    0.411926
     33          8           0       -2.523059    2.054289    1.243819
     34          6           0       -4.435188    1.368699   -0.156007
     35          8           0       -5.408413    1.131227    0.829210
     36          6           0       -5.691921    2.255061    1.659815
     37          7           0       -4.431754    0.303146   -1.120009
     38          6           0       -5.565046   -0.047775   -1.980949
     39          6           0       -6.582221   -0.987050   -1.358679
     40          6           0       -7.853497   -0.526842   -1.003326
     41          6           0       -8.796153   -1.395906   -0.451454
     42          6           0       -8.471500   -2.737160   -0.246307
     43          6           0       -7.203050   -3.204791   -0.598555
     44          6           0       -6.264719   -2.336828   -1.155602
     45          6           0       -3.262834   -0.405553   -1.115291
     46          8           0       -2.977748   -1.391599   -1.765240
     47          1           0       -1.604692    5.439853    1.801382
     48          1           0       -0.458202    6.223668    0.674946
     49          1           0        0.062825    5.800845    2.335090
     50          1           0        1.868338    5.915639    0.804814
     51          1           0        4.115986    5.250461   -0.026389
     52          1           0        4.726700    0.937769   -0.017117
     53          1           0        7.067515    0.437586   -0.238601
     54          1           0        7.197863    1.785198   -1.383219
     55          1           0        6.044728    0.519762   -3.127389
     56          1           0        7.313531   -0.516676   -2.460157
     57          1           0        4.312769   -0.620051   -1.833052
     58          1           0        5.226411   -1.808891   -2.780726
     59          1           0        3.148635   -2.459621   -1.598207
     60          1           0        1.783225   -4.223232   -0.580569
     61          1           0        1.395290   -5.881611    1.118621
     62          1           0        2.285572   -5.693058    2.636821
     63          1           0        2.857146   -6.829744    1.416039
     64          1           0        4.893912   -5.001484    2.270994
     65          1           0        6.936286   -3.814114    2.235239
     66          1           0        6.757415   -2.114498    1.757820
     67          1           0        7.460161   -3.263113    0.629734
     68          1           0        2.717143    1.215745   -0.513549
     69          1           0       -0.638528    2.060692    0.786132
     70          1           0       -1.039902   -1.257193   -0.488726
     71          1           0       -0.182305   -2.132785    3.075698
     72          1           0        0.635340   -2.088643    1.472582
     73          1           0        0.702848   -0.687316    2.533736
     74          1           0       -4.606818    2.351439   -0.628907
     75          1           0       -5.982890    3.128386    1.055579
     76          1           0       -4.834942    2.521636    2.286509
     77          1           0       -6.531849    1.956352    2.289813
     78          1           0       -6.047233    0.889894   -2.277659
     79          1           0       -5.132561   -0.499481   -2.878547
     80          1           0       -8.108113    0.519580   -1.156767
     81          1           0       -9.781299   -1.024728   -0.181289
     82          1           0       -9.203152   -3.415981    0.183766
     83          1           0       -6.945690   -4.249319   -0.444243
     84          1           0       -5.279164   -2.700699   -1.433518
 ---------------------------------------------------------------------

 The electronic state is 1-A.
 Alpha  occ. eigenvalues --  -19.19459 -19.17703 -19.17133 -19.16346 -19.15773
 Alpha  occ. eigenvalues --  -19.14697 -19.13413 -19.09880 -14.40746 -14.38871
 Alpha  occ. eigenvalues --  -14.38084 -14.34898 -10.34134 -10.32560 -10.31033
 Alpha  occ. eigenvalues --  -10.30631 -10.29727 -10.27673 -10.26102 -10.25840
 Alpha  occ. eigenvalues --  -10.25277 -10.24350 -10.24110 -10.24037 -10.23769
 Alpha  occ. eigenvalues --  -10.23531 -10.21244 -10.19947 -10.19680 -10.19664
 Alpha  occ. eigenvalues --  -10.19342 -10.19262 -10.19244 -10.19207 -10.19138
 Alpha  occ. eigenvalues --  -10.19072 -10.18983 -10.18764 -10.18740 -10.18607
 Alpha  occ. eigenvalues --  -10.18308 -10.17839 -10.17748 -10.17744 -10.17674
 Alpha  occ. eigenvalues --  -10.17505  -1.10168  -1.08180  -1.06868  -1.06324
 Alpha  occ. eigenvalues --   -1.05709  -1.05526  -1.05124  -1.01729  -0.99227
 Alpha  occ. eigenvalues --   -0.94896  -0.94194  -0.91148  -0.85674  -0.85437
 Alpha  occ. eigenvalues --   -0.84669  -0.80784  -0.78988  -0.77743  -0.77130
 Alpha  occ. eigenvalues --   -0.76255  -0.75394  -0.75081  -0.74656  -0.74416
 Alpha  occ. eigenvalues --   -0.73781  -0.71665  -0.70053  -0.69416  -0.68340
 Alpha  occ. eigenvalues --   -0.68023  -0.66096  -0.65298  -0.63348  -0.62896
 Alpha  occ. eigenvalues --   -0.61587  -0.60764  -0.60549  -0.58931  -0.58557
 Alpha  occ. eigenvalues --   -0.57771  -0.56948  -0.56431  -0.56101  -0.55612
 Alpha  occ. eigenvalues --   -0.54345  -0.53756  -0.53090  -0.52524  -0.51657
 Alpha  occ. eigenvalues --   -0.51339  -0.49589  -0.49451  -0.48793  -0.48363
 Alpha  occ. eigenvalues --   -0.48254  -0.47803  -0.47675  -0.47197  -0.46963
 Alpha  occ. eigenvalues --   -0.46584  -0.45896  -0.45696  -0.45450  -0.45042
 Alpha  occ. eigenvalues --   -0.44800  -0.44541  -0.43843  -0.43727  -0.43540
 Alpha  occ. eigenvalues --   -0.43055  -0.42942  -0.42605  -0.42348  -0.42120
 Alpha  occ. eigenvalues --   -0.42010  -0.41909  -0.41636  -0.41471  -0.41242
 Alpha  occ. eigenvalues --   -0.40536  -0.40362  -0.40172  -0.40073  -0.39985
 Alpha  occ. eigenvalues --   -0.39601  -0.39353  -0.38658  -0.38424  -0.37657
 Alpha  occ. eigenvalues --   -0.37365  -0.37120  -0.36549  -0.36294  -0.36186
 Alpha  occ. eigenvalues --   -0.35521  -0.35207  -0.34860  -0.34395  -0.34248
 Alpha  occ. eigenvalues --   -0.34164  -0.34097  -0.33488  -0.32618  -0.32243
 Alpha  occ. eigenvalues --   -0.31452  -0.31032  -0.30527  -0.30192  -0.29629
 Alpha  occ. eigenvalues --   -0.28066  -0.27605  -0.26590  -0.25247  -0.24978
 Alpha  occ. eigenvalues --   -0.24756  -0.24537  -0.24167  -0.23936  -0.23528
 Alpha  occ. eigenvalues --   -0.21442  -0.20519
 Alpha virt. eigenvalues --   -0.03681  -0.03335  -0.02136  -0.01722  -0.00697
 Alpha virt. eigenvalues --   -0.00058   0.00929   0.01966   0.02619   0.04248
 Alpha virt. eigenvalues --    0.07404   0.07666   0.08207   0.08971   0.09083

 Mulliken charges:
               1
     1  C   -0.217673
     2  O   -0.524396
     3  C    0.344985
     4  C   -0.207209
     5  C   -0.165903
     6  C    0.063329
     7  C    0.552314
     8  O   -0.529377
     9  N   -0.616081
    10  C   -0.134812
    11  C   -0.280314
    12  C   -0.053293
    13  O   -0.535594
    14  C    0.313749
    15  C   -0.182118
    16  C   -0.210448
    17  C    0.188480
    18  C   -0.531003
    19  C   -0.248237
    20  C    0.132646
    21  C   -0.514643
    22  C   -0.251548
    23  C    0.301256
    24  N   -0.771549
    25  C    0.623664
    26  O   -0.514307
    27  C   -0.198278
    28  C    0.476403
    29  C   -0.546254
    30  O   -0.425432
    31  N   -0.523749
    32  C    0.625964
    33  O   -0.518185
    34  C    0.231734
    35  O   -0.444821
    36  C   -0.217537
    37  N   -0.496889
    38  C   -0.256143
    39  C    0.192294
    40  C   -0.172828
    41  C   -0.129537
    42  C   -0.126264
    43  C   -0.128669
    44  C   -0.183847
    45  C    0.842246
    46  O   -0.519388
    47  H    0.179828
    48  H    0.157563
    49  H    0.159451
    50  H    0.139204
    51  H    0.159945
    52  H    0.337762
    53  H    0.159356
    54  H    0.186773
    55  H    0.154112
    56  H    0.148004
    57  H    0.159607
    58  H    0.145840
    59  H    0.148020
    60  H    0.122063
    61  H    0.151757
    62  H    0.154929
    63  H    0.160109
    64  H    0.112342
    65  H    0.146744
    66  H    0.159176
    67  H    0.163956
    68  H    0.193279
    69  H    0.420238
    70  H    0.237560
    71  H    0.185425
    72  H    0.201558
    73  H    0.190327
    74  H    0.147881
    75  H    0.132125
    76  H    0.179307
    77  H    0.172532
    78  H    0.156512
    79  H    0.191964
    80  H    0.119158
    81  H    0.128926
    82  H    0.130718
    83  H    0.133624
    84  H    0.159588
 Sum of Mulliken charges =  -0.00000

 Dipole moment (field-independent basis, Debye):
    X=             -5.0273    Y=              2.0598    Z=              1.5729  Tot=              5.6560
 Quadrupole moment (field-independent basis, Debye-Ang):
   XX=           -258.2521   YY=           -249.8991   ZZ=           -266.8086
   XY=            -31.8928   XZ=              9.5239   YZ=              5.7830

 Normal termination of Gaussian 16 at Fri Nov  4 21:00:37 2022.
