 Gaussian 16, Revision B.01,
 Gaussian 16:  ES64L-G16RevB.01 20-Dec-2017

 -------------------------------------------------------------------
 #p b3lyp/6-31g(d) 6D 10F nosymm GFInput td=(50-50,nstate=2) SCF=XQC
 -------------------------------------------------------------------

 ------------------------------
 Gaussian input prepared by ASE
 ------------------------------
 Symbolic Z-matrix:
 Charge =  0 Multiplicity = 1

                          Input orientation:
 ---------------------------------------------------------------------
 Center     Atomic      Atomic             Coordinates (Angstroms)
 Number     Number       Type             X           Y           Z
 ---------------------------------------------------------------------
      1          6           0       -2.343223    2.171432   -1.341960
      2          8           0       -3.281759    1.691353   -2.297820
      3          6           0       -4.064092    0.631225   -1.975415
      4          6           0       -4.958883    0.232489   -2.992806
      5          6           0       -5.782569   -0.848575   -2.781786
      6          6           0       -5.768171   -1.550984   -1.559498
      7          7           0       -6.607377   -2.636898   -1.421393
      8          6           0       -6.578326   -3.292633   -0.306926
      9          6           0       -5.739103   -2.956288    0.846429
     10          8           0       -5.736716   -3.596453    1.897564
     11          7           0       -4.940719   -1.814218    0.684772
     12          6           0       -4.237677   -1.387393    1.904370
     13          6           0       -2.906454   -2.127272    2.146458
     14          7           0       -1.744934   -1.385246    1.651137
     15          6           0       -0.641512   -2.241861    1.211067
     16          6           0        0.451505   -1.400001    0.547120
     17          6           0        0.981934   -0.322350    1.506599
     18          7           0        1.949953    0.558204    0.851063
     19          6           0        3.310355    0.027197    0.803227
     20          6           0        4.245969    0.927826    0.021580
     21          6           0        3.794540    1.746918   -1.015215
     22          6           0        4.716975    2.531122   -1.714492
     23          6           0        6.054431    2.468342   -1.354105
     24          6           0        6.409911    1.614033   -0.295633
     25          7           0        5.543606    0.866781    0.375666
     26          7           0        7.753432    1.576574    0.096196
     27          6           0        8.775863    2.116804   -0.644098
     28          8           0        9.949062    2.053667   -0.324651
     29          6           0        8.324461    2.748238   -1.962342
     30          8           0        6.989743    3.264968   -1.955927
     31          6           0       -0.185616    0.488734    2.071492
     32          9           0       -0.726478    1.302760    1.064377
     33          6           0       -1.289003   -0.401951    2.628013
     34          6           0       -4.889512   -1.123906   -0.526941
     35          6           0       -4.014235   -0.043059   -0.752819
     36          1           0       -1.869956    3.039031   -1.805124
     37          1           0       -2.838766    2.478427   -0.412967
     38          1           0       -1.584862    1.419612   -1.106856
     39          1           0       -4.961133    0.785217   -3.925955
     40          1           0       -6.469774   -1.196619   -3.546320
     41          1           0       -7.224516   -4.159446   -0.181148
     42          1           0       -4.921428   -1.606321    2.726316
     43          1           0       -4.085682   -0.307937    1.854727
     44          1           0       -2.810360   -2.348617    3.224817
     45          1           0       -2.953805   -3.094781    1.640798
     46          1           0       -0.211408   -2.821458    2.054278
     47          1           0       -1.036999   -2.966808    0.492278
     48          1           0        1.268455   -2.053369    0.220467
     49          1           0        0.046036   -0.905216   -0.341011
     50          1           0        1.427114   -0.833600    2.384358
     51          1           0        1.965139    1.464762    1.316283
     52          1           0        3.273521   -0.953891    0.310123
     53          1           0        3.756931   -0.148410    1.797748
     54          1           0        2.739478    1.762179   -1.262536
     55          1           0        4.413024    3.190588   -2.521628
     56          1           0        7.988616    1.048779    0.929628
     57          1           0        8.983702    3.586818   -2.186824
     58          1           0        8.433401    1.994003   -2.757117
     59          1           0        0.169415    1.168018    2.859166
     60          1           0       -0.912850   -0.884189    3.554916
     61          1           0       -2.128798    0.237757    2.920813
     62          1           0       -3.269869    0.215897   -0.011679
 ---------------------------------------------------------------------

 SCF Done:  E(RB3LYP) =  -1660.05569676     A.U. after   15 cycles

 Excitation energies and oscillator strengths:

 Excited state symmetry could not be determined.
 Excited State   1:      Triplet-?Sym    2.5860 eV  479.45 nm  f=0.0000  <S**2>=2.000
     118 ->128         0.10931
     127 ->128         0.68361
 This state for optimization and/or second-order correction.
 Total Energy, E(TD-HF/TD-DFT) =  -1659.96066474
 Copying the excited state density for this state as the 1-particle RhoCI density.

 Excited state symmetry could not be determined.
 Excited State   2:      Triplet-?Sym    3.1964 eV  387.88 nm  f=0.0000  <S**2>=2.000
     117 ->128        -0.11580
     123 ->128         0.64059
     123 ->132         0.11853
     124 ->128         0.21799

 Excited state symmetry could not be determined.
 Excited State   3:      Singlet-?Sym    3.7237 eV  332.96 nm  f=0.0116  <S**2>=0.000
     123 ->128         0.62682
     124 ->128         0.23073
     127 ->128         0.19104

 Excited state symmetry could not be determined.
 Excited State   4:      Singlet-?Sym    3.8615 eV  321.08 nm  f=0.1780  <S**2>=0.000
     123 ->128        -0.21573
     125 ->128         0.16498
     125 ->131        -0.10000
     127 ->128         0.63483

 Alpha  occ. eigenvalues --  -24.69152 -19.19996 -19.18526 -19.13777 -19.11527
 Alpha  occ. eigenvalues --  -14.39525 -14.39127 -14.34521 -14.34446 -14.34398
 Alpha  occ. eigenvalues --  -14.33776 -10.31251 -10.28751 -10.28161 -10.27901
 Alpha  occ. eigenvalues --  -10.26746 -10.26676 -10.26015 -10.25085 -10.23814
 Alpha  occ. eigenvalues --  -10.23751 -10.23606 -10.23306 -10.23252 -10.22549
 Alpha  occ. eigenvalues --  -10.22533 -10.22421 -10.22401 -10.22060 -10.21625
 Alpha  occ. eigenvalues --  -10.20200 -10.19653 -10.19487 -10.19379 -10.18861
 Alpha  occ. eigenvalues --   -1.19533  -1.09270  -1.07163  -1.05441  -1.04047
 Alpha  occ. eigenvalues --   -0.98575  -0.97074  -0.94826  -0.93476  -0.92732
 Alpha  occ. eigenvalues --   -0.91933  -0.84888  -0.81862  -0.81184  -0.78369
 Alpha  occ. eigenvalues --   -0.77523  -0.76708  -0.75812  -0.74942  -0.73754
 Alpha  occ. eigenvalues --   -0.70712  -0.69943  -0.67679  -0.66337  -0.65487
 Alpha  occ. eigenvalues --   -0.64414  -0.64391  -0.63543  -0.62087  -0.59605
 Alpha  occ. eigenvalues --   -0.57864  -0.57499  -0.56680  -0.56075  -0.54802
 Alpha  occ. eigenvalues --   -0.53898  -0.52930  -0.51637  -0.51400  -0.51192
 Alpha  occ. eigenvalues --   -0.50348  -0.49807  -0.49709  -0.48991  -0.48510
 Alpha  occ. eigenvalues --   -0.47201  -0.46985  -0.46915  -0.46317  -0.46135
 Alpha  occ. eigenvalues --   -0.45172  -0.44582  -0.44425  -0.44056  -0.43703
 Alpha  occ. eigenvalues --   -0.43441  -0.42893  -0.42587  -0.42315  -0.41893
 Alpha  occ. eigenvalues --   -0.41573  -0.41444  -0.40756  -0.40685  -0.39877
 Alpha  occ. eigenvalues --   -0.39461  -0.38852  -0.38521  -0.37967  -0.37512
 Alpha  occ. eigenvalues --   -0.37254  -0.36871  -0.36244  -0.35969  -0.35197
 Alpha  occ. eigenvalues --   -0.34805  -0.33842  -0.33313  -0.32931  -0.32493
 Alpha  occ. eigenvalues --   -0.32141  -0.29042  -0.28671  -0.28178  -0.27848
 Alpha  occ. eigenvalues --   -0.26694  -0.24418  -0.24114  -0.24078  -0.22852
 Alpha  occ. eigenvalues --   -0.22549  -0.21086
 Alpha virt. eigenvalues --   -0.05709  -0.03559  -0.02231  -0.00537   0.01522
 Alpha virt. eigenvalues --    0.02057   0.05819   0.07555   0.07843   0.08523
 Alpha virt. eigenvalues --    0.08787   0.09424   0.09879   0.10018   0.10558

 Mulliken charges:
               1
     1  C   -0.229716
     2  O   -0.506806
     3  C    0.388355
     4  C   -0.180169
     5  C   -0.156595
     6  C    0.223896
     7  N   -0.442904
     8  C   -0.023491
     9  C    0.583191
    10  O   -0.546734
    11  N   -0.579547
    12  C   -0.151929
    13  C   -0.127847
    14  N   -0.394036
    15  C   -0.134981
    16  C   -0.270805
    17  C    0.036995
    18  N   -0.583116
    19  C   -0.178237
    20  C    0.259762
    21  C   -0.173487
    22  C   -0.152791
    23  C    0.348370
    24  C    0.483005
    25  N   -0.569514
    26  N   -0.668837
    27  C    0.579238
    28  O   -0.481590
    29  C   -0.135515
    30  O   -0.524999
    31  C    0.189879
    32  F   -0.319950
    33  C   -0.165903
    34  C    0.371417
    35  C   -0.287695
    36  H    0.166219
    37  H    0.152952
    38  H    0.179572
    39  H    0.142864
    40  H    0.150909
    41  H    0.160173
    42  H    0.188188
    43  H    0.160238
    44  H    0.132839
    45  H    0.171579
    46  H    0.114652
    47  H    0.155012
    48  H    0.141560
    49  H    0.168654
    50  H    0.112288
    51  H    0.301682
    52  H    0.166430
    53  H    0.141268
    54  H    0.160129
    55  H    0.155943
    56  H    0.346314
    57  H    0.197487
    58  H    0.177858
    59  H    0.126665
    60  H    0.120670
    61  H    0.156234
    62  H    0.174703
 Sum of Mulliken charges =  -0.00000

 Dipole moment (field-independent basis, Debye):
    X=              2.0452    Y=              2.2668    Z=              1.1167  Tot=              3.2509
 Quadrupole moment (field-independent basis, Debye-Ang):
   XX=           -268.7716   YY=           -210.4710   ZZ=           -193.3301
   XY=            -24.5682   XZ=             -5.4007   YZ=              2.5904

 Normal termination of Gaussian 16 at Sat Nov  5 11:34:15 2022.
