 Gaussian 16, Revision B.01,
 Gaussian 16:  ES64L-G16RevB.01 20-Dec-2017

 -----------------------------
 #p b3lyp/6-31g(d) opt SCF=XQC
 -----------------------------

 ------------------------------
 Gaussian input prepared by ASE
 ------------------------------
 Symbolic Z-matrix:
 Charge =  0 Multiplicity = 1

 SCF Done:  E(RB3LYP) =  -1660.04766240     A.U. after   15 cycles
 SCF Done:  E(RB3LYP) =  -1660.05292608     A.U. after   13 cycles
 SCF Done:  E(RB3LYP) =  -1660.05011795     A.U. after   13 cycles
 SCF Done:  E(RB3LYP) =  -1660.05339322     A.U. after   13 cycles
 SCF Done:  E(RB3LYP) =  -1660.05474309     A.U. after   12 cycles
 SCF Done:  E(RB3LYP) =  -1660.05503962     A.U. after   12 cycles
 SCF Done:  E(RB3LYP) =  -1660.05520753     A.U. after   11 cycles
 SCF Done:  E(RB3LYP) =  -1660.05531113     A.U. after   12 cycles
 SCF Done:  E(RB3LYP) =  -1660.05545238     A.U. after   12 cycles
 SCF Done:  E(RB3LYP) =  -1660.05555614     A.U. after   12 cycles
 SCF Done:  E(RB3LYP) =  -1660.05564566     A.U. after   11 cycles
 SCF Done:  E(RB3LYP) =  -1660.05566622     A.U. after   10 cycles
 SCF Done:  E(RB3LYP) =  -1660.05568354     A.U. after   11 cycles
 SCF Done:  E(RB3LYP) =  -1660.05568720     A.U. after   10 cycles
 SCF Done:  E(RB3LYP) =  -1660.05568800     A.U. after   11 cycles
 SCF Done:  E(RB3LYP) =  -1660.05569078     A.U. after   10 cycles
 SCF Done:  E(RB3LYP) =  -1660.05569094     A.U. after    8 cycles
 SCF Done:  E(RB3LYP) =  -1660.05569102     A.U. after    7 cycles
 SCF Done:  E(RB3LYP) =  -1660.05569105     A.U. after    6 cycles
 SCF Done:  E(RB3LYP) =  -1660.05569106     A.U. after    6 cycles
 Optimization completed.
    -- Stationary point found.

                         Standard orientation:
 ---------------------------------------------------------------------
 Center     Atomic      Atomic             Coordinates (Angstroms)
 Number     Number       Type             X           Y           Z
 ---------------------------------------------------------------------
      1          6           0       -1.698429    2.607955    1.540467
      2          8           0       -2.695016    3.336483    0.832612
      3          6           0       -3.761439    2.668772    0.325895
      4          6           0       -4.690263    3.482341   -0.359757
      5          6           0       -5.797678    2.904628   -0.935578
      6          6           0       -6.036049    1.518910   -0.832928
      7          7           0       -7.156700    1.002483   -1.449366
      8          6           0       -7.363196   -0.271949   -1.371572
      9          6           0       -6.511078   -1.220589   -0.649333
     10          8           0       -6.736008   -2.429037   -0.587992
     11          7           0       -5.412397   -0.647665    0.008337
     12          6           0       -4.667354   -1.578734    0.869666
     13          6           0       -3.615844   -2.417869    0.115768
     14          7           0       -2.270753   -1.842926    0.188192
     15          6           0       -1.442617   -2.129811   -0.985213
     16          6           0       -0.127455   -1.349464   -0.910072
     17          6           0        0.650029   -1.693917    0.370614
     18          7           0        1.856334   -0.876675    0.508853
     19          6           0        3.007713   -1.371493   -0.242433
     20          6           0        4.193976   -0.432468   -0.150282
     21          6           0        4.039966    0.942407    0.038508
     22          6           0        5.176784    1.755020    0.084961
     23          6           0        6.423816    1.166212   -0.059344
     24          6           0        6.474997   -0.226619   -0.243670
     25          7           0        5.403661   -1.007510   -0.287965
     26          7           0        7.733807   -0.829720   -0.351596
     27          6           0        8.897951   -0.128194   -0.546220
     28          8           0        9.989378   -0.651631   -0.677481
     29          6           0        8.701693    1.384409   -0.663493
     30          8           0        7.572502    1.901487    0.047901
     31          6           0       -0.257703   -1.522451    1.589940
     32          9           0       -0.499980   -0.157859    1.810483
     33          6           0       -1.592377   -2.236452    1.418628
     34          6           0       -5.115152    0.710432   -0.112567
     35          6           0       -3.957814    1.290565    0.443651
     36          1           0       -0.977258    3.352598    1.882004
     37          1           0       -2.122840    2.086482    2.406941
     38          1           0       -1.198285    1.877989    0.898109
     39          1           0       -4.495181    4.547111   -0.426747
     40          1           0       -6.523721    3.493788   -1.486620
     41          1           0       -8.235705   -0.701669   -1.860260
     42          1           0       -5.418488   -2.246941    1.294328
     43          1           0       -4.209864   -1.008066    1.679502
     44          1           0       -3.631948   -3.450322    0.509300
     45          1           0       -3.918126   -2.487392   -0.931991
     46          1           0       -1.232250   -3.215246   -1.082705
     47          1           0       -1.999611   -1.829523   -1.878634
     48          1           0        0.480214   -1.571075   -1.794733
     49          1           0       -0.336748   -0.275131   -0.911034
     50          1           0        0.893025   -2.775704    0.343933
     51          1           0        2.112000   -0.798791    1.492254
     52          1           0        2.711078   -1.460524   -1.296531
     53          1           0        3.343611   -2.377353    0.065394
     54          1           0        3.044869    1.358327    0.145050
     55          1           0        5.108592    2.827551    0.239155
     56          1           0        7.772916   -1.842938   -0.370166
     57          1           0        9.582657    1.879374   -0.254691
     58          1           0        8.622157    1.636504   -1.732384
     59          1           0        0.244619   -1.896089    2.493251
     60          1           0       -1.409137   -3.331034    1.457423
     61          1           0       -2.224435   -1.989296    2.278646
     62          1           0       -3.201686    0.663914    0.897530
 ---------------------------------------------------------------------

 The electronic state is 1-A.
 Alpha  occ. eigenvalues --  -24.69152 -19.19996 -19.18526 -19.13777 -19.11527
 Alpha  occ. eigenvalues --  -14.39525 -14.39127 -14.34521 -14.34445 -14.34398
 Alpha  occ. eigenvalues --  -14.33776 -10.31251 -10.28751 -10.28161 -10.27901
 Alpha  occ. eigenvalues --  -10.26746 -10.26676 -10.26015 -10.25085 -10.23815
 Alpha  occ. eigenvalues --  -10.23751 -10.23606 -10.23306 -10.23252 -10.22549
 Alpha  occ. eigenvalues --  -10.22533 -10.22421 -10.22401 -10.22060 -10.21625
 Alpha  occ. eigenvalues --  -10.20200 -10.19653 -10.19487 -10.19379 -10.18861
 Alpha  occ. eigenvalues --   -1.19534  -1.09270  -1.07163  -1.05441  -1.04047
 Alpha  occ. eigenvalues --   -0.98575  -0.97074  -0.94825  -0.93476  -0.92732
 Alpha  occ. eigenvalues --   -0.91933  -0.84888  -0.81862  -0.81184  -0.78369
 Alpha  occ. eigenvalues --   -0.77523  -0.76708  -0.75812  -0.74942  -0.73755
 Alpha  occ. eigenvalues --   -0.70712  -0.69943  -0.67679  -0.66337  -0.65487
 Alpha  occ. eigenvalues --   -0.64414  -0.64391  -0.63543  -0.62087  -0.59605
 Alpha  occ. eigenvalues --   -0.57864  -0.57499  -0.56680  -0.56076  -0.54802
 Alpha  occ. eigenvalues --   -0.53898  -0.52930  -0.51637  -0.51400  -0.51192
 Alpha  occ. eigenvalues --   -0.50348  -0.49807  -0.49709  -0.48991  -0.48510
 Alpha  occ. eigenvalues --   -0.47201  -0.46985  -0.46915  -0.46317  -0.46135
 Alpha  occ. eigenvalues --   -0.45172  -0.44582  -0.44425  -0.44056  -0.43703
 Alpha  occ. eigenvalues --   -0.43441  -0.42893  -0.42587  -0.42315  -0.41893
 Alpha  occ. eigenvalues --   -0.41573  -0.41444  -0.40756  -0.40685  -0.39877
 Alpha  occ. eigenvalues --   -0.39461  -0.38852  -0.38521  -0.37967  -0.37511
 Alpha  occ. eigenvalues --   -0.37254  -0.36871  -0.36244  -0.35969  -0.35197
 Alpha  occ. eigenvalues --   -0.34805  -0.33842  -0.33313  -0.32931  -0.32493
 Alpha  occ. eigenvalues --   -0.32141  -0.29042  -0.28671  -0.28178  -0.27848
 Alpha  occ. eigenvalues --   -0.26694  -0.24418  -0.24114  -0.24078  -0.22852
 Alpha  occ. eigenvalues --   -0.22549  -0.21086
 Alpha virt. eigenvalues --   -0.05709  -0.03559  -0.02231  -0.00537   0.01522
 Alpha virt. eigenvalues --    0.02057   0.05819   0.07555   0.07843   0.08523
 Alpha virt. eigenvalues --    0.08786   0.09424   0.09879   0.10018   0.10558

 Mulliken charges:
               1
     1  C   -0.229724
     2  O   -0.506808
     3  C    0.388365
     4  C   -0.180168
     5  C   -0.156595
     6  C    0.223888
     7  N   -0.442896
     8  C   -0.023492
     9  C    0.583183
    10  O   -0.546731
    11  N   -0.579565
    12  C   -0.151920
    13  C   -0.127830
    14  N   -0.393984
    15  C   -0.134969
    16  C   -0.270797
    17  C    0.036957
    18  N   -0.583101
    19  C   -0.178252
    20  C    0.259753
    21  C   -0.173476
    22  C   -0.152802
    23  C    0.348391
    24  C    0.482990
    25  N   -0.569508
    26  N   -0.668837
    27  C    0.579238
    28  O   -0.481590
    29  C   -0.135506
    30  O   -0.525006
    31  C    0.189848
    32  F   -0.319940
    33  C   -0.165930
    34  C    0.371437
    35  C   -0.287712
    36  H    0.166219
    37  H    0.152953
    38  H    0.179576
    39  H    0.142864
    40  H    0.150909
    41  H    0.160174
    42  H    0.188186
    43  H    0.160236
    44  H    0.132836
    45  H    0.171572
    46  H    0.114643
    47  H    0.155006
    48  H    0.141562
    49  H    0.168647
    50  H    0.112298
    51  H    0.301683
    52  H    0.166432
    53  H    0.141270
    54  H    0.160131
    55  H    0.155944
    56  H    0.346315
    57  H    0.197486
    58  H    0.177856
    59  H    0.126672
    60  H    0.120669
    61  H    0.156236
    62  H    0.174714
 Sum of Mulliken charges =  -0.00000

 Dipole moment (field-independent basis, Debye):
    X=              2.5621    Y=             -0.1500    Z=              1.9953  Tot=              3.2509
 Quadrupole moment (field-independent basis, Debye-Ang):
   XX=           -277.6647   YY=           -199.7477   ZZ=           -195.7616
   XY=              3.8458   XZ=             -8.4251   YZ=             -5.3236

 Normal termination of Gaussian 16 at Fri Nov  4 19:30:05 2022.
