 Gaussian 16, Revision B.01,
 Gaussian 16:  ES64L-G16RevB.01 20-Dec-2017

 -------------------------------------------------------------------
 #p b3lyp/6-31g(d) 6D 10F nosymm GFInput td=(50-50,nstate=2) SCF=XQC
 -------------------------------------------------------------------

 ------------------------------
 Gaussian input prepared by ASE
 ------------------------------
 Symbolic Z-matrix:
 Charge =  0 Multiplicity = 1

                          Input orientation:
 ---------------------------------------------------------------------
 Center     Atomic      Atomic             Coordinates (Angstroms)
 Number     Number       Type             X           Y           Z
 ---------------------------------------------------------------------
      1          6           0       -2.213388   -2.203498   -0.080662
      2          7           0       -1.088933   -1.277096    0.035948
      3          6           0       -1.416195   -0.133635    0.897325
      4          6           0       -2.452941    0.789141    0.293777
      5          6           0       -2.327132    1.286487   -1.008530
      6          6           0       -3.291714    2.162988   -1.497091
      7          6           0       -4.356151    2.516819   -0.664390
      8          7           0       -4.502589    2.051690    0.580904
      9          6           0       -3.566130    1.207409    1.031069
     10          6           0        0.113837   -1.971018    0.507777
     11          6           0        1.386122   -1.184348    0.259680
     12          6           0        1.609388   -0.514696   -0.951359
     13          6           0        2.792082    0.178777   -1.192260
     14          6           0        3.791889    0.214388   -0.209857
     15          6           0        5.077790    0.935963   -0.401701
     16          8           0        5.972326    0.992008    0.417928
     17          8           0        5.167376    1.545950   -1.611343
     18          6           0        3.595589   -0.448015    1.006738
     19          6           0        2.406647   -1.129150    1.213396
     20          9           0        2.233515   -1.768422    2.393811
     21          1           0       -2.486651   -2.674090    0.883037
     22          1           0       -1.962882   -2.997932   -0.791347
     23          1           0       -3.090070   -1.670957   -0.458462
     24          1           0       -0.488115    0.428955    1.056822
     25          1           0       -1.757848   -0.464444    1.897613
     26          1           0       -1.486414    0.978334   -1.623581
     27          1           0       -3.224223    2.567916   -2.502841
     28          1           0       -5.126998    3.201835   -1.014336
     29          1           0       -3.709374    0.837489    2.046761
     30          1           0        0.047001   -2.241771    1.574897
     31          1           0        0.180361   -2.917009   -0.045542
     32          1           0        0.826113   -0.543493   -1.702292
     33          1           0        2.946290    0.690117   -2.135396
     34          1           0        6.040440    1.980005   -1.622803
     35          1           0        4.360983   -0.426693    1.773998
 ---------------------------------------------------------------------

 SCF Done:  E(RB3LYP) =  -940.419546021     A.U. after   15 cycles

 Excitation energies and oscillator strengths:

 Excited state symmetry could not be determined.
 Excited State   1:      Triplet-?Sym    3.4157 eV  362.98 nm  f=0.0000  <S**2>=2.000
      68 -> 73         0.45358
      68 -> 75        -0.12003
      69 -> 73        -0.12364
      69 -> 75        -0.21747
      70 -> 73         0.39112
      70 -> 75         0.12962
      72 -> 73         0.14810
 This state for optimization and/or second-order correction.
 Total Energy, E(TD-HF/TD-DFT) =  -940.294020756
 Copying the excited state density for this state as the 1-particle RhoCI density.

 Excited state symmetry could not be determined.
 Excited State   2:      Triplet-?Sym    3.8627 eV  320.97 nm  f=0.0000  <S**2>=2.000
      66 -> 74        -0.39263
      68 -> 76         0.15242
      69 -> 76        -0.30454
      70 -> 73        -0.11260
      70 -> 74        -0.14060
      70 -> 75         0.10109
      70 -> 76        -0.35128
      72 -> 73         0.10450

 Excited state symmetry could not be determined.
 Excited State   3:      Singlet-?Sym    4.0470 eV  306.36 nm  f=0.0016  <S**2>=0.000
      72 -> 73         0.70358

 Excited state symmetry could not be determined.
 Excited State   4:      Singlet-?Sym    4.7716 eV  259.84 nm  f=0.0608  <S**2>=0.000
      68 -> 73        -0.18919
      68 -> 75        -0.20523
      69 -> 73        -0.43538
      70 -> 73         0.43941
      70 -> 75        -0.14121

 Alpha  occ. eigenvalues --  -24.71487 -19.20259 -19.14345 -14.34340 -14.32916
 Alpha  occ. eigenvalues --  -10.32824 -10.28331 -10.22887 -10.22366 -10.22200
 Alpha  occ. eigenvalues --  -10.22130 -10.21941 -10.21905 -10.21085 -10.20937
 Alpha  occ. eigenvalues --  -10.20856 -10.20770 -10.20687 -10.20524 -10.20022
 Alpha  occ. eigenvalues --   -1.22550  -1.11052  -1.01875  -0.94259  -0.93480
 Alpha  occ. eigenvalues --   -0.87797  -0.81286  -0.79465  -0.77198  -0.76215
 Alpha  occ. eigenvalues --   -0.72076  -0.70997  -0.66503  -0.63351  -0.62789
 Alpha  occ. eigenvalues --   -0.62521  -0.60352  -0.58292  -0.55134  -0.52215
 Alpha  occ. eigenvalues --   -0.51021  -0.50689  -0.49284  -0.48657  -0.48079
 Alpha  occ. eigenvalues --   -0.47761  -0.47003  -0.46666  -0.45197  -0.44978
 Alpha  occ. eigenvalues --   -0.44719  -0.43408  -0.41211  -0.40921  -0.40418
 Alpha  occ. eigenvalues --   -0.40234  -0.39925  -0.39491  -0.38362  -0.37797
 Alpha  occ. eigenvalues --   -0.37397  -0.36499  -0.35724  -0.35335  -0.32429
 Alpha  occ. eigenvalues --   -0.28393  -0.28355  -0.26897  -0.25950  -0.25425
 Alpha  occ. eigenvalues --   -0.25282  -0.23184
 Alpha virt. eigenvalues --   -0.05807  -0.02518  -0.01314  -0.01020   0.04825
 Alpha virt. eigenvalues --    0.06820   0.08669   0.08829   0.10953   0.12010
 Alpha virt. eigenvalues --    0.12743   0.13395   0.13679   0.14290   0.14641

 Mulliken charges:
               1
     1  C   -0.307677
     2  N   -0.385979
     3  C   -0.211435
     4  C    0.131411
     5  C   -0.130808
     6  C   -0.141852
     7  C    0.039511
     8  N   -0.408303
     9  C   -0.015734
    10  C   -0.195607
    11  C    0.078202
    12  C   -0.181247
    13  C   -0.158599
    14  C    0.067713
    15  C    0.543336
    16  O   -0.469994
    17  O   -0.583119
    18  C   -0.230251
    19  C    0.322729
    20  F   -0.293052
    21  H    0.125733
    22  H    0.152864
    23  H    0.167692
    24  H    0.168152
    25  H    0.127793
    26  H    0.149668
    27  H    0.137451
    28  H    0.141749
    29  H    0.137757
    30  H    0.145708
    31  H    0.164436
    32  H    0.155509
    33  H    0.162659
    34  H    0.414232
    35  H    0.179352
 Sum of Mulliken charges =  -0.00000

 Dipole moment (field-independent basis, Debye):
    X=              0.0287    Y=             -0.8696    Z=             -2.7867  Tot=              2.9194
 Quadrupole moment (field-independent basis, Debye-Ang):
   XX=           -132.1415   YY=           -111.4485   ZZ=           -111.5637
   XY=              8.3642   XZ=             -4.4255   YZ=             -6.2275

 Normal termination of Gaussian 16 at Sat Nov  5 11:34:48 2022.
