 Gaussian 16, Revision B.01,
 Gaussian 16:  ES64L-G16RevB.01 20-Dec-2017

 -----------------------------
 #p b3lyp/6-31g(d) opt SCF=XQC
 -----------------------------

 ------------------------------
 Gaussian input prepared by ASE
 ------------------------------
 Symbolic Z-matrix:
 Charge =  0 Multiplicity = 1

 SCF Done:  E(RB3LYP) =  -940.415180944     A.U. after   15 cycles
 SCF Done:  E(RB3LYP) =  -940.419109412     A.U. after   13 cycles
 SCF Done:  E(RB3LYP) =  -940.419425884     A.U. after   12 cycles
 SCF Done:  E(RB3LYP) =  -940.419468744     A.U. after   11 cycles
 SCF Done:  E(RB3LYP) =  -940.419487262     A.U. after   11 cycles
 SCF Done:  E(RB3LYP) =  -940.419506395     A.U. after   10 cycles
 SCF Done:  E(RB3LYP) =  -940.419532637     A.U. after   11 cycles
 SCF Done:  E(RB3LYP) =  -940.419539092     A.U. after   11 cycles
 SCF Done:  E(RB3LYP) =  -940.419539942     A.U. after    8 cycles
 SCF Done:  E(RB3LYP) =  -940.419540055     A.U. after    7 cycles
 SCF Done:  E(RB3LYP) =  -940.419540108     A.U. after    7 cycles
 SCF Done:  E(RB3LYP) =  -940.419540144     A.U. after    7 cycles
 SCF Done:  E(RB3LYP) =  -940.419540162     A.U. after    7 cycles
 SCF Done:  E(RB3LYP) =  -940.419540170     A.U. after    7 cycles
 Optimization completed.
    -- Stationary point found.

                         Standard orientation:
 ---------------------------------------------------------------------
 Center     Atomic      Atomic             Coordinates (Angstroms)
 Number     Number       Type             X           Y           Z
 ---------------------------------------------------------------------
      1          6           0       -2.446818    2.154849    1.409766
      2          7           0       -1.417721    1.320133    0.792980
      3          6           0       -1.850060    0.802491   -0.511513
      4          6           0       -2.975774   -0.203980   -0.409468
      5          6           0       -2.907151   -1.300097    0.458289
      6          6           0       -3.955821   -2.215045    0.481222
      7          6           0       -5.044692   -2.004826   -0.368355
      8          7           0       -5.137344   -0.963373   -1.202224
      9          6           0       -4.120047   -0.093030   -1.207004
     10          6           0       -0.149977    2.049049    0.682024
     11          6           0        1.037695    1.137035    0.443747
     12          6           0        1.187000   -0.069400    1.141686
     13          6           0        2.294675   -0.889935    0.948087
     14          6           0        3.292151   -0.511490    0.038241
     15          6           0        4.500086   -1.340386   -0.216404
     16          8           0        5.389808   -1.052536   -0.991427
     17          8           0        4.522201   -2.483199    0.516285
     18          6           0        3.169007    0.689171   -0.669335
     19          6           0        2.053698    1.482355   -0.452123
     20          9           0        1.951128    2.642847   -1.141152
     21          1           0       -2.666860    3.069774    0.827239
     22          1           0       -2.124101    2.455742    2.411899
     23          1           0       -3.373682    1.583460    1.506417
     24          1           0       -0.980532    0.318943   -0.973446
     25          1           0       -2.151618    1.621894   -1.192965
     26          1           0       -2.044067   -1.419958    1.106960
     27          1           0       -3.934391   -3.076850    1.142197
     28          1           0       -5.880983   -2.702290   -0.377190
     29          1           0       -4.220231    0.750375   -1.890834
     30          1           0       -0.183512    2.826629   -0.099490
     31          1           0        0.005431    2.575674    1.632814
     32          1           0        0.405753   -0.355658    1.838793
     33          1           0        2.392374   -1.819032    1.497621
     34          1           0        5.348516   -2.937991    0.269014
     35          1           0        3.933291    0.991662   -1.375976
 ---------------------------------------------------------------------

 The electronic state is 1-A.
 Alpha  occ. eigenvalues --  -24.71487 -19.20259 -19.14345 -14.34340 -14.32916
 Alpha  occ. eigenvalues --  -10.32824 -10.28331 -10.22887 -10.22366 -10.22200
 Alpha  occ. eigenvalues --  -10.22130 -10.21941 -10.21905 -10.21085 -10.20937
 Alpha  occ. eigenvalues --  -10.20856 -10.20770 -10.20687 -10.20525 -10.20022
 Alpha  occ. eigenvalues --   -1.22550  -1.11052  -1.01875  -0.94259  -0.93479
 Alpha  occ. eigenvalues --   -0.87797  -0.81286  -0.79464  -0.77198  -0.76215
 Alpha  occ. eigenvalues --   -0.72076  -0.70997  -0.66503  -0.63351  -0.62789
 Alpha  occ. eigenvalues --   -0.62521  -0.60352  -0.58292  -0.55134  -0.52215
 Alpha  occ. eigenvalues --   -0.51021  -0.50689  -0.49284  -0.48657  -0.48079
 Alpha  occ. eigenvalues --   -0.47761  -0.47003  -0.46666  -0.45197  -0.44978
 Alpha  occ. eigenvalues --   -0.44719  -0.43408  -0.41211  -0.40921  -0.40418
 Alpha  occ. eigenvalues --   -0.40234  -0.39925  -0.39491  -0.38362  -0.37797
 Alpha  occ. eigenvalues --   -0.37397  -0.36499  -0.35724  -0.35335  -0.32429
 Alpha  occ. eigenvalues --   -0.28393  -0.28355  -0.26897  -0.25950  -0.25425
 Alpha  occ. eigenvalues --   -0.25282  -0.23184
 Alpha virt. eigenvalues --   -0.05807  -0.02518  -0.01314  -0.01020   0.04825
 Alpha virt. eigenvalues --    0.06819   0.08669   0.08829   0.10953   0.12010
 Alpha virt. eigenvalues --    0.12743   0.13395   0.13679   0.14290   0.14641

 Mulliken charges:
               1
     1  C   -0.307669
     2  N   -0.385968
     3  C   -0.211439
     4  C    0.131397
     5  C   -0.130795
     6  C   -0.141860
     7  C    0.039515
     8  N   -0.408305
     9  C   -0.015728
    10  C   -0.195617
    11  C    0.078217
    12  C   -0.181261
    13  C   -0.158582
    14  C    0.067702
    15  C    0.543338
    16  O   -0.469994
    17  O   -0.583121
    18  C   -0.230251
    19  C    0.322727
    20  F   -0.293052
    21  H    0.125731
    22  H    0.152861
    23  H    0.167690
    24  H    0.168150
    25  H    0.127793
    26  H    0.149666
    27  H    0.137451
    28  H    0.141749
    29  H    0.137756
    30  H    0.145709
    31  H    0.164435
    32  H    0.155511
    33  H    0.162658
    34  H    0.414233
    35  H    0.179353
 Sum of Mulliken charges =  -0.00000

 Dipole moment (field-independent basis, Debye):
    X=              0.0967    Y=             -0.6644    Z=              2.8412  Tot=              2.9194
 Quadrupole moment (field-independent basis, Debye-Ang):
   XX=           -133.7064   YY=           -104.7316   ZZ=           -116.1961
   XY=             -6.8398   XZ=             -1.2403   YZ=             -2.3819

 Normal termination of Gaussian 16 at Fri Nov  4 18:51:36 2022.
