 Gaussian 16, Revision B.01,
 Gaussian 16:  ES64L-G16RevB.01 20-Dec-2017

 -----------------------------
 #p b3lyp/6-31g(d) opt SCF=XQC
 -----------------------------

 ------------------------------
 Gaussian input prepared by ASE
 ------------------------------
 Symbolic Z-matrix:
 Charge =  0 Multiplicity = 1

 SCF Done:  E(RB3LYP) =  -908.550098920     A.U. after   14 cycles
 SCF Done:  E(RB3LYP) =  -908.553906498     A.U. after   12 cycles
 SCF Done:  E(RB3LYP) =  -908.554925556     A.U. after   11 cycles
 SCF Done:  E(RB3LYP) =  -908.555598012     A.U. after   11 cycles
 SCF Done:  E(RB3LYP) =  -908.556216444     A.U. after   11 cycles
 SCF Done:  E(RB3LYP) =  -908.556611996     A.U. after   13 cycles
 SCF Done:  E(RB3LYP) =  -908.556670407     A.U. after   12 cycles
 SCF Done:  E(RB3LYP) =  -908.557265175     A.U. after   11 cycles
 SCF Done:  E(RB3LYP) =  -908.557293228     A.U. after    9 cycles
 SCF Done:  E(RB3LYP) =  -908.557350727     A.U. after   13 cycles
 SCF Done:  E(RB3LYP) =  -908.557983609     A.U. after   11 cycles
 SCF Done:  E(RB3LYP) =  -908.558041965     A.U. after   10 cycles
 SCF Done:  E(RB3LYP) =  -908.558031034     A.U. after   10 cycles
 SCF Done:  E(RB3LYP) =  -908.558060554     A.U. after   10 cycles
 SCF Done:  E(RB3LYP) =  -908.558060453     A.U. after   10 cycles
 SCF Done:  E(RB3LYP) =  -908.558062355     A.U. after    9 cycles
 SCF Done:  E(RB3LYP) =  -908.558062938     A.U. after    9 cycles
 SCF Done:  E(RB3LYP) =  -908.558062970     A.U. after    7 cycles
 SCF Done:  E(RB3LYP) =  -908.558062981     A.U. after    7 cycles
 SCF Done:  E(RB3LYP) =  -908.558062981     A.U. after    6 cycles
 Optimization completed.
    -- Stationary point found.

                         Standard orientation:
 ---------------------------------------------------------------------
 Center     Atomic      Atomic             Coordinates (Angstroms)
 Number     Number       Type             X           Y           Z
 ---------------------------------------------------------------------
      1          6           0        6.442469    1.504898   -1.517152
      2          6           0        5.034943    0.915470   -1.382099
      3          6           0        4.968637   -0.218578   -0.351869
      4          7           0        3.626075   -0.801010   -0.247164
      5          6           0        2.691304   -0.076193    0.627731
      6          6           0        2.918127   -0.308061    2.140827
      7          6           0        2.204841   -1.652356    2.451013
      8          6           0        1.186423   -1.871603    1.292530
      9          6           0        1.237249   -0.577310    0.443574
     10          6           0        0.786367   -0.719899   -1.013298
     11          6           0       -0.654916   -1.184298   -1.177647
     12          8           0       -1.508700   -0.218393   -0.560071
     13          6           0       -2.851971   -0.457959   -0.516802
     14          6           0       -3.485718   -1.557032   -1.104963
     15          6           0       -4.870637   -1.719133   -0.986057
     16          6           0       -5.632826   -0.790982   -0.283316
     17          6           0       -5.003667    0.315167    0.296390
     18          6           0       -3.627922    0.492143    0.186752
     19          8           0       -3.034243    1.556885    0.824035
     20          6           0       -2.551690    2.605562   -0.031680
     21          6           0       -1.931296    3.670999    0.854414
     22          1           0        7.165849    0.741333   -1.829826
     23          1           0        6.794368    1.922269   -0.565476
     24          1           0        6.467437    2.308886   -2.261013
     25          1           0        4.688805    0.524586   -2.346835
     26          1           0        4.332397    1.711770   -1.102372
     27          1           0        5.354177    0.149049    0.618145
     28          1           0        5.650649   -1.017893   -0.669431
     29          1           0        3.706804   -1.762559    0.077102
     30          1           0        2.767601    0.985415    0.367681
     31          1           0        2.449686    0.506276    2.707824
     32          1           0        3.979794   -0.314632    2.412212
     33          1           0        1.710846   -1.621391    3.427294
     34          1           0        2.922911   -2.479256    2.497808
     35          1           0        1.477073   -2.737378    0.681231
     36          1           0        0.177106   -2.077259    1.662847
     37          1           0        0.587011    0.162907    0.927815
     38          1           0        0.905172    0.242253   -1.528759
     39          1           0        1.439931   -1.429061   -1.534089
     40          1           0       -0.810819   -2.165277   -0.707271
     41          1           0       -0.909648   -1.276971   -2.243393
     42          1           0       -2.907311   -2.292848   -1.651938
     43          1           0       -5.344039   -2.581988   -1.446654
     44          1           0       -6.707111   -0.918243   -0.186305
     45          1           0       -5.566381    1.057075    0.855482
     46          1           0       -3.392683    3.015664   -0.610096
     47          1           0       -1.815565    2.202222   -0.736083
     48          1           0       -1.093901    3.255197    1.424129
     49          1           0       -2.668273    4.061930    1.563502
     50          1           0       -1.559172    4.502044    0.244820
 ---------------------------------------------------------------------

 The electronic state is 1-A.
 Alpha  occ. eigenvalues --  -19.17168 -19.14880 -14.31190 -10.24023 -10.23649
 Alpha  occ. eigenvalues --  -10.22887 -10.22561 -10.20332 -10.20272 -10.18276
 Alpha  occ. eigenvalues --  -10.18222 -10.17921 -10.17847 -10.17790 -10.17735
 Alpha  occ. eigenvalues --  -10.17706 -10.17589 -10.17506 -10.17380 -10.17290
 Alpha  occ. eigenvalues --  -10.17280  -1.06079  -1.03099  -0.90150  -0.84048
 Alpha  occ. eigenvalues --   -0.81971  -0.77502  -0.76290  -0.76073  -0.73045
 Alpha  occ. eigenvalues --   -0.71668  -0.69741  -0.68910  -0.65393  -0.62855
 Alpha  occ. eigenvalues --   -0.61824  -0.58792  -0.58453  -0.58119  -0.55566
 Alpha  occ. eigenvalues --   -0.54491  -0.53047  -0.50267  -0.49539  -0.48374
 Alpha  occ. eigenvalues --   -0.47968  -0.46088  -0.45480  -0.44931  -0.44362
 Alpha  occ. eigenvalues --   -0.44035  -0.43430  -0.42905  -0.42218  -0.41755
 Alpha  occ. eigenvalues --   -0.40682  -0.39921  -0.38504  -0.37928  -0.37370
 Alpha  occ. eigenvalues --   -0.37172  -0.36505  -0.36183  -0.35231  -0.34822
 Alpha  occ. eigenvalues --   -0.34551  -0.33961  -0.33669  -0.33461  -0.32839
 Alpha  occ. eigenvalues --   -0.32433  -0.31790  -0.31565  -0.30772  -0.30435
 Alpha  occ. eigenvalues --   -0.30349  -0.26217  -0.23452  -0.21323  -0.20764
 Alpha virt. eigenvalues --    0.01040   0.01900   0.06776   0.08298   0.09287
 Alpha virt. eigenvalues --    0.09746   0.10525   0.11272   0.11846   0.12477
 Alpha virt. eigenvalues --    0.13442   0.13632   0.14371   0.14502   0.15178

 Mulliken charges:
               1
     1  C   -0.447809
     2  C   -0.239514
     3  C   -0.119520
     4  N   -0.560581
     5  C    0.011080
     6  C   -0.280495
     7  C   -0.283803
     8  C   -0.294415
     9  C   -0.085644
    10  C   -0.277173
    11  C   -0.042877
    12  O   -0.523310
    13  C    0.354040
    14  C   -0.206671
    15  C   -0.135588
    16  C   -0.142524
    17  C   -0.172765
    18  C    0.309143
    19  O   -0.534450
    20  C   -0.021856
    21  C   -0.455832
    22  H    0.140686
    23  H    0.141855
    24  H    0.144848
    25  H    0.141652
    26  H    0.133972
    27  H    0.113528
    28  H    0.127334
    29  H    0.293398
    30  H    0.126791
    31  H    0.136131
    32  H    0.135166
    33  H    0.142682
    34  H    0.131997
    35  H    0.126929
    36  H    0.148420
    37  H    0.148089
    38  H    0.139283
    39  H    0.149187
    40  H    0.141491
    41  H    0.137684
    42  H    0.134720
    43  H    0.125028
    44  H    0.124816
    45  H    0.132042
    46  H    0.126180
    47  H    0.148814
    48  H    0.158566
    49  H    0.156809
    50  H    0.142466
 Sum of Mulliken charges =  -0.00000

 Dipole moment (field-independent basis, Debye):
    X=              1.5630    Y=             -0.5888    Z=             -0.6782  Tot=              1.8027
 Quadrupole moment (field-independent basis, Debye-Ang):
   XX=           -125.7098   YY=           -121.4355   ZZ=           -130.6974
   XY=             -1.4434   XZ=              4.1282   YZ=              1.0721

 Normal termination of Gaussian 16 at Fri Nov  4 18:47:49 2022.
