 Gaussian 16, Revision B.01,
 Gaussian 16:  ES64L-G16RevB.01 20-Dec-2017

 -------------------------------------------------------------------
 #p b3lyp/6-31g(d) 6D 10F nosymm GFInput td=(50-50,nstate=2) SCF=XQC
 -------------------------------------------------------------------

 ------------------------------
 Gaussian input prepared by ASE
 ------------------------------
 Symbolic Z-matrix:
 Charge =  0 Multiplicity = 1

                          Input orientation:
 ---------------------------------------------------------------------
 Center     Atomic      Atomic             Coordinates (Angstroms)
 Number     Number       Type             X           Y           Z
 ---------------------------------------------------------------------
      1          6           0        5.574133    2.880683   -0.332402
      2          6           0        4.319944    2.023125   -0.528356
      3          6           0        4.425706    0.659428    0.165170
      4          7           0        3.235450   -0.171031   -0.049982
      5          6           0        2.107313    0.098188    0.855240
      6          6           0        2.270792   -0.491093    2.276751
      7          6           0        1.842463   -1.978153    2.145184
      8          6           0        0.979548   -2.060109    0.850585
      9          6           0        0.811470   -0.597636    0.369517
     10          6           0        0.506103   -0.419107   -1.120779
     11          6           0       -0.786582   -1.083298   -1.576618
     12          8           0       -1.869329   -0.501137   -0.847189
     13          6           0       -3.129500   -0.991476   -1.034738
     14          6           0       -3.469306   -1.986928   -1.956224
     15          6           0       -4.792033   -2.432663   -2.056861
     16          6           0       -5.783487   -1.892160   -1.243771
     17          6           0       -5.449072   -0.888585   -0.329184
     18          6           0       -4.139129   -0.433071   -0.217048
     19          8           0       -3.834470    0.509047    0.737863
     20          6           0       -3.528803    1.822793    0.242417
     21          6           0       -3.215902    2.702648    1.439562
     22          1           0        6.464818    2.381652   -0.734549
     23          1           0        5.759913    3.080740    0.730228
     24          1           0        5.478636    3.847019   -0.839773
     25          1           0        4.135017    1.852707   -1.596100
     26          1           0        3.444864    2.565953   -0.146932
     27          1           0        4.653633    0.813870    1.237044
     28          1           0        5.284112    0.120227   -0.255890
     29          1           0        3.497458   -1.151575    0.028287
     30          1           0        1.972245    1.185117    0.883562
     31          1           0        1.599530    0.034316    2.967706
     32          1           0        3.287167   -0.371828    2.668651
     33          1           0        1.285414   -2.308380    3.027658
     34          1           0        2.716092   -2.636092    2.071235
     35          1           0        1.491797   -2.655372    0.081824
     36          1           0        0.014234   -2.544982    1.027266
     37          1           0       -0.015114   -0.153731    0.939541
     38          1           0        0.451888    0.651722   -1.357291
     39          1           0        1.331854   -0.823108   -1.717604
     40          1           0       -0.761269   -2.166551   -1.392772
     41          1           0       -0.939305   -0.927604   -2.654453
     42          1           0       -2.709192   -2.423053   -2.594334
     43          1           0       -5.035375   -3.209947   -2.776162
     44          1           0       -6.809543   -2.240655   -1.317637
     45          1           0       -6.196064   -0.447072    0.324059
     46          1           0       -4.395052    2.209559   -0.314397
     47          1           0       -2.675245    1.772978   -0.442933
     48          1           0       -2.351318    2.312204    1.986137
     49          1           0       -4.067959    2.739316    2.126163
     50          1           0       -2.988546    3.723105    1.111395
 ---------------------------------------------------------------------

 SCF Done:  E(RB3LYP) =  -908.558058086     A.U. after   14 cycles

 Excitation energies and oscillator strengths:

 Excited state symmetry could not be determined.
 Excited State   1:      Triplet-?Sym    3.6735 eV  337.51 nm  f=0.0000  <S**2>=2.000
      78 -> 81         0.37124
      78 -> 82        -0.10966
      80 -> 81         0.27827
      80 -> 82         0.50736
 This state for optimization and/or second-order correction.
 Total Energy, E(TD-HF/TD-DFT) =  -908.423058855
 Copying the excited state density for this state as the 1-particle RhoCI density.

 Excited state symmetry could not be determined.
 Excited State   2:      Triplet-?Sym    4.2586 eV  291.14 nm  f=0.0000  <S**2>=2.000
      78 -> 82         0.13618
      80 -> 81         0.62556
      80 -> 82        -0.29214

 Excited state symmetry could not be determined.
 Excited State   3:      Singlet-?Sym    5.1427 eV  241.09 nm  f=0.0348  <S**2>=0.000
      78 -> 81        -0.12241
      78 -> 82        -0.32880
      80 -> 81         0.59249
      80 -> 82        -0.14800

 Excited state symmetry could not be determined.
 Excited State   4:      Singlet-?Sym    5.7130 eV  217.02 nm  f=0.0003  <S**2>=0.000
      79 -> 81         0.70556

 Alpha  occ. eigenvalues --  -19.17168 -19.14880 -14.31190 -10.24023 -10.23649
 Alpha  occ. eigenvalues --  -10.22887 -10.22561 -10.20332 -10.20272 -10.18276
 Alpha  occ. eigenvalues --  -10.18222 -10.17921 -10.17847 -10.17790 -10.17735
 Alpha  occ. eigenvalues --  -10.17706 -10.17589 -10.17505 -10.17380 -10.17290
 Alpha  occ. eigenvalues --  -10.17280  -1.06079  -1.03099  -0.90150  -0.84048
 Alpha  occ. eigenvalues --   -0.81971  -0.77502  -0.76290  -0.76073  -0.73045
 Alpha  occ. eigenvalues --   -0.71668  -0.69741  -0.68910  -0.65393  -0.62855
 Alpha  occ. eigenvalues --   -0.61824  -0.58792  -0.58453  -0.58119  -0.55566
 Alpha  occ. eigenvalues --   -0.54491  -0.53047  -0.50267  -0.49539  -0.48374
 Alpha  occ. eigenvalues --   -0.47968  -0.46088  -0.45480  -0.44931  -0.44362
 Alpha  occ. eigenvalues --   -0.44035  -0.43430  -0.42905  -0.42218  -0.41755
 Alpha  occ. eigenvalues --   -0.40682  -0.39921  -0.38503  -0.37928  -0.37370
 Alpha  occ. eigenvalues --   -0.37172  -0.36505  -0.36183  -0.35231  -0.34822
 Alpha  occ. eigenvalues --   -0.34551  -0.33961  -0.33669  -0.33461  -0.32839
 Alpha  occ. eigenvalues --   -0.32433  -0.31790  -0.31565  -0.30772  -0.30435
 Alpha  occ. eigenvalues --   -0.30349  -0.26217  -0.23452  -0.21323  -0.20764
 Alpha virt. eigenvalues --    0.01040   0.01901   0.06776   0.08298   0.09287
 Alpha virt. eigenvalues --    0.09746   0.10525   0.11272   0.11846   0.12477
 Alpha virt. eigenvalues --    0.13442   0.13632   0.14371   0.14502   0.15178

 Mulliken charges:
               1
     1  C   -0.447809
     2  C   -0.239511
     3  C   -0.119526
     4  N   -0.560570
     5  C    0.011046
     6  C   -0.280478
     7  C   -0.283812
     8  C   -0.294409
     9  C   -0.085638
    10  C   -0.277158
    11  C   -0.042891
    12  O   -0.523310
    13  C    0.354058
    14  C   -0.206678
    15  C   -0.135588
    16  C   -0.142518
    17  C   -0.172779
    18  C    0.309136
    19  O   -0.534450
    20  C   -0.021862
    21  C   -0.455837
    22  H    0.140686
    23  H    0.141855
    24  H    0.144848
    25  H    0.141656
    26  H    0.133972
    27  H    0.113528
    28  H    0.127333
    29  H    0.293397
    30  H    0.126794
    31  H    0.136130
    32  H    0.135165
    33  H    0.142683
    34  H    0.131998
    35  H    0.126927
    36  H    0.148420
    37  H    0.148094
    38  H    0.139279
    39  H    0.149184
    40  H    0.141495
    41  H    0.137685
    42  H    0.134720
    43  H    0.125027
    44  H    0.124816
    45  H    0.132046
    46  H    0.126181
    47  H    0.148820
    48  H    0.158570
    49  H    0.156811
    50  H    0.142466
 Sum of Mulliken charges =  -0.00000

 Dipole moment (field-independent basis, Debye):
    X=              1.6970    Y=             -0.0765    Z=             -0.6034  Tot=              1.8027
 Quadrupole moment (field-independent basis, Debye-Ang):
   XX=           -127.1223   YY=           -123.7401   ZZ=           -128.5265
   XY=             -3.6340   XZ=              3.5547   YZ=              3.6897

 Normal termination of Gaussian 16 at Sat Nov  5 11:32:56 2022.
