 Gaussian 16, Revision B.01,
 Gaussian 16:  ES64L-G16RevB.01 20-Dec-2017

 -------------------------------------------------------------------
 #p b3lyp/6-31g(d) 6D 10F nosymm GFInput td=(50-50,nstate=2) SCF=XQC
 -------------------------------------------------------------------

 ------------------------------
 Gaussian input prepared by ASE
 ------------------------------
 Symbolic Z-matrix:
 Charge =  0 Multiplicity = 1

                          Input orientation:
 ---------------------------------------------------------------------
 Center     Atomic      Atomic             Coordinates (Angstroms)
 Number     Number       Type             X           Y           Z
 ---------------------------------------------------------------------
      1          6           0       -0.912946   -2.059617   -2.566569
      2          8           0       -1.746733   -1.149149   -1.846799
      3          6           0       -1.863843   -1.425482   -0.497966
      4          6           0       -2.745042   -2.427381   -0.085809
      5          6           0       -2.917037   -2.695582    1.271705
      6          6           0       -2.212359   -1.948669    2.214637
      7          6           0       -1.344441   -0.938789    1.793379
      8          6           0       -1.141894   -0.656569    0.435531
      9          6           0       -0.182296    0.422015   -0.066095
     10          6           0       -0.057469    1.643366    0.876018
     11          6           0       -1.348771    2.458877    1.103536
     12          6           0       -1.098065    3.561692    2.143812
     13          6           0       -1.901863    3.062626   -0.197150
     14          7           0        1.113765   -0.189401   -0.441465
     15          6           0        1.971072   -0.643735    0.651930
     16          6           0        2.951508   -1.718490    0.131642
     17          6           0        3.357695   -1.447300   -1.335075
     18          6           0        3.286111    0.053975   -1.631600
     19          6           0        1.847375    0.583077   -1.452684
     20          1           0       -0.910271   -1.719101   -3.605148
     21          1           0        0.105648   -2.044225   -2.162744
     22          1           0       -1.310206   -3.083005   -2.524962
     23          1           0       -3.300106   -2.977554   -0.840539
     24          1           0       -3.605022   -3.475006    1.588367
     25          1           0       -2.341617   -2.142024    3.276053
     26          1           0       -0.818881   -0.354807    2.543359
     27          1           0       -0.595442    0.772405   -1.016290
     28          1           0        0.336928    1.325675    1.850251
     29          1           0        0.702719    2.317726    0.457401
     30          1           0       -2.113396    1.782774    1.510288
     31          1           0       -0.341917    4.274086    1.787917
     32          1           0       -0.739991    3.144457    3.092944
     33          1           0       -2.014380    4.127275    2.351098
     34          1           0       -1.156797    3.711724   -0.676871
     35          1           0       -2.789636    3.673145    0.006380
     36          1           0       -2.193410    2.293772   -0.920417
     37          1           0        1.339814   -1.070402    1.436442
     38          1           0        2.533489    0.187606    1.118361
     39          1           0        3.838734   -1.731175    0.778001
     40          1           0        2.488649   -2.709098    0.208411
     41          1           0        2.680071   -1.978813   -2.014395
     42          1           0        4.364965   -1.832979   -1.533019
     43          1           0        3.966481    0.585442   -0.952996
     44          1           0        3.630467    0.276862   -2.648420
     45          1           0        1.893402    1.661573   -1.211590
     46          1           0        1.294936    0.498194   -2.398857
 ---------------------------------------------------------------------

 SCF Done:  E(RB3LYP) =  -794.023953203     A.U. after   14 cycles

 Excitation energies and oscillator strengths:

 Excited state symmetry could not be determined.
 Excited State   1:      Triplet-?Sym    3.6976 eV  335.31 nm  f=0.0000  <S**2>=2.000
      70 -> 73        -0.44076
      71 -> 73        -0.12064
      71 -> 74         0.49237
      72 -> 73        -0.10356
      72 -> 74         0.15013
 This state for optimization and/or second-order correction.
 Total Energy, E(TD-HF/TD-DFT) =  -793.888070017
 Copying the excited state density for this state as the 1-particle RhoCI density.

 Excited state symmetry could not be determined.
 Excited State   2:      Triplet-?Sym    4.3581 eV  284.49 nm  f=0.0000  <S**2>=2.000
      70 -> 74        -0.11657
      71 -> 73         0.31599
      71 -> 74         0.17042
      72 -> 73         0.59306

 Excited state symmetry could not be determined.
 Excited State   3:      Singlet-?Sym    4.5549 eV  272.20 nm  f=0.0101  <S**2>=0.000
      72 -> 73         0.69335
      72 -> 74        -0.12173

 Excited state symmetry could not be determined.
 Excited State   4:      Singlet-?Sym    4.7461 eV  261.23 nm  f=0.0052  <S**2>=0.000
      72 -> 73         0.12116
      72 -> 74         0.69336

 Alpha  occ. eigenvalues --  -19.15397 -14.31389 -10.23332 -10.22455 -10.20782
 Alpha  occ. eigenvalues --  -10.20051 -10.19734 -10.18738 -10.18687 -10.18521
 Alpha  occ. eigenvalues --  -10.18349 -10.18271 -10.18172 -10.17867 -10.17578
 Alpha  occ. eigenvalues --  -10.17384 -10.17223 -10.16772 -10.16564  -1.03971
 Alpha  occ. eigenvalues --   -0.91455  -0.84552  -0.80557  -0.78269  -0.75147
 Alpha  occ. eigenvalues --   -0.74159  -0.73978  -0.70361  -0.67730  -0.67497
 Alpha  occ. eigenvalues --   -0.65079  -0.62052  -0.61365  -0.58652  -0.57353
 Alpha  occ. eigenvalues --   -0.55042  -0.52289  -0.51175  -0.48822  -0.48091
 Alpha  occ. eigenvalues --   -0.47828  -0.46559  -0.45374  -0.44889  -0.44350
 Alpha  occ. eigenvalues --   -0.43114  -0.42733  -0.42457  -0.41934  -0.40552
 Alpha  occ. eigenvalues --   -0.39626  -0.39097  -0.38231  -0.37613  -0.37431
 Alpha  occ. eigenvalues --   -0.36844  -0.36255  -0.35786  -0.35112  -0.34497
 Alpha  occ. eigenvalues --   -0.33843  -0.33088  -0.32581  -0.31650  -0.31325
 Alpha  occ. eigenvalues --   -0.31254  -0.30539  -0.30270  -0.26445  -0.24283
 Alpha  occ. eigenvalues --   -0.22960  -0.19493
 Alpha virt. eigenvalues --    0.00138   0.00664   0.07706   0.08650   0.09855
 Alpha virt. eigenvalues --    0.10425   0.11191   0.12341   0.12986   0.13687
 Alpha virt. eigenvalues --    0.14102   0.14432   0.14747   0.15392   0.15524

 Mulliken charges:
               1
     1  C   -0.218549
     2  O   -0.530766
     3  C    0.291986
     4  C   -0.156397
     5  C   -0.140325
     6  C   -0.129384
     7  C   -0.211030
     8  C    0.154855
     9  C   -0.053192
    10  C   -0.275535
    11  C   -0.068607
    12  C   -0.441654
    13  C   -0.451866
    14  N   -0.411331
    15  C   -0.130004
    16  C   -0.258406
    17  C   -0.254145
    18  C   -0.295179
    19  C   -0.104710
    20  H    0.153825
    21  H    0.172724
    22  H    0.135904
    23  H    0.131277
    24  H    0.128947
    25  H    0.125598
    26  H    0.128803
    27  H    0.154015
    28  H    0.128935
    29  H    0.129869
    30  H    0.134067
    31  H    0.136833
    32  H    0.135904
    33  H    0.139405
    34  H    0.134540
    35  H    0.139626
    36  H    0.157695
    37  H    0.145276
    38  H    0.112505
    39  H    0.125962
    40  H    0.137391
    41  H    0.140784
    42  H    0.130268
    43  H    0.137049
    44  H    0.135969
    45  H    0.114175
    46  H    0.136893
 Sum of Mulliken charges =  -0.00000

 Dipole moment (field-independent basis, Debye):
    X=              0.9702    Y=             -0.5556    Z=              0.1327  Tot=              1.1259
 Quadrupole moment (field-independent basis, Debye-Ang):
   XX=           -117.7029   YY=           -114.6196   ZZ=           -112.7359
   XY=              3.2927   XZ=             -2.5426   YZ=              1.1670

 Normal termination of Gaussian 16 at Sat Nov  5 11:31:58 2022.
