 Gaussian 16, Revision B.01,
 Gaussian 16:  ES64L-G16RevB.01 20-Dec-2017

 -----------------------------
 #p b3lyp/6-31g(d) opt SCF=XQC
 -----------------------------

 ------------------------------
 Gaussian input prepared by ASE
 ------------------------------
 Symbolic Z-matrix:
 Charge =  0 Multiplicity = 1

 SCF Done:  E(RB3LYP) =  -794.015617635     A.U. after   14 cycles
 SCF Done:  E(RB3LYP) =  -794.020080069     A.U. after   12 cycles
 SCF Done:  E(RB3LYP) =  -794.020845310     A.U. after   11 cycles
 SCF Done:  E(RB3LYP) =  -794.020994933     A.U. after   10 cycles
 SCF Done:  E(RB3LYP) =  -794.021077798     A.U. after   11 cycles
 SCF Done:  E(RB3LYP) =  -794.021122421     A.U. after   10 cycles
 SCF Done:  E(RB3LYP) =  -794.021169983     A.U. after   10 cycles
 SCF Done:  E(RB3LYP) =  -794.021191483     A.U. after   10 cycles
 SCF Done:  E(RB3LYP) =  -794.021199439     A.U. after    9 cycles
 SCF Done:  E(RB3LYP) =  -794.021213006     A.U. after    9 cycles
 SCF Done:  E(RB3LYP) =  -794.022998118     A.U. after   12 cycles
 SCF Done:  E(RB3LYP) =  -794.021490014     A.U. after   13 cycles
 SCF Done:  E(RB3LYP) =  -794.022315540     A.U. after   12 cycles
 SCF Done:  E(RB3LYP) =  -794.023289005     A.U. after   12 cycles
 SCF Done:  E(RB3LYP) =  -794.021914100     A.U. after   12 cycles
 SCF Done:  E(RB3LYP) =  -794.023885725     A.U. after   11 cycles
 SCF Done:  E(RB3LYP) =  -794.023939166     A.U. after   10 cycles
 SCF Done:  E(RB3LYP) =  -794.023946968     A.U. after    9 cycles
 SCF Done:  E(RB3LYP) =  -794.023947772     A.U. after    8 cycles
 SCF Done:  E(RB3LYP) =  -794.023947872     A.U. after    6 cycles
 Optimization completed.
    -- Stationary point found.

                         Standard orientation:
 ---------------------------------------------------------------------
 Center     Atomic      Atomic             Coordinates (Angstroms)
 Number     Number       Type             X           Y           Z
 ---------------------------------------------------------------------
      1          6           0       -0.897079   -2.390412    1.990321
      2          8           0        0.362712   -1.722861    1.892732
      3          6           0        0.950414   -1.790791    0.643966
      4          6           0        1.632712   -2.953245    0.278780
      5          6           0        2.274049   -3.031479   -0.956908
      6          6           0        2.239444   -1.937085   -1.819854
      7          6           0        1.567052   -0.773477   -1.439718
      8          6           0        0.902485   -0.671667   -0.209917
      9          6           0        0.134498    0.573825    0.231383
     10          6           0        0.728321    1.901617   -0.297013
     11          6           0        2.160399    2.238079    0.172271
     12          6           0        2.654223    3.517427   -0.521006
     13          6           0        2.262451    2.380551    1.699195
     14          7           0       -1.310226    0.402064   -0.047502
     15          6           0       -1.725191    0.468966   -1.447585
     16          6           0       -3.073102   -0.264776   -1.625935
     17          6           0       -3.963370   -0.120050   -0.370440
     18          6           0       -3.636897    1.187572    0.357856
     19          6           0       -2.169723    1.200293    0.836561
     20          1           0       -1.240275   -2.251146    3.018633
     21          1           0       -1.616615   -1.950662    1.290512
     22          1           0       -0.796070   -3.465402    1.787680
     23          1           0        1.664838   -3.782160    0.980401
     24          1           0        2.805350   -3.937338   -1.236618
     25          1           0        2.740537   -1.981365   -2.782995
     26          1           0        1.567446    0.075425   -2.117276
     27          1           0        0.193670    0.591202    1.323413
     28          1           0        0.703863    1.911837   -1.394693
     29          1           0        0.064833    2.718829    0.018956
     30          1           0        2.822421    1.415700   -0.132092
     31          1           0        2.029927    4.378842   -0.248708
     32          1           0        2.625539    3.418977   -1.613085
     33          1           0        3.685972    3.751846   -0.232862
     34          1           0        1.580471    3.158875    2.067567
     35          1           0        3.279271    2.665740    1.994227
     36          1           0        2.021022    1.447988    2.220048
     37          1           0       -0.959691   -0.013098   -2.062089
     38          1           0       -1.810341    1.510774   -1.811433
     39          1           0       -3.585009    0.143958   -2.506844
     40          1           0       -2.891830   -1.326655   -1.828393
     41          1           0       -3.788235   -0.962052    0.310379
     42          1           0       -5.024460   -0.155271   -0.644979
     43          1           0       -3.814741    2.030375   -0.323260
     44          1           0       -4.299957    1.342056    1.217316
     45          1           0       -1.833002    2.250520    0.920458
     46          1           0       -2.099159    0.768552    1.844656
 ---------------------------------------------------------------------

 The electronic state is 1-A.
 Alpha  occ. eigenvalues --  -19.15397 -14.31389 -10.23332 -10.22455 -10.20781
 Alpha  occ. eigenvalues --  -10.20051 -10.19734 -10.18738 -10.18687 -10.18521
 Alpha  occ. eigenvalues --  -10.18349 -10.18271 -10.18172 -10.17867 -10.17578
 Alpha  occ. eigenvalues --  -10.17384 -10.17223 -10.16772 -10.16564  -1.03971
 Alpha  occ. eigenvalues --   -0.91454  -0.84552  -0.80557  -0.78269  -0.75147
 Alpha  occ. eigenvalues --   -0.74159  -0.73978  -0.70361  -0.67730  -0.67497
 Alpha  occ. eigenvalues --   -0.65079  -0.62052  -0.61365  -0.58652  -0.57353
 Alpha  occ. eigenvalues --   -0.55042  -0.52289  -0.51175  -0.48822  -0.48091
 Alpha  occ. eigenvalues --   -0.47828  -0.46559  -0.45374  -0.44889  -0.44350
 Alpha  occ. eigenvalues --   -0.43114  -0.42733  -0.42457  -0.41934  -0.40552
 Alpha  occ. eigenvalues --   -0.39626  -0.39097  -0.38231  -0.37613  -0.37431
 Alpha  occ. eigenvalues --   -0.36844  -0.36255  -0.35786  -0.35112  -0.34497
 Alpha  occ. eigenvalues --   -0.33843  -0.33088  -0.32581  -0.31650  -0.31325
 Alpha  occ. eigenvalues --   -0.31254  -0.30539  -0.30270  -0.26445  -0.24283
 Alpha  occ. eigenvalues --   -0.22960  -0.19493
 Alpha virt. eigenvalues --    0.00138   0.00664   0.07706   0.08650   0.09855
 Alpha virt. eigenvalues --    0.10425   0.11191   0.12341   0.12986   0.13687
 Alpha virt. eigenvalues --    0.14102   0.14432   0.14747   0.15392   0.15524

 Mulliken charges:
               1
     1  C   -0.218541
     2  O   -0.530769
     3  C    0.291966
     4  C   -0.156387
     5  C   -0.140323
     6  C   -0.129393
     7  C   -0.211023
     8  C    0.154878
     9  C   -0.053199
    10  C   -0.275547
    11  C   -0.068592
    12  C   -0.441667
    13  C   -0.451874
    14  N   -0.411321
    15  C   -0.130006
    16  C   -0.258391
    17  C   -0.254139
    18  C   -0.295205
    19  C   -0.104707
    20  H    0.153824
    21  H    0.172725
    22  H    0.135902
    23  H    0.131275
    24  H    0.128947
    25  H    0.125598
    26  H    0.128803
    27  H    0.154012
    28  H    0.128935
    29  H    0.129871
    30  H    0.134067
    31  H    0.136835
    32  H    0.135907
    33  H    0.139407
    34  H    0.134545
    35  H    0.139626
    36  H    0.157693
    37  H    0.145275
    38  H    0.112504
    39  H    0.125960
    40  H    0.137387
    41  H    0.140780
    42  H    0.130267
    43  H    0.137054
    44  H    0.135973
    45  H    0.114173
    46  H    0.136892
 Sum of Mulliken charges =  -0.00000

 Dipole moment (field-independent basis, Debye):
    X=             -0.9360    Y=             -0.1489    Z=             -0.6077  Tot=              1.1258
 Quadrupole moment (field-independent basis, Debye-Ang):
   XX=           -115.8543   YY=           -112.8331   ZZ=           -116.2348
   XY=             -1.0029   XZ=             -4.4164   YZ=             -0.7214

 Normal termination of Gaussian 16 at Fri Nov  4 19:30:05 2022.
