 Gaussian 16, Revision B.01,
 Gaussian 16:  ES64L-G16RevB.01 20-Dec-2017

 -----------------------------
 #p b3lyp/6-31g(d) opt SCF=XQC
 -----------------------------

 ------------------------------
 Gaussian input prepared by ASE
 ------------------------------
 Symbolic Z-matrix:
 Charge =  0 Multiplicity = 1

 SCF Done:  E(RB3LYP) =  -1289.78126068     A.U. after   15 cycles
 SCF Done:  E(RB3LYP) =  -1289.77785806     A.U. after   14 cycles
 SCF Done:  E(RB3LYP) =  -1289.78554986     A.U. after   13 cycles
 SCF Done:  E(RB3LYP) =  -1289.78645953     A.U. after   13 cycles
 SCF Done:  E(RB3LYP) =  -1289.78747068     A.U. after   13 cycles
 SCF Done:  E(RB3LYP) =  -1289.78869216     A.U. after   12 cycles
 SCF Done:  E(RB3LYP) =  -1289.78874038     A.U. after   12 cycles
 SCF Done:  E(RB3LYP) =  -1289.78896348     A.U. after   12 cycles
 SCF Done:  E(RB3LYP) =  -1289.78900252     A.U. after   11 cycles
 SCF Done:  E(RB3LYP) =  -1289.78911802     A.U. after   10 cycles
 SCF Done:  E(RB3LYP) =  -1289.78920351     A.U. after   11 cycles
 SCF Done:  E(RB3LYP) =  -1289.78922463     A.U. after   10 cycles
 SCF Done:  E(RB3LYP) =  -1289.78924108     A.U. after   12 cycles
 SCF Done:  E(RB3LYP) =  -1289.78925305     A.U. after   11 cycles
 SCF Done:  E(RB3LYP) =  -1289.78925727     A.U. after   10 cycles
 SCF Done:  E(RB3LYP) =  -1289.78925899     A.U. after   10 cycles
 SCF Done:  E(RB3LYP) =  -1289.78926076     A.U. after    9 cycles
 SCF Done:  E(RB3LYP) =  -1289.78926130     A.U. after    8 cycles
 SCF Done:  E(RB3LYP) =  -1289.78926153     A.U. after    8 cycles
 SCF Done:  E(RB3LYP) =  -1289.78926166     A.U. after    7 cycles
 Optimization completed.
    -- Stationary point found.

                         Standard orientation:
 ---------------------------------------------------------------------
 Center     Atomic      Atomic             Coordinates (Angstroms)
 Number     Number       Type             X           Y           Z
 ---------------------------------------------------------------------
      1          6           0        3.613860    1.761088   -0.528608
      2          6           0        2.553952    1.046120   -1.383576
      3          6           0        1.561886    0.214608   -0.581935
      4          6           0        1.972093   -0.885362    0.206606
      5          6           0        1.216916   -1.210094    1.473047
      6          8           0        0.307322   -0.515929    1.895879
      7          8           0        1.604841   -2.281739    2.173068
      8          6           0        3.160879   -1.674820   -0.085615
      9          8           0        3.590286   -2.605835    0.610103
     10          8           0        3.821385   -1.415739   -1.246880
     11          7           0        0.257271    0.600520   -0.669382
     12          6           0       -0.858906   -0.278813   -0.531595
     13          6           0       -0.825114   -1.604905   -0.982377
     14          6           0       -1.947616   -2.418660   -0.900711
     15          6           0       -3.130351   -1.891238   -0.391164
     16          9           0       -4.235595   -2.649529   -0.304648
     17          6           0       -3.196936   -0.567632    0.016623
     18          9           0       -4.351057   -0.059844    0.472761
     19          6           0       -2.067331    0.258097   -0.056011
     20          8           0       -2.249753    1.552655    0.296759
     21          6           0       -1.116012    2.439757    0.226121
     22          6           0       -0.489862    2.595901    1.615743
     23          6           0        0.432496    3.815005    1.736567
     24          6           0       -0.153366    2.011340   -0.901752
     25          6           0       -0.755041    2.210268   -2.299016
     26          1           0        3.158547    2.458198    0.183731
     27          1           0        4.211168    1.044638    0.040639
     28          1           0        4.291166    2.330398   -1.173935
     29          1           0        3.057877    0.371056   -2.076517
     30          1           0        2.023880    1.767984   -2.006402
     31          1           0        2.409026   -2.675530    1.744792
     32          1           0        4.546480   -2.068371   -1.262860
     33          1           0        0.097156   -2.005497   -1.384562
     34          1           0       -1.926346   -3.450127   -1.233453
     35          1           0       -1.552989    3.400031   -0.074851
     36          1           0       -1.325382    2.704842    2.317131
     37          1           0        0.028208    1.672156    1.889306
     38          1           0       -0.085244    4.744651    1.467301
     39          1           0        1.323301    3.735944    1.101203
     40          1           0        0.785270    3.920170    2.767480
     41          1           0        0.731786    2.636333   -0.794912
     42          1           0       -1.669903    1.626602   -2.431268
     43          1           0       -0.044801    1.909527   -3.075742
     44          1           0       -1.002155    3.266455   -2.449939
 ---------------------------------------------------------------------

 The electronic state is 1-A.
 Alpha  occ. eigenvalues --  -24.71230 -24.71172 -19.20641 -19.19464 -19.15394
 Alpha  occ. eigenvalues --  -19.14887 -19.10630 -14.41447 -10.33433 -10.30283
 Alpha  occ. eigenvalues --  -10.28476 -10.28048 -10.27807 -10.27003 -10.26511
 Alpha  occ. eigenvalues --  -10.26111 -10.24699 -10.21297 -10.20842 -10.20841
 Alpha  occ. eigenvalues --  -10.20590 -10.20321 -10.19909 -10.18921 -10.18476
 Alpha  occ. eigenvalues --   -1.23130  -1.21771  -1.11835  -1.08735  -1.07165
 Alpha  occ. eigenvalues --   -1.01886  -0.99912  -0.98192  -0.87592  -0.84053
 Alpha  occ. eigenvalues --   -0.81322  -0.78373  -0.76700  -0.76077  -0.75411
 Alpha  occ. eigenvalues --   -0.70766  -0.68098  -0.66917  -0.64619  -0.63284
 Alpha  occ. eigenvalues --   -0.62618  -0.60623  -0.58856  -0.57710  -0.56727
 Alpha  occ. eigenvalues --   -0.55417  -0.52634  -0.52443  -0.51673  -0.50957
 Alpha  occ. eigenvalues --   -0.49890  -0.48968  -0.48622  -0.47680  -0.47416
 Alpha  occ. eigenvalues --   -0.46614  -0.46168  -0.45232  -0.44744  -0.44534
 Alpha  occ. eigenvalues --   -0.44018  -0.42822  -0.42298  -0.42181  -0.41754
 Alpha  occ. eigenvalues --   -0.41394  -0.41101  -0.40348  -0.40153  -0.39317
 Alpha  occ. eigenvalues --   -0.39166  -0.38407  -0.37967  -0.36729  -0.36381
 Alpha  occ. eigenvalues --   -0.36286  -0.35670  -0.35156  -0.33479  -0.32952
 Alpha  occ. eigenvalues --   -0.32414  -0.32170  -0.28904  -0.28810  -0.25966
 Alpha  occ. eigenvalues --   -0.24833  -0.23196  -0.21747
 Alpha virt. eigenvalues --   -0.07269  -0.00841   0.00773   0.01786   0.05104
 Alpha virt. eigenvalues --    0.05489   0.06876   0.07962   0.09135   0.09641
 Alpha virt. eigenvalues --    0.11598   0.12399   0.12699   0.13274   0.13527

 Mulliken charges:
               1
     1  C   -0.452049
     2  C   -0.365159
     3  C    0.313680
     4  C   -0.154662
     5  C    0.595121
     6  O   -0.498174
     7  O   -0.599110
     8  C    0.577954
     9  O   -0.556731
    10  O   -0.602108
    11  N   -0.505699
    12  C    0.317081
    13  C   -0.159362
    14  C   -0.213930
    15  C    0.332053
    16  F   -0.282896
    17  C    0.246351
    18  F   -0.271792
    19  C    0.289029
    20  O   -0.538096
    21  C    0.146420
    22  C   -0.296557
    23  C   -0.472149
    24  C   -0.058015
    25  C   -0.450667
    26  H    0.160380
    27  H    0.169950
    28  H    0.154941
    29  H    0.210588
    30  H    0.155323
    31  H    0.443221
    32  H    0.415533
    33  H    0.151020
    34  H    0.156239
    35  H    0.144443
    36  H    0.160277
    37  H    0.211977
    38  H    0.143701
    39  H    0.144091
    40  H    0.164911
    41  H    0.170574
    42  H    0.180743
    43  H    0.161526
    44  H    0.160029
 Sum of Mulliken charges =  -0.00000

 Dipole moment (field-independent basis, Debye):
    X=              3.6404    Y=              4.0713    Z=             -5.7496  Tot=              7.9301
 Quadrupole moment (field-independent basis, Debye-Ang):
   XX=           -147.2039   YY=           -135.0122   ZZ=           -147.6086
   XY=              0.3121   XZ=             -5.1707   YZ=              6.7503

 Normal termination of Gaussian 16 at Fri Nov  4 18:59:20 2022.
