 Gaussian 16, Revision B.01,
 Gaussian 16:  ES64L-G16RevB.01 20-Dec-2017

 -------------------------------------------------------------------
 #p b3lyp/6-31g(d) 6D 10F nosymm GFInput td=(50-50,nstate=2) SCF=XQC
 -------------------------------------------------------------------

 ------------------------------
 Gaussian input prepared by ASE
 ------------------------------
 Symbolic Z-matrix:
 Charge =  0 Multiplicity = 1

                          Input orientation:
 ---------------------------------------------------------------------
 Center     Atomic      Atomic             Coordinates (Angstroms)
 Number     Number       Type             X           Y           Z
 ---------------------------------------------------------------------
      1          6           0        2.614708    0.016503   -2.233432
      2          6           0        1.882960   -1.002384   -1.343505
      3          6           0        1.223417   -0.396192   -0.112339
      4          6           0        1.972676    0.259469    0.892012
      5          6           0        1.351777    1.411834    1.644446
      6          8           0        0.250679    1.861076    1.372821
      7          8           0        2.072046    1.982398    2.616356
      8          6           0        3.366149   -0.054125    1.177909
      9          8           0        4.076928    0.534620    2.004576
     10          8           0        3.918837   -1.118416    0.534676
     11          7           0       -0.132322   -0.521774   -0.043111
     12          6           0       -0.879159   -0.586783    1.171826
     13          6           0       -0.381479   -1.213395    2.321842
     14          6           0       -1.155796   -1.325204    3.469365
     15          6           0       -2.457371   -0.832809    3.458267
     16          9           0       -3.234714   -0.930915    4.549215
     17          6           0       -2.984147   -0.251340    2.315001
     18          9           0       -4.251077    0.187610    2.304205
     19          6           0       -2.207466   -0.128447    1.155356
     20          8           0       -2.831879    0.386424    0.069713
     21          6           0       -2.072523    0.520086   -1.147999
     22          6           0       -1.565319    1.958871   -1.289894
     23          6           0       -1.122496    2.312644   -2.714784
     24          6           0       -0.999820   -0.585012   -1.249959
     25          6           0       -1.606369   -1.980412   -1.447153
     26          1           0        1.933384    0.784397   -2.616620
     27          1           0        3.411470    0.521971   -1.682258
     28          1           0        3.066308   -0.493967   -3.090626
     29          1           0        2.601932   -1.744610   -0.994218
     30          1           0        1.148454   -1.555253   -1.930712
     31          1           0        2.970730    1.561908    2.643917
     32          1           0        4.824692   -1.173118    0.892978
     33          1           0        0.629869   -1.600668    2.319831
     34          1           0       -0.773736   -1.795286    4.368335
     35          1           0       -2.808040    0.324790   -1.938273
     36          1           0       -2.400387    2.607452   -1.000218
     37          1           0       -0.765775    2.137914   -0.565180
     38          1           0       -1.923848    2.138688   -3.444424
     39          1           0       -0.247113    1.737350   -3.040686
     40          1           0       -0.847405    3.370614   -2.772369
     41          1           0       -0.386744   -0.330008   -2.112882
     42          1           0       -2.261094   -2.256902   -0.616480
     43          1           0       -0.821281   -2.738884   -1.528062
     44          1           0       -2.199657   -2.000714   -2.367464
 ---------------------------------------------------------------------

 SCF Done:  E(RB3LYP) =  -1289.78926269     A.U. after   15 cycles

 Excitation energies and oscillator strengths:

 Excited state symmetry could not be determined.
 Excited State   1:      Triplet-?Sym    2.4469 eV  506.69 nm  f=0.0000  <S**2>=2.000
      92 -> 94         0.17151
      93 -> 94         0.66425
 This state for optimization and/or second-order correction.
 Total Energy, E(TD-HF/TD-DFT) =  -1289.69933940
 Copying the excited state density for this state as the 1-particle RhoCI density.

 Excited state symmetry could not be determined.
 Excited State   2:      Triplet-?Sym    3.2340 eV  383.38 nm  f=0.0000  <S**2>=2.000
      90 -> 94        -0.30907
      91 -> 94         0.28894
      92 -> 94         0.48699
      93 -> 94        -0.19809
      93 -> 96         0.12688

 Excited state symmetry could not be determined.
 Excited State   3:      Singlet-?Sym    3.4504 eV  359.33 nm  f=0.2380  <S**2>=0.000
      93 -> 94         0.69831

 Excited state symmetry could not be determined.
 Excited State   4:      Singlet-?Sym    3.6377 eV  340.83 nm  f=0.0061  <S**2>=0.000
      90 -> 94         0.10608
      91 -> 94         0.24607
      92 -> 94         0.64691

 Alpha  occ. eigenvalues --  -24.71230 -24.71172 -19.20641 -19.19464 -19.15394
 Alpha  occ. eigenvalues --  -19.14887 -19.10630 -14.41447 -10.33433 -10.30283
 Alpha  occ. eigenvalues --  -10.28476 -10.28048 -10.27807 -10.27003 -10.26511
 Alpha  occ. eigenvalues --  -10.26111 -10.24699 -10.21296 -10.20842 -10.20841
 Alpha  occ. eigenvalues --  -10.20590 -10.20321 -10.19909 -10.18921 -10.18476
 Alpha  occ. eigenvalues --   -1.23130  -1.21771  -1.11835  -1.08735  -1.07164
 Alpha  occ. eigenvalues --   -1.01886  -0.99912  -0.98192  -0.87592  -0.84053
 Alpha  occ. eigenvalues --   -0.81322  -0.78373  -0.76700  -0.76077  -0.75411
 Alpha  occ. eigenvalues --   -0.70766  -0.68098  -0.66917  -0.64619  -0.63284
 Alpha  occ. eigenvalues --   -0.62618  -0.60623  -0.58856  -0.57710  -0.56727
 Alpha  occ. eigenvalues --   -0.55417  -0.52634  -0.52443  -0.51673  -0.50957
 Alpha  occ. eigenvalues --   -0.49890  -0.48968  -0.48622  -0.47680  -0.47416
 Alpha  occ. eigenvalues --   -0.46614  -0.46168  -0.45232  -0.44744  -0.44534
 Alpha  occ. eigenvalues --   -0.44018  -0.42822  -0.42298  -0.42181  -0.41754
 Alpha  occ. eigenvalues --   -0.41394  -0.41101  -0.40348  -0.40153  -0.39317
 Alpha  occ. eigenvalues --   -0.39166  -0.38407  -0.37967  -0.36729  -0.36381
 Alpha  occ. eigenvalues --   -0.36286  -0.35670  -0.35156  -0.33479  -0.32952
 Alpha  occ. eigenvalues --   -0.32414  -0.32170  -0.28904  -0.28810  -0.25966
 Alpha  occ. eigenvalues --   -0.24833  -0.23196  -0.21747
 Alpha virt. eigenvalues --   -0.07269  -0.00841   0.00773   0.01786   0.05104
 Alpha virt. eigenvalues --    0.05489   0.06876   0.07962   0.09135   0.09641
 Alpha virt. eigenvalues --    0.11598   0.12399   0.12699   0.13274   0.13527

 Mulliken charges:
               1
     1  C   -0.452054
     2  C   -0.365144
     3  C    0.313663
     4  C   -0.154637
     5  C    0.595108
     6  O   -0.498168
     7  O   -0.599112
     8  C    0.577929
     9  O   -0.556727
    10  O   -0.602111
    11  N   -0.505680
    12  C    0.317096
    13  C   -0.159388
    14  C   -0.213928
    15  C    0.332046
    16  F   -0.282896
    17  C    0.246359
    18  F   -0.271794
    19  C    0.289040
    20  O   -0.538090
    21  C    0.146407
    22  C   -0.296557
    23  C   -0.472150
    24  C   -0.058016
    25  C   -0.450672
    26  H    0.160379
    27  H    0.169952
    28  H    0.154940
    29  H    0.210586
    30  H    0.155319
    31  H    0.443222
    32  H    0.415534
    33  H    0.151026
    34  H    0.156239
    35  H    0.144445
    36  H    0.160278
    37  H    0.211974
    38  H    0.143702
    39  H    0.144092
    40  H    0.164912
    41  H    0.170577
    42  H    0.180742
    43  H    0.161527
    44  H    0.160029
 Sum of Mulliken charges =  -0.00000

 Dipole moment (field-independent basis, Debye):
    X=              2.1221    Y=             -4.8568    Z=             -5.8986  Tot=              7.9300
 Quadrupole moment (field-independent basis, Debye-Ang):
   XX=           -146.4429   YY=           -146.6054   ZZ=           -146.2213
   XY=             -6.6938   XZ=              5.2003   YZ=             -9.6881

 Normal termination of Gaussian 16 at Sat Nov  5 11:49:32 2022.
