 Gaussian 16, Revision B.01,
 Gaussian 16:  ES64L-G16RevB.01 20-Dec-2017

 -------------------------------------------------------------------
 #p b3lyp/6-31g(d) 6D 10F nosymm GFInput td=(50-50,nstate=2) SCF=XQC
 -------------------------------------------------------------------

 ------------------------------
 Gaussian input prepared by ASE
 ------------------------------
 Symbolic Z-matrix:
 Charge =  0 Multiplicity = 1

                          Input orientation:
 ---------------------------------------------------------------------
 Center     Atomic      Atomic             Coordinates (Angstroms)
 Number     Number       Type             X           Y           Z
 ---------------------------------------------------------------------
      1          7           0       -4.023559    2.588345    0.028497
      2          6           0       -4.698622    1.387967    0.010623
      3          8           0       -5.892015    1.335513   -0.257546
      4          6           0       -3.909628    0.155208    0.375073
      5          6           0       -4.617665   -0.795239    1.091076
      6          6           0       -4.000805   -1.969971    1.567011
      7          6           0       -2.668762   -2.197461    1.308501
      8          6           0       -1.911026   -1.277853    0.537867
      9          6           0       -0.546325   -1.535118    0.233454
     10          6           0        0.198126   -0.683324   -0.550973
     11          6           0        1.637296   -0.992460   -0.917657
     12          7           0        2.524756    0.147482   -0.706110
     13          6           0        3.828944    0.053948   -1.391789
     14          6           0        4.976750   -0.252325   -0.430120
     15          8           0        5.105537    0.748547    0.577736
     16          6           0        3.877277    1.389191    0.923122
     17          6           0        2.668804    0.485141    0.716300
     18          6           0       -0.429181    0.481700   -1.066080
     19          6           0       -1.743227    0.773360   -0.782880
     20          6           0       -2.532109   -0.079351    0.045176
     21          1           0       -3.159127    2.675964    0.544627
     22          1           0       -4.610283    3.411448   -0.024132
     23          1           0       -5.667443   -0.607727    1.291164
     24          1           0       -4.580486   -2.686407    2.142128
     25          1           0       -2.178338   -3.094528    1.679267
     26          1           0       -0.093660   -2.442439    0.629610
     27          1           0        1.679399   -1.247279   -1.984912
     28          1           0        1.962593   -1.894816   -0.361627
     29          1           0        4.043792    1.003333   -1.902266
     30          1           0        3.782161   -0.720050   -2.165831
     31          1           0        5.931689   -0.282865   -0.967149
     32          1           0        4.824985   -1.240353    0.034408
     33          1           0        3.958427    1.676223    1.976875
     34          1           0        3.750752    2.310009    0.332085
     35          1           0        1.761445    0.991351    1.067112
     36          1           0        2.792560   -0.419484    1.342834
     37          1           0        0.154327    1.149444   -1.693577
     38          1           0       -2.197356    1.654878   -1.220640
 ---------------------------------------------------------------------

 SCF Done:  E(RB3LYP) =  -880.484727965     A.U. after   15 cycles

 Excitation energies and oscillator strengths:

 Excited state symmetry could not be determined.
 Excited State   1:      Triplet-?Sym    2.6358 eV  470.39 nm  f=0.0000  <S**2>=2.000
      66 -> 75         0.11475
      70 -> 74        -0.14965
      71 -> 73         0.66805
      71 <- 73         0.10020
 This state for optimization and/or second-order correction.
 Total Energy, E(TD-HF/TD-DFT) =  -880.387865034
 Copying the excited state density for this state as the 1-particle RhoCI density.

 Excited state symmetry could not be determined.
 Excited State   2:      Triplet-?Sym    3.7205 eV  333.24 nm  f=0.0000  <S**2>=2.000
      70 -> 73         0.45999
      71 -> 74        -0.14487
      72 -> 73         0.48969

 Excited state symmetry could not be determined.
 Excited State   3:      Singlet-?Sym    3.8481 eV  322.19 nm  f=0.0094  <S**2>=0.000
      72 -> 73         0.69997

 Excited state symmetry could not be determined.
 Excited State   4:      Singlet-?Sym    4.1463 eV  299.02 nm  f=0.0790  <S**2>=0.000
      68 -> 73        -0.16192
      70 -> 73        -0.12102
      70 -> 74        -0.10993
      71 -> 73         0.65261

 Alpha  occ. eigenvalues --  -19.14285 -19.11095 -14.35670 -14.33192 -10.29042
 Alpha  occ. eigenvalues --  -10.23296 -10.23279 -10.22118 -10.21630 -10.21314
 Alpha  occ. eigenvalues --  -10.20967 -10.20469 -10.20385 -10.20050 -10.19891
 Alpha  occ. eigenvalues --  -10.19585 -10.19526 -10.19509 -10.19338 -10.19253
 Alpha  occ. eigenvalues --   -1.03000  -1.02874  -0.92522  -0.90322  -0.87677
 Alpha  occ. eigenvalues --   -0.82925  -0.78219  -0.77205  -0.76352  -0.73376
 Alpha  occ. eigenvalues --   -0.71246  -0.66363  -0.65183  -0.64260  -0.62000
 Alpha  occ. eigenvalues --   -0.60066  -0.57499  -0.54653  -0.53860  -0.51945
 Alpha  occ. eigenvalues --   -0.51432  -0.50906  -0.49716  -0.49094  -0.48281
 Alpha  occ. eigenvalues --   -0.45927  -0.44538  -0.43379  -0.43155  -0.42712
 Alpha  occ. eigenvalues --   -0.42091  -0.41104  -0.40791  -0.40572  -0.40403
 Alpha  occ. eigenvalues --   -0.39130  -0.38890  -0.38091  -0.37933  -0.36877
 Alpha  occ. eigenvalues --   -0.36239  -0.33864  -0.33721  -0.32355  -0.30283
 Alpha  occ. eigenvalues --   -0.28861  -0.27034  -0.25019  -0.24850  -0.24543
 Alpha  occ. eigenvalues --   -0.21978  -0.21458
 Alpha virt. eigenvalues --   -0.05178  -0.01711   0.00431   0.05345   0.07753
 Alpha virt. eigenvalues --    0.08474   0.09515   0.09983   0.11111   0.11894
 Alpha virt. eigenvalues --    0.12313   0.12546   0.13528   0.13706   0.14068

 Mulliken charges:
               1
     1  N   -0.746183
     2  C    0.506666
     3  O   -0.495600
     4  C    0.011947
     5  C   -0.168851
     6  C   -0.138750
     7  C   -0.181367
     8  C    0.139031
     9  C   -0.272397
    10  C    0.160738
    11  C   -0.208434
    12  N   -0.395788
    13  C   -0.158030
    14  C   -0.019951
    15  O   -0.487244
    16  C   -0.030673
    17  C   -0.146721
    18  C   -0.169322
    19  C   -0.220633
    20  C    0.086294
    21  H    0.336689
    22  H    0.340109
    23  H    0.162480
    24  H    0.137059
    25  H    0.133881
    26  H    0.126370
    27  H    0.155423
    28  H    0.121003
    29  H    0.153187
    30  H    0.140635
    31  H    0.143780
    32  H    0.126768
    33  H    0.146572
    34  H    0.134944
    35  H    0.152429
    36  H    0.124435
    37  H    0.140823
    38  H    0.158682
 Sum of Mulliken charges =  -0.00000

 Dipole moment (field-independent basis, Debye):
    X=              2.6332    Y=             -0.1621    Z=              0.9325  Tot=              2.7981
 Quadrupole moment (field-independent basis, Debye-Ang):
   XX=           -149.2630   YY=           -103.1960   ZZ=           -114.3615
   XY=             -4.2389   XZ=            -14.1552   YZ=              0.0621

 Normal termination of Gaussian 16 at Sat Nov  5 11:30:18 2022.
