 Gaussian 16, Revision B.01,
 Gaussian 16:  ES64L-G16RevB.01 20-Dec-2017

 -----------------------------
 #p b3lyp/6-31g(d) opt SCF=XQC
 -----------------------------

 ------------------------------
 Gaussian input prepared by ASE
 ------------------------------
 Symbolic Z-matrix:
 Charge =  0 Multiplicity = 1

 SCF Done:  E(RB3LYP) =  -880.479545868     A.U. after   15 cycles
 SCF Done:  E(RB3LYP) =  -880.483427820     A.U. after   12 cycles
 SCF Done:  E(RB3LYP) =  -880.483608914     A.U. after   13 cycles
 SCF Done:  E(RB3LYP) =  -880.484184525     A.U. after   12 cycles
 SCF Done:  E(RB3LYP) =  -880.484391600     A.U. after   11 cycles
 SCF Done:  E(RB3LYP) =  -880.484521580     A.U. after   12 cycles
 SCF Done:  E(RB3LYP) =  -880.484591201     A.U. after   11 cycles
 SCF Done:  E(RB3LYP) =  -880.484687451     A.U. after   11 cycles
 SCF Done:  E(RB3LYP) =  -880.484713511     A.U. after   11 cycles
 SCF Done:  E(RB3LYP) =  -880.484720246     A.U. after   10 cycles
 SCF Done:  E(RB3LYP) =  -880.484722219     A.U. after    8 cycles
 SCF Done:  E(RB3LYP) =  -880.484722531     A.U. after    8 cycles
 SCF Done:  E(RB3LYP) =  -880.484722995     A.U. after    8 cycles
 SCF Done:  E(RB3LYP) =  -880.484723114     A.U. after    7 cycles
 SCF Done:  E(RB3LYP) =  -880.484723181     A.U. after    7 cycles
 SCF Done:  E(RB3LYP) =  -880.484723202     A.U. after    7 cycles
 SCF Done:  E(RB3LYP) =  -880.484723200     A.U. after    7 cycles
 Optimization completed.
    -- Stationary point found.

                         Standard orientation:
 ---------------------------------------------------------------------
 Center     Atomic      Atomic             Coordinates (Angstroms)
 Number     Number       Type             X           Y           Z
 ---------------------------------------------------------------------
      1          7           0        3.571702   -2.525436    0.423212
      2          6           0        4.242521   -1.388210    0.031219
      3          8           0        5.413863   -1.432943   -0.322065
      4          6           0        3.480010   -0.088504    0.097316
      5          6           0        4.235972    1.008215    0.475542
      6          6           0        3.653121    2.279405    0.652702
      7          6           0        2.305870    2.452052    0.433555
      8          6           0        1.496430    1.370983   -0.002124
      9          6           0        0.113320    1.560328   -0.271226
     10          6           0       -0.683917    0.540469   -0.739614
     11          6           0       -2.145775    0.764060   -1.077562
     12          7           0       -3.014803   -0.258229   -0.501783
     13          6           0       -4.364386   -0.331624   -1.095965
     14          6           0       -5.441513    0.246740   -0.178707
     15          8           0       -5.497514   -0.438196    1.071026
     16          6           0       -4.247190   -0.982570    1.493738
     17          6           0       -3.057369   -0.191766    0.965113
     18          6           0       -0.093431   -0.732277   -0.957727
     19          6           0        1.237686   -0.959566   -0.696093
     20          6           0        2.082332    0.072276   -0.189140
     21          1           0        2.746096   -2.452830    1.001497
     22          1           0        4.154103   -3.342241    0.557938
     23          1           0        5.297486    0.863244    0.647009
     24          1           0        4.271320    3.114925    0.968622
     25          1           0        1.841985    3.425135    0.577194
     26          1           0       -0.311114    2.549516   -0.108621
     27          1           0       -2.263645    0.718363   -2.168322
     28          1           0       -2.431831    1.789807   -0.768937
     29          1           0       -4.613840   -1.380236   -1.311054
     30          1           0       -4.373377    0.200486   -2.053661
     31          1           0       -6.432126    0.146950   -0.636930
     32          1           0       -5.258278    1.321124   -0.013962
     33          1           0       -4.253185   -0.969279    2.588797
     34          1           0       -4.161867   -2.031985    1.170183
     35          1           0       -2.126900   -0.599466    1.378180
     36          1           0       -3.137399    0.851721    1.326965
     37          1           0       -0.719209   -1.535205   -1.336968
     38          1           0        1.660606   -1.935330   -0.905776
 ---------------------------------------------------------------------

 The electronic state is 1-A.
 Alpha  occ. eigenvalues --  -19.14285 -19.11095 -14.35670 -14.33191 -10.29042
 Alpha  occ. eigenvalues --  -10.23296 -10.23279 -10.22117 -10.21630 -10.21314
 Alpha  occ. eigenvalues --  -10.20967 -10.20469 -10.20385 -10.20050 -10.19891
 Alpha  occ. eigenvalues --  -10.19585 -10.19526 -10.19509 -10.19338 -10.19253
 Alpha  occ. eigenvalues --   -1.03000  -1.02874  -0.92522  -0.90322  -0.87677
 Alpha  occ. eigenvalues --   -0.82925  -0.78219  -0.77205  -0.76352  -0.73376
 Alpha  occ. eigenvalues --   -0.71246  -0.66363  -0.65183  -0.64260  -0.62000
 Alpha  occ. eigenvalues --   -0.60066  -0.57498  -0.54653  -0.53860  -0.51945
 Alpha  occ. eigenvalues --   -0.51432  -0.50906  -0.49716  -0.49094  -0.48281
 Alpha  occ. eigenvalues --   -0.45927  -0.44538  -0.43379  -0.43155  -0.42712
 Alpha  occ. eigenvalues --   -0.42091  -0.41104  -0.40791  -0.40572  -0.40403
 Alpha  occ. eigenvalues --   -0.39130  -0.38890  -0.38091  -0.37933  -0.36877
 Alpha  occ. eigenvalues --   -0.36239  -0.33864  -0.33721  -0.32355  -0.30284
 Alpha  occ. eigenvalues --   -0.28861  -0.27034  -0.25019  -0.24850  -0.24543
 Alpha  occ. eigenvalues --   -0.21978  -0.21458
 Alpha virt. eigenvalues --   -0.05178  -0.01711   0.00431   0.05345   0.07753
 Alpha virt. eigenvalues --    0.08474   0.09515   0.09983   0.11111   0.11894
 Alpha virt. eigenvalues --    0.12313   0.12546   0.13528   0.13706   0.14068

 Mulliken charges:
               1
     1  N   -0.746184
     2  C    0.506664
     3  O   -0.495599
     4  C    0.011955
     5  C   -0.168848
     6  C   -0.138754
     7  C   -0.181366
     8  C    0.139024
     9  C   -0.272396
    10  C    0.160760
    11  C   -0.208434
    12  N   -0.395795
    13  C   -0.158017
    14  C   -0.019953
    15  O   -0.487247
    16  C   -0.030675
    17  C   -0.146723
    18  C   -0.169332
    19  C   -0.220638
    20  C    0.086292
    21  H    0.336689
    22  H    0.340109
    23  H    0.162479
    24  H    0.137060
    25  H    0.133881
    26  H    0.126370
    27  H    0.155422
    28  H    0.121002
    29  H    0.153184
    30  H    0.140634
    31  H    0.143781
    32  H    0.126768
    33  H    0.146572
    34  H    0.134944
    35  H    0.152430
    36  H    0.124435
    37  H    0.140823
    38  H    0.158682
 Sum of Mulliken charges =  -0.00000

 Dipole moment (field-independent basis, Debye):
    X=             -2.5607    Y=              0.4590    Z=              1.0304  Tot=              2.7981
 Quadrupole moment (field-independent basis, Debye-Ang):
   XX=           -144.7915   YY=           -104.0421   ZZ=           -115.7496
   XY=              0.1138   XZ=             16.6568   YZ=             -3.2794

 Normal termination of Gaussian 16 at Fri Nov  4 18:39:55 2022.
