 Gaussian 16, Revision B.01,
 Gaussian 16:  ES64L-G16RevB.01 20-Dec-2017

 -----------------------------
 #p b3lyp/6-31g(d) opt SCF=XQC
 -----------------------------

 ------------------------------
 Gaussian input prepared by ASE
 ------------------------------
 Symbolic Z-matrix:
 Charge =  0 Multiplicity = 1

 SCF Done:  E(RB3LYP) =  -1511.73844171     A.U. after   14 cycles
 SCF Done:  E(RB3LYP) =  -1511.74376130     A.U. after   14 cycles
 SCF Done:  E(RB3LYP) =  -1511.74071798     A.U. after   15 cycles
 SCF Done:  E(RB3LYP) =  -1511.74847089     A.U. after   12 cycles
 SCF Done:  E(RB3LYP) =  -1511.75004840     A.U. after   12 cycles
 SCF Done:  E(RB3LYP) =  -1511.75066514     A.U. after   12 cycles
 SCF Done:  E(RB3LYP) =  -1511.75094798     A.U. after   12 cycles
 SCF Done:  E(RB3LYP) =  -1511.75126614     A.U. after   11 cycles
 SCF Done:  E(RB3LYP) =  -1511.75134364     A.U. after   11 cycles
 SCF Done:  E(RB3LYP) =  -1511.75145787     A.U. after   11 cycles
 SCF Done:  E(RB3LYP) =  -1511.75297905     A.U. after   11 cycles
 SCF Done:  E(RB3LYP) =  -1511.75297544     A.U. after   11 cycles
 SCF Done:  E(RB3LYP) =  -1511.75296934     A.U. after   11 cycles
 SCF Done:  E(RB3LYP) =  -1511.75298328     A.U. after   10 cycles
 SCF Done:  E(RB3LYP) =  -1511.75298537     A.U. after    9 cycles
 SCF Done:  E(RB3LYP) =  -1511.75298561     A.U. after   10 cycles
 SCF Done:  E(RB3LYP) =  -1511.75298648     A.U. after    9 cycles
 SCF Done:  E(RB3LYP) =  -1511.75298657     A.U. after    7 cycles
 SCF Done:  E(RB3LYP) =  -1511.75298660     A.U. after    7 cycles
 SCF Done:  E(RB3LYP) =  -1511.75298662     A.U. after    6 cycles
 Optimization completed.
    -- Stationary point found.

                         Standard orientation:
 ---------------------------------------------------------------------
 Center     Atomic      Atomic             Coordinates (Angstroms)
 Number     Number       Type             X           Y           Z
 ---------------------------------------------------------------------
      1          6           0        7.955393    1.282432   -0.219092
      2          6           0        7.058042    0.305085    0.537968
      3          7           0        5.916023   -0.107270   -0.270597
      4          6           0        4.699992   -0.396258    0.310103
      5          8           0        4.452972   -0.176352    1.495605
      6          7           0        3.784872   -0.971827   -0.562934
      7          6           0        2.380521   -1.096183   -0.165331
      8          6           0        1.789230   -2.387935   -0.765438
      9          6           0        0.360558   -2.673102   -0.350791
     10          6           0        0.020481   -2.905001    0.993416
     11          6           0       -1.288029   -3.172230    1.374482
     12          6           0       -2.303827   -3.230246    0.408843
     13          8           0       -3.561849   -3.488204    0.882466
     14          6           0       -4.609831   -3.659330   -0.059217
     15          6           0       -1.985616   -3.022045   -0.936801
     16          6           0       -0.664005   -2.735663   -1.296827
     17          6           0        1.625880    0.141962   -0.686818
     18          8           0        1.494431    0.293647   -1.905110
     19          7           0        1.177000    1.066659    0.198746
     20          6           0        1.335499    1.083087    1.665066
     21          6           0        1.233616    2.576831    1.996199
     22          6           0        0.218915    3.100042    0.968816
     23          6           0        0.531656    2.282838   -0.310896
     24          6           0       -0.743884    2.045996   -1.113333
     25          8           0       -1.123586    2.800019   -1.983547
     26          8           0       -1.424185    0.977733   -0.659551
     27          6           0       -2.707447    0.699114   -1.285009
     28          6           0       -3.842588    1.283540   -0.482510
     29          6           0       -4.300319    2.583667   -0.737354
     30          6           0       -5.342863    3.125500    0.015035
     31          6           0       -5.938159    2.374539    1.031132
     32          6           0       -5.485632    1.079969    1.294019
     33          6           0       -4.443008    0.538310    0.541007
     34          1           0        8.806077    1.578331    0.404725
     35          1           0        7.400665    2.183205   -0.501197
     36          1           0        8.359202    0.832061   -1.134751
     37          1           0        6.645744    0.765192    1.437969
     38          1           0        7.640804   -0.569983    0.864295
     39          1           0        6.127102   -0.566180   -1.147703
     40          1           0        3.897461   -0.750472   -1.547151
     41          1           0        2.374463   -1.154552    0.921377
     42          1           0        1.842870   -2.310485   -1.856453
     43          1           0        2.449737   -3.210224   -0.462405
     44          1           0        0.795224   -2.883524    1.757172
     45          1           0       -1.548684   -3.349070    2.413483
     46          1           0       -5.498414   -3.908722    0.523746
     47          1           0       -4.799643   -2.738919   -0.627470
     48          1           0       -4.392895   -4.477016   -0.759035
     49          1           0       -2.746823   -3.076496   -1.707319
     50          1           0       -0.431959   -2.557117   -2.343654
     51          1           0        2.297261    0.657181    1.955453
     52          1           0        0.524008    0.515467    2.140849
     53          1           0        0.923048    2.754379    3.030165
     54          1           0        2.209856    3.053329    1.848782
     55          1           0        0.289174    4.175037    0.785267
     56          1           0       -0.800984    2.881266    1.305258
     57          1           0        1.213694    2.816715   -0.979765
     58          1           0       -2.687620    1.094982   -2.301880
     59          1           0       -2.757629   -0.390130   -1.309189
     60          1           0       -3.827651    3.166405   -1.523065
     61          1           0       -5.692488    4.133296   -0.193527
     62          1           0       -6.752366    2.796114    1.614920
     63          1           0       -5.945041    0.491573    2.084047
     64          1           0       -4.089195   -0.468829    0.751634
 ---------------------------------------------------------------------

 The electronic state is 1-A.
 Alpha  occ. eigenvalues --  -19.18112 -19.17960 -19.12513 -19.10706 -19.10552
 Alpha  occ. eigenvalues --  -14.36009 -14.35465 -14.35273 -10.30880 -10.30487
 Alpha  occ. eigenvalues --  -10.27584 -10.24658 -10.24271 -10.23458 -10.22956
 Alpha  occ. eigenvalues --  -10.22686 -10.22029 -10.21576 -10.19531 -10.19346
 Alpha  occ. eigenvalues --  -10.19220 -10.18989 -10.18907 -10.18887 -10.18837
 Alpha  occ. eigenvalues --  -10.18836 -10.18815 -10.18774 -10.18723 -10.18685
 Alpha  occ. eigenvalues --  -10.18574 -10.18468 -10.18441  -1.08974  -1.06400
 Alpha  occ. eigenvalues --   -1.04088  -1.02516  -1.00347  -0.93797  -0.92853
 Alpha  occ. eigenvalues --   -0.90617  -0.85241  -0.85190  -0.79725  -0.78400
 Alpha  occ. eigenvalues --   -0.77547  -0.75825  -0.75020  -0.74674  -0.74167
 Alpha  occ. eigenvalues --   -0.73002  -0.69640  -0.69379  -0.65696  -0.64092
 Alpha  occ. eigenvalues --   -0.62175  -0.61032  -0.60426  -0.60270  -0.59493
 Alpha  occ. eigenvalues --   -0.58577  -0.57756  -0.56579  -0.55907  -0.54447
 Alpha  occ. eigenvalues --   -0.53205  -0.51093  -0.51010  -0.50384  -0.48958
 Alpha  occ. eigenvalues --   -0.47871  -0.47576  -0.47278  -0.46810  -0.46442
 Alpha  occ. eigenvalues --   -0.45729  -0.45589  -0.44874  -0.44722  -0.44273
 Alpha  occ. eigenvalues --   -0.43934  -0.42950  -0.42791  -0.42184  -0.41863
 Alpha  occ. eigenvalues --   -0.41799  -0.41549  -0.40961  -0.40806  -0.40498
 Alpha  occ. eigenvalues --   -0.39387  -0.39336  -0.39115  -0.38289  -0.37473
 Alpha  occ. eigenvalues --   -0.36938  -0.36788  -0.36320  -0.36140  -0.35652
 Alpha  occ. eigenvalues --   -0.35464  -0.34916  -0.34782  -0.34484  -0.34243
 Alpha  occ. eigenvalues --   -0.33855  -0.33758  -0.33191  -0.32427  -0.31174
 Alpha  occ. eigenvalues --   -0.28909  -0.27107  -0.26810  -0.26179  -0.24975
 Alpha  occ. eigenvalues --   -0.24946  -0.24817  -0.24552  -0.23408  -0.23264
 Alpha  occ. eigenvalues --   -0.21453
 Alpha virt. eigenvalues --   -0.00774  -0.00209   0.00092   0.01047   0.01946
 Alpha virt. eigenvalues --    0.02676   0.05529   0.07199   0.08075   0.08976
 Alpha virt. eigenvalues --    0.09280   0.10208   0.10653   0.11845   0.12058

 Mulliken charges:
               1
     1  C   -0.449977
     2  C   -0.117077
     3  N   -0.625324
     4  C    0.777435
     5  O   -0.545012
     6  N   -0.633044
     7  C   -0.055359
     8  C   -0.350623
     9  C    0.173027
    10  C   -0.192080
    11  C   -0.171015
    12  C    0.379763
    13  O   -0.515436
    14  C   -0.217434
    15  C   -0.205448
    16  C   -0.187516
    17  C    0.625999
    18  O   -0.557165
    19  N   -0.456773
    20  C   -0.153641
    21  C   -0.294494
    22  C   -0.317659
    23  C   -0.006831
    24  C    0.650667
    25  O   -0.493700
    26  O   -0.451591
    27  C   -0.150054
    28  C    0.142864
    29  C   -0.180062
    30  C   -0.131359
    31  C   -0.126950
    32  C   -0.132455
    33  C   -0.189544
    34  H    0.151808
    35  H    0.160561
    36  H    0.139529
    37  H    0.188123
    38  H    0.142963
    39  H    0.316839
    40  H    0.326510
    41  H    0.175524
    42  H    0.156622
    43  H    0.154622
    44  H    0.131311
    45  H    0.137832
    46  H    0.170261
    47  H    0.152200
    48  H    0.153847
    49  H    0.132721
    50  H    0.139700
    51  H    0.212057
    52  H    0.156189
    53  H    0.151254
    54  H    0.157032
    55  H    0.164115
    56  H    0.167068
    57  H    0.178132
    58  H    0.178911
    59  H    0.163070
    60  H    0.158730
    61  H    0.132035
    62  H    0.129666
    63  H    0.130493
    64  H    0.148143
 Sum of Mulliken charges =  -0.00000

 Dipole moment (field-independent basis, Debye):
    X=              0.5202    Y=             -1.2312    Z=              0.7634  Tot=              1.5393
 Quadrupole moment (field-independent basis, Debye-Ang):
   XX=           -155.4523   YY=           -188.9670   ZZ=           -196.6844
   XY=              4.6453   XZ=             -8.7634   YZ=             13.1626

 Normal termination of Gaussian 16 at Fri Nov  4 20:50:33 2022.
