 Gaussian 16, Revision B.01,
 Gaussian 16:  ES64L-G16RevB.01 20-Dec-2017

 -------------------------------------------------------------------
 #p b3lyp/6-31g(d) 6D 10F nosymm GFInput td=(50-50,nstate=2) SCF=XQC
 -------------------------------------------------------------------

 ------------------------------
 Gaussian input prepared by ASE
 ------------------------------
 Symbolic Z-matrix:
 Charge =  0 Multiplicity = 1

                          Input orientation:
 ---------------------------------------------------------------------
 Center     Atomic      Atomic             Coordinates (Angstroms)
 Number     Number       Type             X           Y           Z
 ---------------------------------------------------------------------
      1          6           0       -2.819255   -7.385595    0.754804
      2          6           0       -3.334412   -6.002084    1.147356
      3          7           0       -2.953774   -4.992283    0.165807
      4          6           0       -2.694816   -3.692865    0.545166
      5          8           0       -2.609420   -3.341271    1.721551
      6          7           0       -2.553830   -2.814959   -0.522692
      7          6           0       -2.026598   -1.468040   -0.291202
      8          6           0       -2.704050   -0.477728   -1.260076
      9          6           0       -2.303346    0.968832   -1.056959
     10          6           0       -2.581954    1.644261    0.144081
     11          6           0       -2.220293    2.972248    0.329750
     12          6           0       -1.574819    3.675639   -0.698002
     13          8           0       -1.248290    4.974776   -0.416753
     14          6           0       -0.686483    5.763659   -1.454228
     15          6           0       -1.304902    3.029807   -1.908542
     16          6           0       -1.660998    1.685890   -2.067823
     17          6           0       -0.504164   -1.505005   -0.526287
     18          8           0       -0.079516   -1.711743   -1.667100
     19          7           0        0.333748   -1.370876    0.532342
     20          6           0       -0.009763   -1.215411    1.958286
     21          6           0        1.237980   -1.759139    2.664542
     22          6           0        2.384515   -1.341268    1.731950
     23          6           0        1.780376   -1.489124    0.311933
     24          6           0        2.375046   -0.445390   -0.628273
     25          8           0        3.366569   -0.649432   -1.295541
     26          8           0        1.731338    0.732099   -0.533014
     27          6           0        2.261186    1.838163   -1.314981
     28          6           0        3.173639    2.704633   -0.483859
     29          6           0        4.548311    2.437816   -0.421569
     30          6           0        5.387708    3.234363    0.357850
     31          6           0        4.862217    4.305118    1.084565
     32          6           0        3.493328    4.575451    1.031042
     33          6           0        2.654155    3.778628    0.251077
     34          1           0       -3.116356   -8.128125    1.503634
     35          1           0       -1.727193   -7.387709    0.676738
     36          1           0       -3.228955   -7.709062   -0.210516
     37          1           0       -2.909266   -5.679071    2.099513
     38          1           0       -4.427295   -6.027072    1.277066
     39          1           0       -3.280898   -5.138162   -0.780859
     40          1           0       -2.237670   -3.216334   -1.399789
     41          1           0       -2.278428   -1.213601    0.736524
     42          1           0       -2.459286   -0.782887   -2.282894
     43          1           0       -3.787194   -0.599018   -1.132224
     44          1           0       -3.098608    1.124013    0.948084
     45          1           0       -2.434726    3.491296    1.258915
     46          1           0       -0.559499    6.763454   -1.034813
     47          1           0        0.292499    5.380148   -1.771415
     48          1           0       -1.352532    5.816827   -2.325417
     49          1           0       -0.821579    3.552465   -2.726667
     50          1           0       -1.429237    1.189045   -3.006441
     51          1           0       -0.908122   -1.783795    2.204445
     52          1           0       -0.169560   -0.154887    2.196681
     53          1           0        1.348360   -1.364027    3.678822
     54          1           0        1.175844   -2.851629    2.731094
     55          1           0        3.290000   -1.942175    1.847045
     56          1           0        2.650103   -0.293229    1.911749
     57          1           0        2.013476   -2.461980   -0.131692
     58          1           0        2.777347    1.428223   -2.184842
     59          1           0        1.372894    2.386054   -1.631696
     60          1           0        4.950161    1.598266   -0.981937
     61          1           0        6.452761    3.020831    0.395984
     62          1           0        5.517156    4.927169    1.689194
     63          1           0        3.079214    5.407131    1.595161
     64          1           0        1.587155    3.988673    0.215452
 ---------------------------------------------------------------------

 SCF Done:  E(RB3LYP) =  -1511.75298261     A.U. after   14 cycles

 Excitation energies and oscillator strengths:

 Excited state symmetry could not be determined.
 Excited State   1:      Triplet-?Sym    3.6917 eV  335.84 nm  f=0.0000  <S**2>=2.000
     115 ->123        -0.10541
     116 ->123         0.36880
     116 ->124         0.11352
     121 ->125         0.53646
     121 ->126        -0.11284
 This state for optimization and/or second-order correction.
 Total Energy, E(TD-HF/TD-DFT) =  -1511.61731353
 Copying the excited state density for this state as the 1-particle RhoCI density.

 Excited state symmetry could not be determined.
 Excited State   2:      Triplet-?Sym    3.7304 eV  332.36 nm  f=0.0000  <S**2>=2.000
     116 ->122        -0.11421
     117 ->123        -0.12530
     117 ->124         0.43587
     118 ->122        -0.48254
     118 ->123         0.10001

 Excited state symmetry could not be determined.
 Excited State   3:      Singlet-?Sym    5.0392 eV  246.04 nm  f=0.0210  <S**2>=0.000
     116 ->125        -0.26356
     121 ->122         0.26009
     121 ->123         0.57442
     121 ->124         0.12951

 Excited state symmetry could not be determined.
 Excited State   4:      Singlet-?Sym    5.1458 eV  240.94 nm  f=0.0009  <S**2>=0.000
     121 ->122         0.65472
     121 ->123        -0.24007

 Alpha  occ. eigenvalues --  -19.18112 -19.17960 -19.12513 -19.10706 -19.10553
 Alpha  occ. eigenvalues --  -14.36009 -14.35465 -14.35273 -10.30880 -10.30487
 Alpha  occ. eigenvalues --  -10.27584 -10.24658 -10.24271 -10.23458 -10.22956
 Alpha  occ. eigenvalues --  -10.22686 -10.22029 -10.21576 -10.19531 -10.19346
 Alpha  occ. eigenvalues --  -10.19220 -10.18989 -10.18907 -10.18887 -10.18837
 Alpha  occ. eigenvalues --  -10.18836 -10.18815 -10.18774 -10.18723 -10.18685
 Alpha  occ. eigenvalues --  -10.18574 -10.18468 -10.18440  -1.08974  -1.06400
 Alpha  occ. eigenvalues --   -1.04088  -1.02516  -1.00348  -0.93797  -0.92853
 Alpha  occ. eigenvalues --   -0.90617  -0.85241  -0.85190  -0.79725  -0.78400
 Alpha  occ. eigenvalues --   -0.77547  -0.75825  -0.75020  -0.74674  -0.74167
 Alpha  occ. eigenvalues --   -0.73002  -0.69640  -0.69379  -0.65696  -0.64092
 Alpha  occ. eigenvalues --   -0.62175  -0.61032  -0.60426  -0.60270  -0.59493
 Alpha  occ. eigenvalues --   -0.58577  -0.57756  -0.56579  -0.55907  -0.54447
 Alpha  occ. eigenvalues --   -0.53205  -0.51093  -0.51010  -0.50384  -0.48958
 Alpha  occ. eigenvalues --   -0.47871  -0.47576  -0.47278  -0.46810  -0.46442
 Alpha  occ. eigenvalues --   -0.45729  -0.45589  -0.44874  -0.44722  -0.44273
 Alpha  occ. eigenvalues --   -0.43934  -0.42950  -0.42791  -0.42184  -0.41863
 Alpha  occ. eigenvalues --   -0.41799  -0.41549  -0.40961  -0.40806  -0.40498
 Alpha  occ. eigenvalues --   -0.39387  -0.39336  -0.39115  -0.38289  -0.37473
 Alpha  occ. eigenvalues --   -0.36938  -0.36788  -0.36320  -0.36140  -0.35652
 Alpha  occ. eigenvalues --   -0.35464  -0.34916  -0.34782  -0.34484  -0.34243
 Alpha  occ. eigenvalues --   -0.33855  -0.33758  -0.33191  -0.32427  -0.31174
 Alpha  occ. eigenvalues --   -0.28909  -0.27107  -0.26810  -0.26179  -0.24975
 Alpha  occ. eigenvalues --   -0.24946  -0.24817  -0.24552  -0.23408  -0.23265
 Alpha  occ. eigenvalues --   -0.21453
 Alpha virt. eigenvalues --   -0.00774  -0.00209   0.00092   0.01048   0.01946
 Alpha virt. eigenvalues --    0.02676   0.05529   0.07199   0.08075   0.08976
 Alpha virt. eigenvalues --    0.09279   0.10208   0.10652   0.11845   0.12058

 Mulliken charges:
               1
     1  C   -0.449973
     2  C   -0.117075
     3  N   -0.625321
     4  C    0.777423
     5  O   -0.545008
     6  N   -0.633030
     7  C   -0.055376
     8  C   -0.350610
     9  C    0.173021
    10  C   -0.192076
    11  C   -0.171014
    12  C    0.379750
    13  O   -0.515433
    14  C   -0.217437
    15  C   -0.205430
    16  C   -0.187521
    17  C    0.625991
    18  O   -0.557174
    19  N   -0.456756
    20  C   -0.153644
    21  C   -0.294487
    22  C   -0.317673
    23  C   -0.006827
    24  C    0.650699
    25  O   -0.493719
    26  O   -0.451598
    27  C   -0.150061
    28  C    0.142898
    29  C   -0.180052
    30  C   -0.131381
    31  C   -0.126941
    32  C   -0.132454
    33  C   -0.189572
    34  H    0.151807
    35  H    0.160559
    36  H    0.139527
    37  H    0.188123
    38  H    0.142963
    39  H    0.316840
    40  H    0.326509
    41  H    0.175523
    42  H    0.156621
    43  H    0.154621
    44  H    0.131311
    45  H    0.137832
    46  H    0.170261
    47  H    0.152201
    48  H    0.153847
    49  H    0.132720
    50  H    0.139702
    51  H    0.212055
    52  H    0.156185
    53  H    0.151253
    54  H    0.157034
    55  H    0.164116
    56  H    0.167076
    57  H    0.178130
    58  H    0.178910
    59  H    0.163068
    60  H    0.158726
    61  H    0.132036
    62  H    0.129665
    63  H    0.130494
    64  H    0.148145
 Sum of Mulliken charges =  -0.00000

 Dipole moment (field-independent basis, Debye):
    X=             -1.4443    Y=              0.2846    Z=              0.4497  Tot=              1.5392
 Quadrupole moment (field-independent basis, Debye-Ang):
   XX=           -190.7449   YY=           -160.1537   ZZ=           -190.3734
   XY=             15.3212   XZ=             14.1580   YZ=             -3.2449

 Normal termination of Gaussian 16 at Sat Nov  5 12:02:24 2022.
