 Gaussian 16, Revision B.01,
 Gaussian 16:  ES64L-G16RevB.01 20-Dec-2017

 -------------------------------------------------------------------
 #p b3lyp/6-31g(d) 6D 10F nosymm GFInput td=(50-50,nstate=2) SCF=XQC
 -------------------------------------------------------------------

 ------------------------------
 Gaussian input prepared by ASE
 ------------------------------
 Symbolic Z-matrix:
 Charge =  0 Multiplicity = 1

                          Input orientation:
 ---------------------------------------------------------------------
 Center     Atomic      Atomic             Coordinates (Angstroms)
 Number     Number       Type             X           Y           Z
 ---------------------------------------------------------------------
      1          6           0       -4.910382   -2.449521    0.706007
      2          6           0       -3.837569   -1.883939   -0.205893
      3          8           0       -3.328572   -2.605486   -1.067565
      4          7           0       -3.455525   -0.557773   -0.077085
      5          6           0       -3.730628    0.287311    1.097595
      6          6           0       -3.089371   -0.202858    2.437837
      7          8           0       -4.161611   -0.365370    3.403616
      8          6           0       -5.307883    0.100252    2.852527
      9          6           0       -6.520396    0.178487    3.538671
     10          6           0       -7.623821    0.657430    2.839916
     11          6           0       -7.493185    1.035476    1.498952
     12          7           0       -8.674585    1.535564    0.793171
     13          8           0       -9.733965    1.603412    1.420060
     14          8           0       -8.543375    1.860255   -0.388357
     15          6           0       -6.276263    0.954610    0.810717
     16          6           0       -5.179802    0.476998    1.510281
     17          6           0       -2.396257   -0.105462   -1.016215
     18          6           0       -2.503688    1.355038   -1.481018
     19          6           0       -3.857071    1.777188   -2.018647
     20          6           0       -4.391418    3.021504   -1.658033
     21          6           0       -5.621147    3.451721   -2.160716
     22          6           0       -6.342529    2.636716   -3.033085
     23          6           0       -5.820215    1.395675   -3.403653
     24          6           0       -4.588896    0.971144   -2.903235
     25          6           0       -1.006203   -0.380141   -0.398518
     26          8           0       -0.359472    0.496003    0.191647
     27          7           0       -0.594978   -1.659653   -0.509471
     28          6           0        0.717654   -2.116407   -0.074108
     29          6           0        0.781033   -3.654686   -0.090869
     30          6           0       -0.243607   -4.389654    0.797992
     31          6           0       -0.099017   -4.027714    2.283486
     32          6           0       -0.109443   -5.906332    0.592498
     33          6           0        1.799349   -1.544679   -1.023752
     34          8           0        1.594618   -1.459033   -2.229186
     35          7           0        2.967245   -1.203766   -0.415793
     36          6           0        4.029271   -0.458216   -1.100105
     37          6           0        5.344262   -1.261371   -1.064246
     38          6           0        6.540892   -0.659337   -1.824697
     39          6           0        7.794065   -1.533808   -1.614049
     40          6           0        9.022846   -0.987444   -2.356198
     41          6           0        8.739005   -0.807226   -3.854469
     42          6           0        7.498901    0.069234   -4.080729
     43          6           0        6.271682   -0.475787   -3.331969
     44          6           0        4.131728    0.928128   -0.433708
     45          8           0        4.410034    0.687095    0.944250
     46          6           0        2.829513    1.741731   -0.625406
     47          6           0        2.621626    2.760797    0.487472
     48          8           0        3.573910    3.329517    1.038442
     49          7           0        1.328863    3.005159    0.818666
     50          6           0        0.979729    3.941574    1.880842
     51          6           0        1.046035    3.346956    3.302033
     52          6           0        0.042661    2.201307    3.490835
     53          6           0        0.831039    4.454215    4.342470
     54          1           0       -4.669697   -2.335558    1.766910
     55          1           0       -4.994704   -3.511615    0.473017
     56          1           0       -5.874745   -1.964955    0.530257
     57          1           0       -3.305290    1.258389    0.846890
     58          1           0       -2.386304    0.528147    2.844146
     59          1           0       -2.580511   -1.163675    2.331962
     60          1           0       -6.591599   -0.125271    4.577102
     61          1           0       -8.592764    0.745578    3.315468
     62          1           0       -6.218566    1.251310   -0.229479
     63          1           0       -2.507964   -0.755845   -1.882747
     64          1           0       -2.184583    2.034424   -0.684484
     65          1           0       -1.740763    1.466655   -2.264491
     66          1           0       -3.835947    3.663177   -0.976897
     67          1           0       -6.018699    4.417786   -1.862186
     68          1           0       -7.307103    2.960197   -3.412497
     69          1           0       -6.374707    0.752988   -4.082096
     70          1           0       -4.200750    0.001528   -3.205068
     71          1           0       -1.192015   -2.291453   -1.033922
     72          1           0        0.887532   -1.735818    0.938746
     73          1           0        0.665376   -3.980816   -1.133410
     74          1           0        1.796055   -3.945839    0.210922
     75          1           0       -1.252728   -4.099615    0.472517
     76          1           0       -0.269948   -2.960830    2.469532
     77          1           0        0.905368   -4.273646    2.652756
     78          1           0       -0.819845   -4.586433    2.891516
     79          1           0        0.881367   -6.260089    0.905887
     80          1           0       -0.857956   -6.450451    1.179813
     81          1           0       -0.244856   -6.180534   -0.460110
     82          1           0        2.990074   -1.129579    0.594583
     83          1           0        3.687267   -0.336249   -2.131095
     84          1           0        5.127950   -2.257742   -1.473178
     85          1           0        5.627621   -1.404060   -0.014087
     86          1           0        6.765167    0.331129   -1.398839
     87          1           0        8.007880   -1.619969   -0.540338
     88          1           0        7.579925   -2.553263   -1.971138
     89          1           0        9.305974   -0.016893   -1.922317
     90          1           0        9.880476   -1.656242   -2.207506
     91          1           0        9.610918   -0.371422   -4.359092
     92          1           0        8.573072   -1.793877   -4.312365
     93          1           0        7.278177    0.148895   -5.152941
     94          1           0        7.710809    1.090488   -3.730324
     95          1           0        5.984383   -1.448053   -3.761544
     96          1           0        5.418478    0.195216   -3.494019
     97          1           0        4.963949    1.483341   -0.887360
     98          1           0        4.454515    1.574158    1.351678
     99          1           0        2.882717    2.286569   -1.577663
    100          1           0        1.959933    1.082850   -0.682487
    101          1           0        0.619637    2.368317    0.469173
    102          1           0       -0.031242    4.318493    1.678032
    103          1           0        1.672602    4.784500    1.808714
    104          1           0        2.060820    2.947323    3.426911
    105          1           0       -0.988699    2.575521    3.413146
    106          1           0        0.152029    1.743085    4.480838
    107          1           0        0.177930    1.417785    2.736999
    108          1           0        0.903650    4.056648    5.361249
    109          1           0        1.577786    5.250115    4.239500
    110          1           0       -0.162540    4.910351    4.236205
 ---------------------------------------------------------------------

 SCF Done:  E(RB3LYP) =  -2434.14047292     A.U. after   15 cycles

 Excitation energies and oscillator strengths:

 Excited state symmetry could not be determined.
 Excited State   1:      Triplet-?Sym    2.8700 eV  432.01 nm  f=0.0000  <S**2>=2.000
     180 ->199        -0.65541
     180 ->205         0.17436
     183 ->199         0.10101
     187 ->199        -0.19080
     180 <-199        -0.15292
 This state for optimization and/or second-order correction.
 Total Energy, E(TD-HF/TD-DFT) =  -2434.03500387
 Copying the excited state density for this state as the 1-particle RhoCI density.

 Excited state symmetry could not be determined.
 Excited State   2:      Triplet-?Sym    3.0811 eV  402.40 nm  f=0.0000  <S**2>=2.000
     187 ->200         0.12600
     194 ->199         0.66294
     194 ->205         0.14668

 Excited state symmetry could not be determined.
 Excited State   3:      Singlet-?Sym    3.7509 eV  330.54 nm  f=0.0000  <S**2>=0.000
     185 ->199         0.58612
     195 ->199         0.15870
     196 ->199         0.33981

 Excited state symmetry could not be determined.
 Excited State   4:      Singlet-?Sym    3.9636 eV  312.81 nm  f=0.0002  <S**2>=0.000
     185 ->199        -0.35865
     195 ->199         0.22639
     196 ->199         0.52604
     198 ->199        -0.14836

 Alpha  occ. eigenvalues --  -19.21396 -19.17854 -19.17846 -19.14353 -19.14149
 Alpha  occ. eigenvalues --  -19.13530 -19.11230 -19.11133 -14.57108 -14.39478
 Alpha  occ. eigenvalues --  -14.37602 -14.35587 -14.35348 -10.31502 -10.30860
 Alpha  occ. eigenvalues --  -10.28513 -10.28423 -10.28293 -10.27372 -10.27313
 Alpha  occ. eigenvalues --  -10.25492 -10.25223 -10.24430 -10.23621 -10.23062
 Alpha  occ. eigenvalues --  -10.23001 -10.22781 -10.22305 -10.21940 -10.21685
 Alpha  occ. eigenvalues --  -10.21145 -10.20923 -10.20652 -10.20229 -10.20080
 Alpha  occ. eigenvalues --  -10.19854 -10.19776 -10.19727 -10.19717 -10.19510
 Alpha  occ. eigenvalues --  -10.19111 -10.18657 -10.18619 -10.18196 -10.18089
 Alpha  occ. eigenvalues --  -10.17889 -10.17704 -10.17446 -10.17385 -10.17337
 Alpha  occ. eigenvalues --  -10.17323 -10.17303 -10.17264  -1.22161  -1.10695
 Alpha  occ. eigenvalues --   -1.06282  -1.05355  -1.04819  -1.03317  -1.03031
 Alpha  occ. eigenvalues --   -1.00789  -0.96068  -0.94141  -0.92081  -0.91614
 Alpha  occ. eigenvalues --   -0.89752  -0.86504  -0.83034  -0.82746  -0.82067
 Alpha  occ. eigenvalues --   -0.81094  -0.80213  -0.80191  -0.78540  -0.76781
 Alpha  occ. eigenvalues --   -0.76691  -0.75808  -0.75629  -0.75160  -0.73270
 Alpha  occ. eigenvalues --   -0.73214  -0.71921  -0.71474  -0.69356  -0.68937
 Alpha  occ. eigenvalues --   -0.68468  -0.67679  -0.66250  -0.65540  -0.65166
 Alpha  occ. eigenvalues --   -0.64267  -0.61671  -0.61067  -0.60399  -0.60074
 Alpha  occ. eigenvalues --   -0.59882  -0.59214  -0.58592  -0.58116  -0.57755
 Alpha  occ. eigenvalues --   -0.57169  -0.56925  -0.56248  -0.54902  -0.54558
 Alpha  occ. eigenvalues --   -0.54382  -0.53396  -0.53047  -0.52922  -0.52242
 Alpha  occ. eigenvalues --   -0.51528  -0.51345  -0.50864  -0.50543  -0.50002
 Alpha  occ. eigenvalues --   -0.49816  -0.49207  -0.48474  -0.47552  -0.47239
 Alpha  occ. eigenvalues --   -0.47085  -0.46820  -0.46528  -0.46453  -0.46309
 Alpha  occ. eigenvalues --   -0.45603  -0.45232  -0.45094  -0.44847  -0.44693
 Alpha  occ. eigenvalues --   -0.44510  -0.44164  -0.43874  -0.43601  -0.43389
 Alpha  occ. eigenvalues --   -0.42949  -0.42869  -0.42785  -0.42573  -0.42174
 Alpha  occ. eigenvalues --   -0.42093  -0.41961  -0.41653  -0.41160  -0.41009
 Alpha  occ. eigenvalues --   -0.40776  -0.40491  -0.40126  -0.39849  -0.39559
 Alpha  occ. eigenvalues --   -0.39335  -0.39132  -0.38801  -0.38721  -0.38517
 Alpha  occ. eigenvalues --   -0.38086  -0.37824  -0.37440  -0.37243  -0.37118
 Alpha  occ. eigenvalues --   -0.36914  -0.36867  -0.36444  -0.36117  -0.35891
 Alpha  occ. eigenvalues --   -0.35376  -0.35178  -0.34875  -0.34524  -0.34014
 Alpha  occ. eigenvalues --   -0.33825  -0.33777  -0.33594  -0.33527  -0.33482
 Alpha  occ. eigenvalues --   -0.33411  -0.32943  -0.32859  -0.31895  -0.30858
 Alpha  occ. eigenvalues --   -0.30830  -0.30737  -0.29662  -0.29356  -0.28914
 Alpha  occ. eigenvalues --   -0.28845  -0.28611  -0.28229  -0.27565  -0.26474
 Alpha  occ. eigenvalues --   -0.26018  -0.25715  -0.25456  -0.25345  -0.25182
 Alpha  occ. eigenvalues --   -0.25125  -0.24483  -0.24420
 Alpha virt. eigenvalues --   -0.08653  -0.04368  -0.01716  -0.01104  -0.00871
 Alpha virt. eigenvalues --    0.00021   0.00628   0.02333   0.02439   0.04625
 Alpha virt. eigenvalues --    0.05829   0.06903   0.08094   0.08216   0.08414

 Mulliken charges:
               1
     1  C   -0.557798
     2  C    0.591958
     3  O   -0.524801
     4  N   -0.425391
     5  C   -0.089388
     6  C   -0.071998
     7  O   -0.522960
     8  C    0.372448
     9  C   -0.191286
    10  C   -0.156543
    11  C    0.258471
    12  N    0.377721
    13  O   -0.404574
    14  O   -0.400633
    15  C   -0.219916
    16  C    0.080514
    17  C   -0.094959
    18  C   -0.394980
    19  C    0.180541
    20  C   -0.202524
    21  C   -0.126462
    22  C   -0.115694
    23  C   -0.134866
    24  C   -0.186683
    25  C    0.658572
    26  O   -0.570111
    27  N   -0.601699
    28  C   -0.049045
    29  C   -0.293485
    30  C   -0.078981
    31  C   -0.454587
    32  C   -0.442798
    33  C    0.622734
    34  O   -0.534364
    35  N   -0.609066
    36  C   -0.001677
    37  C   -0.256271
    38  C   -0.088161
    39  C   -0.260523
    40  C   -0.259933
    41  C   -0.253969
    42  C   -0.260325
    43  C   -0.265278
    44  C    0.143477
    45  O   -0.669298
    46  C   -0.415001
    47  C    0.609547
    48  O   -0.563684
    49  N   -0.619258
    50  C   -0.126699
    51  C   -0.070388
    52  C   -0.466857
    53  C   -0.447915
    54  H    0.182796
    55  H    0.192260
    56  H    0.194416
    57  H    0.191678
    58  H    0.195618
    59  H    0.177148
    60  H    0.161717
    61  H    0.188391
    62  H    0.216767
    63  H    0.201375
    64  H    0.163090
    65  H    0.182715
    66  H    0.123063
    67  H    0.138043
    68  H    0.143880
    69  H    0.138702
    70  H    0.139026
    71  H    0.375917
    72  H    0.152291
    73  H    0.160556
    74  H    0.149525
    75  H    0.138061
    76  H    0.143110
    77  H    0.144405
    78  H    0.147308
    79  H    0.142337
    80  H    0.144691
    81  H    0.148949
    82  H    0.341054
    83  H    0.176603
    84  H    0.134110
    85  H    0.145601
    86  H    0.125527
    87  H    0.130163
    88  H    0.123607
    89  H    0.128139
    90  H    0.128764
    91  H    0.128884
    92  H    0.126817
    93  H    0.130230
    94  H    0.127183
    95  H    0.129041
    96  H    0.130930
    97  H    0.136041
    98  H    0.423587
    99  H    0.168867
   100  H    0.180974
   101  H    0.375582
   102  H    0.129153
   103  H    0.172119
   104  H    0.150231
   105  H    0.125420
   106  H    0.144505
   107  H    0.162602
   108  H    0.145058
   109  H    0.151014
   110  H    0.135204
 Sum of Mulliken charges =  -0.00000

 Dipole moment (field-independent basis, Debye):
    X=             -0.1844    Y=             -1.9381    Z=              2.8289  Tot=              3.4341
 Quadrupole moment (field-independent basis, Debye-Ang):
   XX=           -365.4700   YY=           -314.6264   ZZ=           -313.4931
   XY=              1.7577   XZ=            -11.2757   YZ=             -8.1082

 Normal termination of Gaussian 16 at Sat Nov  5 12:01:24 2022.
