 Gaussian 16, Revision B.01,
 Gaussian 16:  ES64L-G16RevB.01 20-Dec-2017

 -----------------------------
 #p b3lyp/6-31g(d) opt SCF=XQC
 -----------------------------

 ------------------------------
 Gaussian input prepared by ASE
 ------------------------------
 Symbolic Z-matrix:
 Charge =  0 Multiplicity = 1

 SCF Done:  E(RB3LYP) =  -2434.11955021     A.U. after   15 cycles
 SCF Done:  E(RB3LYP) =  -2434.12971033     A.U. after   13 cycles
 SCF Done:  E(RB3LYP) =  -2434.13251405     A.U. after   15 cycles
 SCF Done:  E(RB3LYP) =  -2434.13715023     A.U. after   15 cycles
 SCF Done:  E(RB3LYP) =  -2434.13418036     A.U. after   14 cycles
 SCF Done:  E(RB3LYP) =  -2434.13817222     A.U. after   13 cycles
 SCF Done:  E(RB3LYP) =  -2434.13794159     A.U. after   14 cycles
 SCF Done:  E(RB3LYP) =  -2434.13813885     A.U. after   14 cycles
 SCF Done:  E(RB3LYP) =  -2434.13847724     A.U. after   13 cycles
 SCF Done:  E(RB3LYP) =  -2434.13910215     A.U. after   14 cycles
 SCF Done:  E(RB3LYP) =  -2434.14046314     A.U. after   10 cycles
 SCF Done:  E(RB3LYP) =  -2434.14046590     A.U. after   10 cycles
 SCF Done:  E(RB3LYP) =  -2434.14046753     A.U. after   10 cycles
 SCF Done:  E(RB3LYP) =  -2434.14046805     A.U. after   10 cycles
 SCF Done:  E(RB3LYP) =  -2434.14046831     A.U. after    9 cycles
 SCF Done:  E(RB3LYP) =  -2434.14046835     A.U. after    7 cycles
 SCF Done:  E(RB3LYP) =  -2434.14046838     A.U. after    7 cycles
 SCF Done:  E(RB3LYP) =  -2434.14046839     A.U. after    7 cycles
 SCF Done:  E(RB3LYP) =  -2434.14046840     A.U. after    7 cycles
 SCF Done:  E(RB3LYP) =  -2434.14046840     A.U. after    7 cycles
 Optimization completed.
    -- Stationary point found.

                         Standard orientation:
 ---------------------------------------------------------------------
 Center     Atomic      Atomic             Coordinates (Angstroms)
 Number     Number       Type             X           Y           Z
 ---------------------------------------------------------------------
      1          6           0        3.994162   -2.939539   -0.762434
      2          6           0        2.848706   -2.457688    0.108268
      3          8           0        2.126128   -3.281857    0.674672
      4          7           0        2.638539   -1.097995    0.276581
      5          6           0        3.198514   -0.046040   -0.589180
      6          6           0        2.745905   -0.101679   -2.085767
      7          8           0        3.943173   -0.183684   -2.903485
      8          6           0        5.022145   -0.036750   -2.098084
      9          6           0        6.335037    0.024812   -2.566730
     10          6           0        7.348335    0.155468   -1.622618
     11          6           0        7.032683    0.216487   -0.260703
     12          7           0        8.123434    0.354323    0.706345
     13          8           0        9.275124    0.414183    0.270563
     14          8           0        7.828633    0.402379    1.901934
     15          6           0        5.714835    0.152545    0.208651
     16          6           0        4.708638    0.022339   -0.734930
     17          6           0        1.489576   -0.733364    1.145792
     18          6           0        1.672259    0.541410    1.983779
     19          6           0        2.951741    0.619478    2.793551
     20          6           0        3.669915    1.821745    2.845219
     21          6           0        4.835082    1.934049    3.606655
     22          6           0        5.305902    0.837233    4.328440
     23          6           0        4.598172   -0.366039    4.288794
     24          6           0        3.431672   -0.473194    3.530779
     25          6           0        0.203606   -0.645348    0.292692
     26          8           0       -0.235562    0.431655   -0.133196
     27          7           0       -0.355247   -1.839688    0.010194
     28          6           0       -1.615924   -1.981422   -0.705190
     29          6           0       -1.845745   -3.452577   -1.096963
     30          6           0       -0.769555   -4.095456   -1.996217
     31          6           0       -0.619590   -3.371292   -3.342210
     32          6           0       -1.098518   -5.580677   -2.211723
     33          6           0       -2.775845   -1.501404    0.201963
     34          8           0       -2.771261   -1.737757    1.404643
     35          7           0       -3.779870   -0.857446   -0.451541
     36          6           0       -4.856737   -0.149967    0.249783
     37          6           0       -6.224844   -0.719458   -0.173906
     38          6           0       -7.461906   -0.148215    0.544436
     39          6           0       -8.747355   -0.753379   -0.056323
     40          6           0      -10.018763   -0.226474    0.625655
     41          6           0       -9.976384   -0.453751    2.143683
     42          6           0       -8.706181    0.151501    2.758082
     43          6           0       -7.435033   -0.372303    2.069918
     44          6           0       -4.695092    1.355175   -0.041679
     45          8           0       -4.759043    1.494472   -1.459714
     46          6           0       -3.364903    1.899264    0.531928
     47          6           0       -2.862640    3.113267   -0.238876
     48          8           0       -3.640739    3.930620   -0.749121
     49          7           0       -1.513738    3.237548   -0.314080
     50          6           0       -0.890602    4.339379   -1.038412
     51          6           0       -0.777428    4.118573   -2.560314
     52          6           0        0.114774    2.917070   -2.899853
     53          6           0       -0.271077    5.398841   -3.238015
     54          1           0        3.951158   -2.540927   -1.780122
     55          1           0        3.923267   -4.027066   -0.803643
     56          1           0        4.960849   -2.657909   -0.335949
     57          1           0        2.843289    0.888345   -0.156171
     58          1           0        2.204706    0.800271   -2.381318
     59          1           0        2.126437   -0.974606   -2.303884
     60          1           0        6.548948   -0.028607   -3.628363
     61          1           0        8.387858    0.211846   -1.920922
     62          1           0        5.513097    0.196788    1.272000
     63          1           0        1.381818   -1.581396    1.820763
     64          1           0        1.568052    1.430929    1.354687
     65          1           0        0.803555    0.572855    2.656614
     66          1           0        3.310492    2.682099    2.284109
     67          1           0        5.378865    2.874448    3.626648
     68          1           0        6.220870    0.915473    4.907844
     69          1           0        4.956987   -1.226578    4.846932
     70          1           0        2.896160   -1.419171    3.514317
     71          1           0        0.072616   -2.659155    0.429813
     72          1           0       -1.569166   -1.348785   -1.598030
     73          1           0       -1.944831   -4.032100   -0.169082
     74          1           0       -2.819874   -3.510972   -1.600728
     75          1           0        0.194645   -4.042933   -1.470913
     76          1           0       -0.306133   -2.327827   -3.219740
     77          1           0       -1.566969   -3.371692   -3.897282
     78          1           0        0.130097   -3.867687   -3.969125
     79          1           0       -2.053667   -5.699933   -2.739482
     80          1           0       -0.323674   -6.072076   -2.811237
     81          1           0       -1.174399   -6.115666   -1.258027
     82          1           0       -3.622333   -0.541045   -1.401256
     83          1           0       -4.684105   -0.329829    1.314035
     84          1           0       -6.189344   -1.805369   -0.011709
     85          1           0       -6.338989   -0.563494   -1.253781
     86          1           0       -7.502958    0.937248    0.363433
     87          1           0       -8.783310   -0.547718   -1.134472
     88          1           0       -8.707634   -1.848718    0.050029
     89          1           0      -10.118236    0.850423    0.423712
     90          1           0      -10.905250   -0.707054    0.191936
     91          1           0      -10.869645   -0.028425    2.619062
     92          1           0       -9.997525   -1.534667    2.348269
     93          1           0       -8.663900   -0.061052    3.834064
     94          1           0       -8.744659    1.246640    2.658894
     95          1           0       -7.330927   -1.450428    2.267874
     96          1           0       -6.554919    0.107845    2.516368
     97          1           0       -5.527998    1.901490    0.421420
     98          1           0       -4.638196    2.449917   -1.625172
     99          1           0       -3.520677    2.202060    1.576208
    100          1           0       -2.593430    1.125720    0.535287
    101          1           0       -0.946744    2.438673   -0.047564
    102          1           0        0.105597    4.504379   -0.607571
    103          1           0       -1.491240    5.232733   -0.846186
    104          1           0       -1.793060    3.913676   -2.923079
    105          1           0        1.151948    3.106435   -2.586509
    106          1           0        0.127005    2.730279   -3.980128
    107          1           0       -0.230005    2.004438   -2.401153
    108          1           0       -0.211440    5.271764   -4.324999
    109          1           0       -0.934776    6.247576   -3.035923
    110          1           0        0.733008    5.665533   -2.881303
 ---------------------------------------------------------------------

 The electronic state is 1-A.
 Alpha  occ. eigenvalues --  -19.21396 -19.17854 -19.17846 -19.14353 -19.14148
 Alpha  occ. eigenvalues --  -19.13530 -19.11230 -19.11133 -14.57108 -14.39478
 Alpha  occ. eigenvalues --  -14.37602 -14.35587 -14.35348 -10.31502 -10.30860
 Alpha  occ. eigenvalues --  -10.28513 -10.28423 -10.28293 -10.27372 -10.27313
 Alpha  occ. eigenvalues --  -10.25492 -10.25223 -10.24430 -10.23620 -10.23062
 Alpha  occ. eigenvalues --  -10.23001 -10.22781 -10.22305 -10.21940 -10.21685
 Alpha  occ. eigenvalues --  -10.21145 -10.20922 -10.20652 -10.20229 -10.20080
 Alpha  occ. eigenvalues --  -10.19854 -10.19776 -10.19726 -10.19717 -10.19510
 Alpha  occ. eigenvalues --  -10.19111 -10.18657 -10.18619 -10.18196 -10.18089
 Alpha  occ. eigenvalues --  -10.17889 -10.17704 -10.17446 -10.17385 -10.17337
 Alpha  occ. eigenvalues --  -10.17324 -10.17303 -10.17264  -1.22161  -1.10695
 Alpha  occ. eigenvalues --   -1.06282  -1.05355  -1.04819  -1.03317  -1.03031
 Alpha  occ. eigenvalues --   -1.00789  -0.96068  -0.94141  -0.92081  -0.91614
 Alpha  occ. eigenvalues --   -0.89752  -0.86504  -0.83034  -0.82746  -0.82067
 Alpha  occ. eigenvalues --   -0.81094  -0.80213  -0.80191  -0.78540  -0.76781
 Alpha  occ. eigenvalues --   -0.76691  -0.75808  -0.75629  -0.75159  -0.73270
 Alpha  occ. eigenvalues --   -0.73214  -0.71921  -0.71474  -0.69356  -0.68937
 Alpha  occ. eigenvalues --   -0.68468  -0.67679  -0.66250  -0.65540  -0.65166
 Alpha  occ. eigenvalues --   -0.64267  -0.61671  -0.61067  -0.60399  -0.60074
 Alpha  occ. eigenvalues --   -0.59882  -0.59214  -0.58592  -0.58116  -0.57755
 Alpha  occ. eigenvalues --   -0.57169  -0.56925  -0.56248  -0.54902  -0.54558
 Alpha  occ. eigenvalues --   -0.54382  -0.53396  -0.53047  -0.52922  -0.52242
 Alpha  occ. eigenvalues --   -0.51528  -0.51345  -0.50864  -0.50543  -0.50002
 Alpha  occ. eigenvalues --   -0.49816  -0.49207  -0.48474  -0.47552  -0.47239
 Alpha  occ. eigenvalues --   -0.47085  -0.46820  -0.46528  -0.46453  -0.46309
 Alpha  occ. eigenvalues --   -0.45603  -0.45232  -0.45094  -0.44847  -0.44693
 Alpha  occ. eigenvalues --   -0.44510  -0.44164  -0.43874  -0.43601  -0.43389
 Alpha  occ. eigenvalues --   -0.42949  -0.42869  -0.42785  -0.42573  -0.42174
 Alpha  occ. eigenvalues --   -0.42093  -0.41961  -0.41653  -0.41160  -0.41009
 Alpha  occ. eigenvalues --   -0.40776  -0.40491  -0.40127  -0.39849  -0.39559
 Alpha  occ. eigenvalues --   -0.39335  -0.39132  -0.38801  -0.38721  -0.38517
 Alpha  occ. eigenvalues --   -0.38086  -0.37824  -0.37440  -0.37243  -0.37118
 Alpha  occ. eigenvalues --   -0.36914  -0.36867  -0.36444  -0.36117  -0.35891
 Alpha  occ. eigenvalues --   -0.35376  -0.35178  -0.34875  -0.34524  -0.34014
 Alpha  occ. eigenvalues --   -0.33825  -0.33777  -0.33594  -0.33527  -0.33482
 Alpha  occ. eigenvalues --   -0.33411  -0.32943  -0.32859  -0.31895  -0.30858
 Alpha  occ. eigenvalues --   -0.30830  -0.30737  -0.29662  -0.29356  -0.28914
 Alpha  occ. eigenvalues --   -0.28845  -0.28611  -0.28229  -0.27565  -0.26473
 Alpha  occ. eigenvalues --   -0.26018  -0.25715  -0.25456  -0.25345  -0.25182
 Alpha  occ. eigenvalues --   -0.25125  -0.24484  -0.24420
 Alpha virt. eigenvalues --   -0.08653  -0.04368  -0.01716  -0.01104  -0.00871
 Alpha virt. eigenvalues --    0.00021   0.00628   0.02333   0.02439   0.04625
 Alpha virt. eigenvalues --    0.05829   0.06902   0.08094   0.08216   0.08414

 Mulliken charges:
               1
     1  C   -0.557808
     2  C    0.591994
     3  O   -0.524818
     4  N   -0.425397
     5  C   -0.089407
     6  C   -0.071985
     7  O   -0.522968
     8  C    0.372452
     9  C   -0.191286
    10  C   -0.156542
    11  C    0.258452
    12  N    0.377734
    13  O   -0.404575
    14  O   -0.400636
    15  C   -0.219901
    16  C    0.080522
    17  C   -0.094971
    18  C   -0.395000
    19  C    0.180575
    20  C   -0.202520
    21  C   -0.126474
    22  C   -0.115679
    23  C   -0.134878
    24  C   -0.186692
    25  C    0.658577
    26  O   -0.570101
    27  N   -0.601700
    28  C   -0.049026
    29  C   -0.293478
    30  C   -0.078997
    31  C   -0.454595
    32  C   -0.442784
    33  C    0.622724
    34  O   -0.534362
    35  N   -0.609067
    36  C   -0.001660
    37  C   -0.256283
    38  C   -0.088140
    39  C   -0.260530
    40  C   -0.259945
    41  C   -0.253963
    42  C   -0.260326
    43  C   -0.265296
    44  C    0.143486
    45  O   -0.669299
    46  C   -0.415003
    47  C    0.609520
    48  O   -0.563681
    49  N   -0.619243
    50  C   -0.126702
    51  C   -0.070385
    52  C   -0.466868
    53  C   -0.447926
    54  H    0.182796
    55  H    0.192261
    56  H    0.194415
    57  H    0.191686
    58  H    0.195613
    59  H    0.177144
    60  H    0.161718
    61  H    0.188390
    62  H    0.216769
    63  H    0.201375
    64  H    0.163093
    65  H    0.182716
    66  H    0.123057
    67  H    0.138041
    68  H    0.143880
    69  H    0.138701
    70  H    0.139027
    71  H    0.375917
    72  H    0.152271
    73  H    0.160555
    74  H    0.149525
    75  H    0.138067
    76  H    0.143113
    77  H    0.144410
    78  H    0.147308
    79  H    0.142334
    80  H    0.144689
    81  H    0.148947
    82  H    0.341053
    83  H    0.176600
    84  H    0.134110
    85  H    0.145601
    86  H    0.125529
    87  H    0.130165
    88  H    0.123609
    89  H    0.128142
    90  H    0.128766
    91  H    0.128885
    92  H    0.126818
    93  H    0.130231
    94  H    0.127184
    95  H    0.129044
    96  H    0.130931
    97  H    0.136037
    98  H    0.423585
    99  H    0.168868
   100  H    0.180978
   101  H    0.375586
   102  H    0.129152
   103  H    0.172120
   104  H    0.150235
   105  H    0.125420
   106  H    0.144507
   107  H    0.162614
   108  H    0.145060
   109  H    0.151016
   110  H    0.135207
 Sum of Mulliken charges =  -0.00000

 Dipole moment (field-independent basis, Debye):
    X=              0.4544    Y=             -1.2101    Z=             -3.1816  Tot=              3.4342
 Quadrupole moment (field-independent basis, Debye-Ang):
   XX=           -360.8983   YY=           -319.5857   ZZ=           -312.8117
   XY=              7.3509   XZ=            -15.2514   YZ=              9.7637

 Normal termination of Gaussian 16 at Fri Nov  4 21:39:22 2022.
