 Gaussian 16, Revision B.01,
 Gaussian 16:  ES64L-G16RevB.01 20-Dec-2017

 -----------------------------
 #p b3lyp/6-31g(d) opt SCF=XQC
 -----------------------------

 ------------------------------
 Gaussian input prepared by ASE
 ------------------------------
 Symbolic Z-matrix:
 Charge =  0 Multiplicity = 1

 SCF Done:  E(RB3LYP) =  -1208.81589195     A.U. after   15 cycles
 SCF Done:  E(RB3LYP) =  -1208.82209721     A.U. after   12 cycles
 SCF Done:  E(RB3LYP) =  -1208.82243137     A.U. after   12 cycles
 SCF Done:  E(RB3LYP) =  -1208.82288718     A.U. after   12 cycles
 SCF Done:  E(RB3LYP) =  -1208.82304299     A.U. after   11 cycles
 SCF Done:  E(RB3LYP) =  -1208.82315450     A.U. after   12 cycles
 SCF Done:  E(RB3LYP) =  -1208.82322927     A.U. after   11 cycles
 SCF Done:  E(RB3LYP) =  -1208.82328334     A.U. after   11 cycles
 SCF Done:  E(RB3LYP) =  -1208.82332484     A.U. after   11 cycles
 SCF Done:  E(RB3LYP) =  -1208.82333432     A.U. after   10 cycles
 SCF Done:  E(RB3LYP) =  -1208.82334972     A.U. after    9 cycles
 SCF Done:  E(RB3LYP) =  -1208.82335185     A.U. after    8 cycles
 SCF Done:  E(RB3LYP) =  -1208.82335233     A.U. after    8 cycles
 SCF Done:  E(RB3LYP) =  -1208.82335246     A.U. after    7 cycles
 SCF Done:  E(RB3LYP) =  -1208.82335255     A.U. after    7 cycles
 SCF Done:  E(RB3LYP) =  -1208.82335263     A.U. after    7 cycles
 SCF Done:  E(RB3LYP) =  -1208.82335270     A.U. after    7 cycles
 SCF Done:  E(RB3LYP) =  -1208.82335278     A.U. after    7 cycles
 SCF Done:  E(RB3LYP) =  -1208.82335283     A.U. after    7 cycles
 SCF Done:  E(RB3LYP) =  -1208.82335286     A.U. after    6 cycles
 Optimization completed.
    -- Stationary point found.

                         Standard orientation:
 ---------------------------------------------------------------------
 Center     Atomic      Atomic             Coordinates (Angstroms)
 Number     Number       Type             X           Y           Z
 ---------------------------------------------------------------------
      1          6           0       -8.475664   -1.097021   -1.845742
      2          8           0       -7.391461   -1.272265   -0.955925
      3          6           0       -7.423223   -0.352855    0.119309
      4          6           0       -6.266789   -0.608920    1.090660
      5          8           0       -6.507609   -0.738243    2.288839
      6          7           0       -5.000454   -0.656010    0.574780
      7          6           0       -4.649690   -0.412403   -0.832796
      8          6           0       -3.198714    0.095393   -0.946083
      9          6           0       -2.864761    1.061256    0.203213
     10          6           0       -1.555373    1.849522    0.006097
     11          6           0       -0.297294    1.000412   -0.209326
     12          6           0        0.953383    1.869362   -0.362309
     13          8           0        0.889080    3.094810   -0.403718
     14          7           0        2.155957    1.207863   -0.458657
     15          6           0        3.387758    1.994731   -0.538610
     16          6           0        4.501268    1.357057    0.290340
     17          7           0        4.743538   -0.021833   -0.129932
     18          6           0        6.001650   -0.601677    0.010726
     19          6           0        6.939909   -0.073884    0.925172
     20          6           0        8.196970   -0.654781    1.072086
     21          6           0        8.563603   -1.777206    0.327964
     22          6           0        7.643122   -2.306847   -0.576725
     23          6           0        6.384667   -1.732342   -0.743310
     24          6           0        3.684469   -0.682427   -0.873321
     25          6           0        2.305048   -0.245480   -0.373184
     26          6           0       -2.934293    0.300275    1.554243
     27          6           0       -3.877352   -0.917453    1.475671
     28          1           0       -9.442827   -1.236175   -1.338146
     29          1           0       -8.372722   -1.851239   -2.630036
     30          1           0       -8.466765   -0.095367   -2.305809
     31          1           0       -8.343394   -0.458694    0.708181
     32          1           0       -7.379429    0.686987   -0.255181
     33          1           0       -5.327804    0.344218   -1.238772
     34          1           0       -4.791168   -1.320639   -1.430677
     35          1           0       -3.078336    0.586944   -1.919776
     36          1           0       -2.503954   -0.754529   -0.941282
     37          1           0       -3.667728    1.812626    0.217283
     38          1           0       -1.664537    2.524514   -0.850379
     39          1           0       -1.394712    2.501758    0.872827
     40          1           0       -0.148371    0.295486    0.619460
     41          1           0       -0.402372    0.379860   -1.110473
     42          1           0        3.161874    2.996671   -0.170489
     43          1           0        3.712637    2.094164   -1.583941
     44          1           0        4.242193    1.414808    1.359976
     45          1           0        5.414526    1.946644    0.146289
     46          1           0        6.676498    0.776899    1.544178
     47          1           0        8.892942   -0.225745    1.788863
     48          1           0        9.544196   -2.227512    0.449515
     49          1           0        7.907089   -3.174425   -1.176679
     50          1           0        5.711862   -2.150987   -1.483749
     51          1           0        3.760456   -1.763368   -0.719126
     52          1           0        3.756237   -0.505516   -1.960598
     53          1           0        2.175654   -0.595155    0.662117
     54          1           0        1.545332   -0.741854   -0.986127
     55          1           0       -3.273386    0.985957    2.339145
     56          1           0       -1.940285   -0.054231    1.856632
     57          1           0       -4.295677   -1.167649    2.449953
     58          1           0       -3.333547   -1.797286    1.105482
 ---------------------------------------------------------------------

 The electronic state is 1-A.
 Alpha  occ. eigenvalues --  -19.15883 -19.11034 -19.10184 -14.36644 -14.35679
 Alpha  occ. eigenvalues --  -14.35474 -10.28526 -10.27732 -10.24178 -10.23861
 Alpha  occ. eigenvalues --  -10.23742 -10.23501 -10.23022 -10.22815 -10.22615
 Alpha  occ. eigenvalues --  -10.22295 -10.21210 -10.19941 -10.19440 -10.19280
 Alpha  occ. eigenvalues --  -10.18517 -10.18515 -10.18486 -10.18353 -10.18117
 Alpha  occ. eigenvalues --  -10.18035 -10.17515  -1.04477  -1.03167  -1.01869
 Alpha  occ. eigenvalues --   -0.96613  -0.93020  -0.92593  -0.83893  -0.82110
 Alpha  occ. eigenvalues --   -0.79149  -0.77257  -0.76314  -0.75541  -0.73972
 Alpha  occ. eigenvalues --   -0.73793  -0.70629  -0.68833  -0.67467  -0.65718
 Alpha  occ. eigenvalues --   -0.63941  -0.62872  -0.61032  -0.59616  -0.58661
 Alpha  occ. eigenvalues --   -0.56881  -0.54793  -0.52898  -0.52553  -0.51685
 Alpha  occ. eigenvalues --   -0.51225  -0.50388  -0.49560  -0.48750  -0.48321
 Alpha  occ. eigenvalues --   -0.47822  -0.47193  -0.46296  -0.45824  -0.44433
 Alpha  occ. eigenvalues --   -0.44281  -0.43882  -0.43604  -0.43097  -0.42847
 Alpha  occ. eigenvalues --   -0.42312  -0.41980  -0.40991  -0.40550  -0.40179
 Alpha  occ. eigenvalues --   -0.39897  -0.39156  -0.38795  -0.38556  -0.38185
 Alpha  occ. eigenvalues --   -0.37698  -0.37294  -0.36865  -0.36009  -0.35750
 Alpha  occ. eigenvalues --   -0.35486  -0.35180  -0.34356  -0.33444  -0.33370
 Alpha  occ. eigenvalues --   -0.31912  -0.31642  -0.31349  -0.28296  -0.26657
 Alpha  occ. eigenvalues --   -0.24959  -0.24455  -0.24131  -0.23887  -0.22892
 Alpha  occ. eigenvalues --   -0.19234
 Alpha virt. eigenvalues --    0.00408   0.01837   0.02253   0.02602   0.06130
 Alpha virt. eigenvalues --    0.07308   0.08213   0.09447   0.09639   0.10056
 Alpha virt. eigenvalues --    0.11096   0.11629   0.12168   0.12906   0.13230

 Mulliken charges:
               1
     1  C   -0.192364
     2  O   -0.458355
     3  C   -0.113174
     4  C    0.569868
     5  O   -0.517511
     6  N   -0.423945
     7  C   -0.109300
     8  C   -0.311045
     9  C   -0.073738
    10  C   -0.257989
    11  C   -0.386183
    12  C    0.601433
    13  O   -0.519818
    14  N   -0.449631
    15  C   -0.153765
    16  C   -0.139250
    17  N   -0.507139
    18  C    0.354817
    19  C   -0.189872
    20  C   -0.135907
    21  C   -0.136647
    22  C   -0.136517
    23  C   -0.195298
    24  C   -0.144771
    25  C   -0.134001
    26  C   -0.279770
    27  C   -0.156649
    28  H    0.139393
    29  H    0.161895
    30  H    0.130652
    31  H    0.162600
    32  H    0.131963
    33  H    0.150246
    34  H    0.160582
    35  H    0.142962
    36  H    0.138021
    37  H    0.130266
    38  H    0.151255
    39  H    0.152372
    40  H    0.157150
    41  H    0.162159
    42  H    0.195640
    43  H    0.157333
    44  H    0.148758
    45  H    0.159863
    46  H    0.127088
    47  H    0.125388
    48  H    0.121096
    49  H    0.124315
    50  H    0.122481
    51  H    0.163271
    52  H    0.146677
    53  H    0.159184
    54  H    0.155978
    55  H    0.152895
    56  H    0.130411
    57  H    0.194587
    58  H    0.140040
 Sum of Mulliken charges =  -0.00000

 Dipole moment (field-independent basis, Debye):
    X=              0.8302    Y=             -1.2246    Z=             -3.4434  Tot=              3.7478
 Quadrupole moment (field-independent basis, Debye-Ang):
   XX=           -166.7353   YY=           -172.2800   ZZ=           -165.2879
   XY=             -6.9897   XZ=             25.4443   YZ=              7.4296

 Normal termination of Gaussian 16 at Fri Nov  4 19:06:31 2022.
