 Gaussian 16, Revision B.01,
 Gaussian 16:  ES64L-G16RevB.01 20-Dec-2017

 -------------------------------------------------------------------
 #p b3lyp/6-31g(d) 6D 10F nosymm GFInput td=(50-50,nstate=2) SCF=XQC
 -------------------------------------------------------------------

 ------------------------------
 Gaussian input prepared by ASE
 ------------------------------
 Symbolic Z-matrix:
 Charge =  0 Multiplicity = 1

                          Input orientation:
 ---------------------------------------------------------------------
 Center     Atomic      Atomic             Coordinates (Angstroms)
 Number     Number       Type             X           Y           Z
 ---------------------------------------------------------------------
      1          6           0        8.487450    1.467890    0.580711
      2          8           0        7.371927    0.665703    0.912505
      3          6           0        7.320413   -0.526287    0.151611
      4          6           0        6.132211   -1.394393    0.577050
      5          8           0        6.323848   -2.573758    0.864671
      6          7           0        4.892981   -0.814692    0.591572
      7          6           0        4.596618    0.561508    0.165085
      8          6           0        3.133881    0.675614   -0.307566
      9          6           0        2.712195   -0.577879   -1.092573
     10          6           0        1.383869   -0.426560   -1.858970
     11          6           0        0.169980   -0.033878   -1.009009
     12          6           0       -1.104790    0.059741   -1.850952
     13          8           0       -1.085443   -0.071488   -3.071598
     14          7           0       -2.275756    0.306004   -1.171803
     15          6           0       -3.531826    0.337763   -1.922911
     16          6           0       -4.656255   -0.338986   -1.141015
     17          7           0       -4.826724    0.278936    0.172672
     18          6           0       -6.066864    0.282251    0.805832
     19          6           0       -7.064590   -0.648500    0.440660
     20          6           0       -8.303921   -0.651280    1.075702
     21          6           0       -8.593799    0.257804    2.094287
     22          6           0       -7.614186    1.180041    2.463210
     23          6           0       -6.372339    1.203093    1.831704
     24          6           0       -3.711002    1.052791    0.689344
     25          6           0       -2.373033    0.429284    0.283216
     26          6           0        2.750064   -1.812827   -0.153063
     27          6           0        3.741416   -1.614014    1.011450
     28          1           0        9.435494    0.936928    0.758791
     29          1           0        8.448574    2.352837    1.220958
     30          1           0        8.461011    1.785297   -0.474564
     31          1           0        8.216635   -1.139907    0.309544
     32          1           0        7.253850   -0.297066   -0.928415
     33          1           0        5.262917    0.825076   -0.661781
     34          1           0        4.799256    1.271155    0.976078
     35          1           0        3.038612    1.576982   -0.926155
     36          1           0        2.472498    0.822583    0.556179
     37          1           0        3.484508   -0.735298   -1.859555
     38          1           0        1.505502    0.322158   -2.649987
     39          1           0        1.159789   -1.365895   -2.378472
     40          1           0        0.011038   -0.749103   -0.190976
     41          1           0        0.338907    0.937894   -0.523916
     42          1           0       -3.361013   -0.175774   -2.870287
     43          1           0       -3.813088    1.374228   -2.156967
     44          1           0       -4.447763   -1.417902   -1.057059
     45          1           0       -5.583945   -0.232437   -1.715857
     46          1           0       -6.861797   -1.391231   -0.323284
     47          1           0       -9.047158   -1.384913    0.773049
     48          1           0       -9.560980    0.248371    2.587829
     49          1           0       -7.817749    1.906271    3.246452
     50          1           0       -5.651564    1.959849    2.121502
     51          1           0       -3.752574    1.053103    1.783079
     52          1           0       -3.740664    2.107493    0.364775
     53          1           0       -2.276932   -0.553040    0.769701
     54          1           0       -1.568249    1.066323    0.664997
     55          1           0        3.027266   -2.700653   -0.732837
     56          1           0        1.757736   -2.013689    0.271326
     57          1           0        4.124891   -2.564048    1.381857
     58          1           0        3.248671   -1.099478    1.847707
 ---------------------------------------------------------------------

 SCF Done:  E(RB3LYP) =  -1208.82334780     A.U. after   15 cycles

 Excitation energies and oscillator strengths:

 Excited state symmetry could not be determined.
 Excited State   1:      Triplet-?Sym    3.6050 eV  343.92 nm  f=0.0000  <S**2>=2.000
      94 ->103        -0.14106
      97 ->102        -0.34525
     101 ->103         0.58262
     101 ->105         0.11592
 This state for optimization and/or second-order correction.
 Total Energy, E(TD-HF/TD-DFT) =  -1208.69086699
 Copying the excited state density for this state as the 1-particle RhoCI density.

 Excited state symmetry could not be determined.
 Excited State   2:      Triplet-?Sym    3.8175 eV  324.78 nm  f=0.0000  <S**2>=2.000
     101 ->102         0.69691

 Excited state symmetry could not be determined.
 Excited State   3:      Singlet-?Sym    4.6421 eV  267.09 nm  f=0.0309  <S**2>=0.000
      97 ->103         0.19532
     101 ->102         0.67658

 Excited state symmetry could not be determined.
 Excited State   4:      Singlet-?Sym    5.3288 eV  232.67 nm  f=0.1362  <S**2>=0.000
     101 ->103        -0.47749
     101 ->104        -0.13044
     101 ->105         0.48558

 Alpha  occ. eigenvalues --  -19.15883 -19.11034 -19.10184 -14.36644 -14.35679
 Alpha  occ. eigenvalues --  -14.35474 -10.28526 -10.27732 -10.24178 -10.23861
 Alpha  occ. eigenvalues --  -10.23742 -10.23501 -10.23022 -10.22815 -10.22615
 Alpha  occ. eigenvalues --  -10.22295 -10.21210 -10.19941 -10.19439 -10.19280
 Alpha  occ. eigenvalues --  -10.18517 -10.18515 -10.18486 -10.18352 -10.18117
 Alpha  occ. eigenvalues --  -10.18036 -10.17515  -1.04477  -1.03167  -1.01869
 Alpha  occ. eigenvalues --   -0.96613  -0.93020  -0.92593  -0.83893  -0.82109
 Alpha  occ. eigenvalues --   -0.79149  -0.77257  -0.76314  -0.75541  -0.73972
 Alpha  occ. eigenvalues --   -0.73793  -0.70629  -0.68833  -0.67467  -0.65718
 Alpha  occ. eigenvalues --   -0.63941  -0.62872  -0.61032  -0.59617  -0.58661
 Alpha  occ. eigenvalues --   -0.56881  -0.54793  -0.52898  -0.52553  -0.51685
 Alpha  occ. eigenvalues --   -0.51225  -0.50388  -0.49560  -0.48750  -0.48321
 Alpha  occ. eigenvalues --   -0.47822  -0.47193  -0.46296  -0.45824  -0.44433
 Alpha  occ. eigenvalues --   -0.44281  -0.43882  -0.43604  -0.43097  -0.42847
 Alpha  occ. eigenvalues --   -0.42312  -0.41980  -0.40991  -0.40550  -0.40179
 Alpha  occ. eigenvalues --   -0.39897  -0.39156  -0.38795  -0.38556  -0.38185
 Alpha  occ. eigenvalues --   -0.37698  -0.37294  -0.36865  -0.36009  -0.35750
 Alpha  occ. eigenvalues --   -0.35486  -0.35180  -0.34356  -0.33444  -0.33370
 Alpha  occ. eigenvalues --   -0.31912  -0.31642  -0.31349  -0.28296  -0.26657
 Alpha  occ. eigenvalues --   -0.24959  -0.24455  -0.24131  -0.23887  -0.22892
 Alpha  occ. eigenvalues --   -0.19234
 Alpha virt. eigenvalues --    0.00408   0.01837   0.02253   0.02602   0.06130
 Alpha virt. eigenvalues --    0.07308   0.08213   0.09447   0.09639   0.10056
 Alpha virt. eigenvalues --    0.11096   0.11629   0.12168   0.12906   0.13230

 Mulliken charges:
               1
     1  C   -0.192354
     2  O   -0.458355
     3  C   -0.113189
     4  C    0.569873
     5  O   -0.517507
     6  N   -0.423964
     7  C   -0.109288
     8  C   -0.311039
     9  C   -0.073768
    10  C   -0.257952
    11  C   -0.386205
    12  C    0.601433
    13  O   -0.519814
    14  N   -0.449638
    15  C   -0.153756
    16  C   -0.139248
    17  N   -0.507143
    18  C    0.354800
    19  C   -0.189852
    20  C   -0.135910
    21  C   -0.136651
    22  C   -0.136521
    23  C   -0.195290
    24  C   -0.144774
    25  C   -0.133995
    26  C   -0.279744
    27  C   -0.156653
    28  H    0.139390
    29  H    0.161894
    30  H    0.130650
    31  H    0.162603
    32  H    0.131968
    33  H    0.150245
    34  H    0.160580
    35  H    0.142961
    36  H    0.138019
    37  H    0.130267
    38  H    0.151250
    39  H    0.152369
    40  H    0.157152
    41  H    0.162161
    42  H    0.195640
    43  H    0.157330
    44  H    0.148757
    45  H    0.159862
    46  H    0.127087
    47  H    0.125388
    48  H    0.121098
    49  H    0.124315
    50  H    0.122482
    51  H    0.163270
    52  H    0.146678
    53  H    0.159182
    54  H    0.155978
    55  H    0.152892
    56  H    0.130406
    57  H    0.194588
    58  H    0.140041
 Sum of Mulliken charges =  -0.00000

 Dipole moment (field-independent basis, Debye):
    X=             -0.6278    Y=              3.6163    Z=              0.7577  Tot=              3.7478
 Quadrupole moment (field-independent basis, Debye-Ang):
   XX=           -164.8464   YY=           -166.4400   ZZ=           -173.5011
   XY=             24.1818   XZ=            -10.4931   YZ=              5.9357

 Normal termination of Gaussian 16 at Fri Nov  4 22:48:05 2022.
