 Gaussian 16, Revision B.01,
 Gaussian 16:  ES64L-G16RevB.01 20-Dec-2017

 -----------------------------
 #p b3lyp/6-31g(d) opt SCF=XQC
 -----------------------------

 ------------------------------
 Gaussian input prepared by ASE
 ------------------------------
 Symbolic Z-matrix:
 Charge =  0 Multiplicity = 1

 SCF Done:  E(RB3LYP) =  -1163.68877323     A.U. after   15 cycles
 SCF Done:  E(RB3LYP) =  -1163.69494531     A.U. after   15 cycles
 SCF Done:  E(RB3LYP) =  -1163.69334302     A.U. after   15 cycles
 SCF Done:  E(RB3LYP) =  -1163.69911431     A.U. after   13 cycles
 SCF Done:  E(RB3LYP) =  -1163.69973691     A.U. after   12 cycles
 SCF Done:  E(RB3LYP) =  -1163.69871341     A.U. after   13 cycles
 SCF Done:  E(RB3LYP) =  -1163.69990486     A.U. after   11 cycles
 SCF Done:  E(RB3LYP) =  -1163.70023647     A.U. after   11 cycles
 SCF Done:  E(RB3LYP) =  -1163.70033439     A.U. after   12 cycles
 SCF Done:  E(RB3LYP) =  -1163.70043279     A.U. after   11 cycles
 SCF Done:  E(RB3LYP) =  -1163.70045285     A.U. after   10 cycles
 SCF Done:  E(RB3LYP) =  -1163.70046047     A.U. after   10 cycles
 SCF Done:  E(RB3LYP) =  -1163.70046362     A.U. after    9 cycles
 SCF Done:  E(RB3LYP) =  -1163.70046539     A.U. after    8 cycles
 SCF Done:  E(RB3LYP) =  -1163.70046562     A.U. after    7 cycles
 SCF Done:  E(RB3LYP) =  -1163.70046574     A.U. after    7 cycles
 SCF Done:  E(RB3LYP) =  -1163.70046582     A.U. after    7 cycles
 SCF Done:  E(RB3LYP) =  -1163.70046586     A.U. after    7 cycles
 SCF Done:  E(RB3LYP) =  -1163.70046588     A.U. after    7 cycles
 SCF Done:  E(RB3LYP) =  -1163.70046589     A.U. after    6 cycles
 Optimization completed.
    -- Stationary point found.

                         Standard orientation:
 ---------------------------------------------------------------------
 Center     Atomic      Atomic             Coordinates (Angstroms)
 Number     Number       Type             X           Y           Z
 ---------------------------------------------------------------------
      1          6           0       -7.357514    0.087346    1.005712
      2          8           0       -6.120280   -0.605593    1.042968
      3          6           0       -5.080271   -0.106218    0.311472
      4          6           0       -5.141100    1.047000   -0.478695
      5          6           0       -3.994971    1.440116   -1.174628
      6          6           0       -2.802095    0.727252   -1.108527
      7          6           0       -2.754176   -0.428932   -0.310737
      8          7           0       -1.598888   -1.224722   -0.164758
      9          6           0       -0.364891   -1.066381   -0.754184
     10          8           0       -0.057278   -0.187410   -1.555754
     11          7           0        0.522842   -2.083605   -0.407202
     12          7           0        1.850352   -1.861413   -0.811326
     13          6           0        2.824670   -2.139305    0.110356
     14          8           0        2.562612   -2.734917    1.154038
     15          6           0        4.208207   -1.668251   -0.290082
     16          6           0        4.696812   -0.491389    0.594598
     17          6           0        3.687955    0.606853    0.877012
     18          6           0        3.381989    0.945597    2.197717
     19          6           0        2.483733    1.967648    2.513239
     20          6           0        1.865098    2.669088    1.483381
     21          6           0        2.139607    2.351635    0.151002
     22          6           0        3.045089    1.330123   -0.150912
     23          8           0        3.358756    0.954512   -1.435808
     24          6           0        2.766889    1.676552   -2.513550
     25          6           0       -3.890718   -0.837147    0.393371
     26          1           0       -7.259170    1.111079    1.390370
     27          1           0       -8.035133   -0.476005    1.649968
     28          1           0       -7.770294    0.123153   -0.011130
     29          1           0       -6.050746    1.630001   -0.558068
     30          1           0       -4.036672    2.333974   -1.791662
     31          1           0       -1.926296    1.040467   -1.657162
     32          1           0       -1.724024   -2.062822    0.387711
     33          1           0        0.544047   -2.437630    0.550290
     34          1           0        1.936601   -1.068865   -1.441436
     35          1           0        4.898046   -2.510183   -0.167401
     36          1           0        4.215202   -1.376855   -1.342194
     37          1           0        5.023816   -0.897340    1.556828
     38          1           0        5.585893   -0.067612    0.109207
     39          1           0        3.863355    0.388594    2.997899
     40          1           0        2.270357    2.205340    3.551280
     41          1           0        1.157714    3.463782    1.704669
     42          1           0        1.636157    2.893222   -0.640559
     43          1           0        3.182727    1.240132   -3.423911
     44          1           0        1.677912    1.558733   -2.513922
     45          1           0        3.031053    2.740564   -2.469673
     46          1           0       -3.877043   -1.725810    1.019054
 ---------------------------------------------------------------------

 The electronic state is 1-A.
 Alpha  occ. eigenvalues --  -19.18206 -19.17878 -19.12773 -19.11621 -14.38981
 Alpha  occ. eigenvalues --  -14.38796 -14.38255 -10.32830 -10.28584 -10.24918
 Alpha  occ. eigenvalues --  -10.24492 -10.24242 -10.24021 -10.23809 -10.19394
 Alpha  occ. eigenvalues --  -10.19217 -10.19095 -10.19077 -10.18669 -10.18595
 Alpha  occ. eigenvalues --  -10.18452 -10.18435 -10.18317 -10.17924 -10.17657
 Alpha  occ. eigenvalues --   -1.07412  -1.06469  -1.06324  -1.03801  -0.97700
 Alpha  occ. eigenvalues --   -0.95188  -0.85396  -0.84954  -0.83005  -0.78862
 Alpha  occ. eigenvalues --   -0.75712  -0.74852  -0.74446  -0.73195  -0.69756
 Alpha  occ. eigenvalues --   -0.69543  -0.65865  -0.63662  -0.62155  -0.61746
 Alpha  occ. eigenvalues --   -0.59632  -0.58333  -0.57040  -0.55756  -0.53765
 Alpha  occ. eigenvalues --   -0.52444  -0.51629  -0.49374  -0.49020  -0.48020
 Alpha  occ. eigenvalues --   -0.47448  -0.47179  -0.46941  -0.46866  -0.46468
 Alpha  occ. eigenvalues --   -0.45846  -0.44597  -0.43707  -0.43028  -0.42311
 Alpha  occ. eigenvalues --   -0.42058  -0.41607  -0.41326  -0.40891  -0.39154
 Alpha  occ. eigenvalues --   -0.38718  -0.37605  -0.37457  -0.37004  -0.36304
 Alpha  occ. eigenvalues --   -0.35812  -0.35518  -0.34452  -0.33785  -0.32952
 Alpha  occ. eigenvalues --   -0.32174  -0.31752  -0.31237  -0.29723  -0.28224
 Alpha  occ. eigenvalues --   -0.25654  -0.24199  -0.23616  -0.22311  -0.21691
 Alpha  occ. eigenvalues --   -0.20939
 Alpha virt. eigenvalues --   -0.00486   0.00244   0.00963   0.01427   0.02547
 Alpha virt. eigenvalues --    0.05938   0.06578   0.08477   0.09309   0.09600
 Alpha virt. eigenvalues --    0.10645   0.10893   0.13109   0.13295   0.13863

 Mulliken charges:
               1
     1  C   -0.214549
     2  O   -0.511877
     3  C    0.383000
     4  C   -0.197391
     5  C   -0.151545
     6  C   -0.163773
     7  C    0.374264
     8  N   -0.757800
     9  C    0.810204
    10  O   -0.543287
    11  N   -0.494984
    12  N   -0.453460
    13  C    0.593034
    14  O   -0.533825
    15  C   -0.352332
    16  C   -0.332159
    17  C    0.115787
    18  C   -0.192759
    19  C   -0.126466
    20  C   -0.141430
    21  C   -0.180415
    22  C    0.317897
    23  O   -0.531362
    24  C   -0.235558
    25  C   -0.264385
    26  H    0.152719
    27  H    0.169562
    28  H    0.152961
    29  H    0.128694
    30  H    0.131295
    31  H    0.173594
    32  H    0.338031
    33  H    0.352879
    34  H    0.375149
    35  H    0.168264
    36  H    0.163860
    37  H    0.158925
    38  H    0.159593
    39  H    0.130218
    40  H    0.125835
    41  H    0.130114
    42  H    0.136510
    43  H    0.165270
    44  H    0.189825
    45  H    0.152333
    46  H    0.129540
 Sum of Mulliken charges =  -0.00000

 Dipole moment (field-independent basis, Debye):
    X=             -1.9921    Y=              2.1208    Z=             -0.6485  Tot=              2.9811
 Quadrupole moment (field-independent basis, Debye-Ang):
   XX=           -120.3875   YY=           -145.2186   ZZ=           -142.5020
   XY=             -1.0216   XZ=             -8.8339   YZ=             -2.1398

 Normal termination of Gaussian 16 at Fri Nov  4 19:01:14 2022.
