 Gaussian 16, Revision B.01,
 Gaussian 16:  ES64L-G16RevB.01 20-Dec-2017

 -------------------------------------------------------------------
 #p b3lyp/6-31g(d) 6D 10F nosymm GFInput td=(50-50,nstate=2) SCF=XQC
 -------------------------------------------------------------------

 ------------------------------
 Gaussian input prepared by ASE
 ------------------------------
 Symbolic Z-matrix:
 Charge =  0 Multiplicity = 1

                          Input orientation:
 ---------------------------------------------------------------------
 Center     Atomic      Atomic             Coordinates (Angstroms)
 Number     Number       Type             X           Y           Z
 ---------------------------------------------------------------------
      1          6           0        7.162039    1.203320    1.351936
      2          8           0        6.170680    0.655044    0.498178
      3          6           0        4.935448    0.403167    1.024336
      4          6           0        4.568552    0.646881    2.352480
      5          6           0        3.265583    0.338468    2.752017
      6          6           0        2.326182   -0.199789    1.878344
      7          6           0        2.707340   -0.439164    0.546824
      8          7           0        1.837883   -0.975358   -0.425710
      9          6           0        0.529242   -1.377813   -0.281727
     10          8           0       -0.118617   -1.360714    0.762169
     11          7           0        0.003884   -1.904804   -1.460494
     12          7           0       -1.381670   -2.137509   -1.427991
     13          6           0       -2.093424   -1.745878   -2.530737
     14          8           0       -1.525383   -1.396231   -3.564070
     15          6           0       -3.596886   -1.806815   -2.351000
     16          6           0       -4.232404   -0.392223   -2.312986
     17          6           0       -3.514827    0.649446   -1.474121
     18          6           0       -3.106289    1.850809   -2.059312
     19          6           0       -2.468967    2.854797   -1.326621
     20          6           0       -2.223679    2.654403    0.028005
     21          6           0       -2.609644    1.461883    0.644682
     22          6           0       -3.251869    0.467444   -0.099074
     23          8           0       -3.652518   -0.734611    0.434754
     24          6           0       -3.445576   -0.956830    1.827941
     25          6           0        4.006400   -0.136147    0.128785
     26          1           0        6.860421    2.183493    1.744301
     27          1           0        8.055241    1.321347    0.735610
     28          1           0        7.387443    0.533292    2.192110
     29          1           0        5.270086    1.064099    3.064817
     30          1           0        2.975300    0.523698    3.782976
     31          1           0        1.324557   -0.438553    2.203717
     32          1           0        2.262433   -1.155394   -1.326064
     33          1           0        0.225476   -1.469550   -2.357168
     34          1           0       -1.769355   -2.041712   -0.493575
     35          1           0       -4.014555   -2.357058   -3.201037
     36          1           0       -3.843691   -2.355324   -1.439887
     37          1           0       -4.287762   -0.012559   -3.337878
     38          1           0       -5.265757   -0.509840   -1.960844
     39          1           0       -3.294399    1.998104   -3.120054
     40          1           0       -2.166213    3.777131   -1.813647
     41          1           0       -1.723354    3.418558    0.616769
     42          1           0       -2.395122    1.311652    1.695757
     43          1           0       -3.869287   -1.941537    2.035209
     44          1           0       -2.377548   -0.957929    2.070978
     45          1           0       -3.968764   -0.204199    2.430975
     46          1           0        4.323367   -0.309495   -0.896335
 ---------------------------------------------------------------------

 SCF Done:  E(RB3LYP) =  -1163.70047062     A.U. after   15 cycles

 Excitation energies and oscillator strengths:

 Excited state symmetry could not be determined.
 Excited State   1:      Triplet-?Sym    3.6245 eV  342.07 nm  f=0.0000  <S**2>=2.000
      88 -> 92        -0.27043
      88 -> 93        -0.10251
      89 -> 92        -0.18480
      89 -> 93        -0.11475
      89 -> 94        -0.32193
      91 -> 92         0.37398
      91 -> 94        -0.23591
      91 -> 96        -0.12650
 This state for optimization and/or second-order correction.
 Total Energy, E(TD-HF/TD-DFT) =  -1163.56727299
 Copying the excited state density for this state as the 1-particle RhoCI density.

 Excited state symmetry could not be determined.
 Excited State   2:      Triplet-?Sym    3.6920 eV  335.82 nm  f=0.0000  <S**2>=2.000
      87 -> 92         0.12130
      87 -> 93        -0.36081
      87 -> 95        -0.14001
      90 -> 93         0.29834
      90 -> 95        -0.45281

 Excited state symmetry could not be determined.
 Excited State   3:      Singlet-?Sym    4.8985 eV  253.10 nm  f=0.1143  <S**2>=0.000
      88 -> 94        -0.16364
      89 -> 92         0.25521
      89 -> 94        -0.12552
      91 -> 92         0.53072
      91 -> 93         0.13704
      91 -> 94         0.25020

 Excited state symmetry could not be determined.
 Excited State   4:      Singlet-?Sym    5.1034 eV  242.95 nm  f=0.0889  <S**2>=0.000
      87 -> 95        -0.17606
      89 -> 92         0.25162
      90 -> 92        -0.30859
      90 -> 93         0.31651
      91 -> 92        -0.29235
      91 -> 93         0.20940
      91 -> 94         0.22640

 Alpha  occ. eigenvalues --  -19.18205 -19.17878 -19.12773 -19.11621 -14.38981
 Alpha  occ. eigenvalues --  -14.38796 -14.38255 -10.32830 -10.28584 -10.24918
 Alpha  occ. eigenvalues --  -10.24491 -10.24242 -10.24021 -10.23809 -10.19394
 Alpha  occ. eigenvalues --  -10.19217 -10.19095 -10.19077 -10.18669 -10.18595
 Alpha  occ. eigenvalues --  -10.18452 -10.18435 -10.18318 -10.17924 -10.17657
 Alpha  occ. eigenvalues --   -1.07412  -1.06469  -1.06324  -1.03801  -0.97700
 Alpha  occ. eigenvalues --   -0.95188  -0.85396  -0.84954  -0.83005  -0.78862
 Alpha  occ. eigenvalues --   -0.75712  -0.74852  -0.74446  -0.73195  -0.69756
 Alpha  occ. eigenvalues --   -0.69543  -0.65865  -0.63662  -0.62155  -0.61746
 Alpha  occ. eigenvalues --   -0.59632  -0.58333  -0.57040  -0.55756  -0.53765
 Alpha  occ. eigenvalues --   -0.52444  -0.51629  -0.49374  -0.49020  -0.48020
 Alpha  occ. eigenvalues --   -0.47448  -0.47179  -0.46941  -0.46866  -0.46468
 Alpha  occ. eigenvalues --   -0.45846  -0.44597  -0.43707  -0.43028  -0.42311
 Alpha  occ. eigenvalues --   -0.42058  -0.41607  -0.41326  -0.40891  -0.39154
 Alpha  occ. eigenvalues --   -0.38718  -0.37605  -0.37457  -0.37004  -0.36304
 Alpha  occ. eigenvalues --   -0.35812  -0.35518  -0.34452  -0.33785  -0.32952
 Alpha  occ. eigenvalues --   -0.32174  -0.31752  -0.31237  -0.29723  -0.28224
 Alpha  occ. eigenvalues --   -0.25654  -0.24199  -0.23616  -0.22311  -0.21691
 Alpha  occ. eigenvalues --   -0.20939
 Alpha virt. eigenvalues --   -0.00486   0.00244   0.00963   0.01427   0.02547
 Alpha virt. eigenvalues --    0.05938   0.06578   0.08477   0.09309   0.09600
 Alpha virt. eigenvalues --    0.10645   0.10893   0.13109   0.13295   0.13863

 Mulliken charges:
               1
     1  C   -0.214551
     2  O   -0.511874
     3  C    0.382994
     4  C   -0.197400
     5  C   -0.151547
     6  C   -0.163741
     7  C    0.374227
     8  N   -0.757799
     9  C    0.810192
    10  O   -0.543280
    11  N   -0.494982
    12  N   -0.453452
    13  C    0.593041
    14  O   -0.533824
    15  C   -0.352368
    16  C   -0.332153
    17  C    0.115793
    18  C   -0.192751
    19  C   -0.126468
    20  C   -0.141429
    21  C   -0.180435
    22  C    0.317921
    23  O   -0.531370
    24  C   -0.235575
    25  C   -0.264363
    26  H    0.152719
    27  H    0.169562
    28  H    0.152962
    29  H    0.128697
    30  H    0.131295
    31  H    0.173590
    32  H    0.338031
    33  H    0.352881
    34  H    0.375149
    35  H    0.168269
    36  H    0.163864
    37  H    0.158927
    38  H    0.159593
    39  H    0.130216
    40  H    0.125835
    41  H    0.130114
    42  H    0.136512
    43  H    0.165273
    44  H    0.189834
    45  H    0.152334
    46  H    0.129538
 Sum of Mulliken charges =  -0.00000

 Dipole moment (field-independent basis, Debye):
    X=              1.2416    Y=              1.1627    Z=              2.4481  Tot=              2.9810
 Quadrupole moment (field-independent basis, Debye-Ang):
   XX=           -120.2874   YY=           -145.0657   ZZ=           -143.9329
   XY=              8.8689   XZ=              1.1318   YZ=              0.3657

 Normal termination of Gaussian 16 at Sat Nov  5 11:45:49 2022.
