 Gaussian 16, Revision B.01,
 Gaussian 16:  ES64L-G16RevB.01 20-Dec-2017

 -----------------------------
 #p b3lyp/6-31g(d) opt SCF=XQC
 -----------------------------

 ------------------------------
 Gaussian input prepared by ASE
 ------------------------------
 Symbolic Z-matrix:
 Charge =  0 Multiplicity = 1

 SCF Done:  E(RB3LYP) =  -857.994917735     A.U. after   14 cycles
 SCF Done:  E(RB3LYP) =  -858.000129450     A.U. after   12 cycles
 SCF Done:  E(RB3LYP) =  -858.000512325     A.U. after   11 cycles
 SCF Done:  E(RB3LYP) =  -858.000644630     A.U. after   11 cycles
 SCF Done:  E(RB3LYP) =  -858.000689879     A.U. after   10 cycles
 SCF Done:  E(RB3LYP) =  -858.000768638     A.U. after   11 cycles
 SCF Done:  E(RB3LYP) =  -858.000839878     A.U. after   11 cycles
 SCF Done:  E(RB3LYP) =  -858.000859540     A.U. after   11 cycles
 SCF Done:  E(RB3LYP) =  -858.000924101     A.U. after   10 cycles
 SCF Done:  E(RB3LYP) =  -858.000623106     A.U. after   14 cycles
 SCF Done:  E(RB3LYP) =  -858.001278690     A.U. after   13 cycles
 SCF Done:  E(RB3LYP) =  -858.001273002     A.U. after   10 cycles
 SCF Done:  E(RB3LYP) =  -858.001283682     A.U. after   10 cycles
 SCF Done:  E(RB3LYP) =  -858.001268479     A.U. after   11 cycles
 SCF Done:  E(RB3LYP) =  -858.001270801     A.U. after   10 cycles
 SCF Done:  E(RB3LYP) =  -858.001283059     A.U. after   10 cycles
 SCF Done:  E(RB3LYP) =  -858.001282737     A.U. after    7 cycles
 SCF Done:  E(RB3LYP) =  -858.001282551     A.U. after    6 cycles
 SCF Done:  E(RB3LYP) =  -858.001282437     A.U. after    6 cycles
 SCF Done:  E(RB3LYP) =  -858.001282364     A.U. after    5 cycles
 Optimization completed.
    -- Stationary point found.

                         Standard orientation:
 ---------------------------------------------------------------------
 Center     Atomic      Atomic             Coordinates (Angstroms)
 Number     Number       Type             X           Y           Z
 ---------------------------------------------------------------------
      1          6           0       -2.758866    3.270364    0.652101
      2          6           0       -3.229649    1.884736    0.273630
      3          6           0       -4.563391    1.501515    0.486471
      4          6           0       -4.997797    0.222286    0.150576
      5          6           0       -4.104793   -0.698509   -0.403509
      6          6           0       -2.775902   -0.335802   -0.628665
      7          6           0       -1.807492   -1.316927   -1.269542
      8          7           0       -0.515088   -1.406762   -0.616320
      9          7           0        0.541935   -0.602460   -1.042195
     10          6           0        1.473143   -0.881008   -0.130806
     11          7           0        2.727652   -0.334904   -0.183030
     12          6           0        3.640126   -0.449423    0.954956
     13          6           0        4.176405    0.930575    1.354465
     14          6           0        4.915026    1.622827    0.180130
     15          6           0        4.476766    1.054184   -1.187018
     16          6           0        2.994684    0.676770   -1.204065
     17          7           0        1.102022   -1.777175    0.842614
     18          6           0       -0.147741   -2.060295    0.507276
     19          7           0       -0.991910   -2.873873    1.241402
     20          6           0       -2.350424    0.955245   -0.288011
     21          1           0       -2.771800    3.412296    1.740461
     22          1           0       -3.403948    4.044959    0.219798
     23          1           0       -1.736648    3.452497    0.306659
     24          1           0       -5.262799    2.212928    0.920723
     25          1           0       -6.031992   -0.063471    0.324981
     26          1           0       -4.447157   -1.698797   -0.661673
     27          1           0       -1.589208   -1.029555   -2.303112
     28          1           0       -2.258308   -2.316812   -1.307279
     29          1           0        3.091591   -0.912447    1.776922
     30          1           0        4.478305   -1.120978    0.709970
     31          1           0        4.837834    0.829152    2.223350
     32          1           0        3.326303    1.544405    1.677122
     33          1           0        4.720321    2.701835    0.213472
     34          1           0        6.000005    1.503333    0.286791
     35          1           0        4.674199    1.778434   -1.985579
     36          1           0        5.065654    0.159410   -1.425728
     37          1           0        2.703579    0.274330   -2.181130
     38          1           0        2.369099    1.571513   -1.041399
     39          1           0       -1.672388   -3.397304    0.704013
     40          1           0       -0.473250   -3.465654    1.879329
     41          1           0       -1.312246    1.226913   -0.462921
 ---------------------------------------------------------------------

 The electronic state is 1-A.
 Alpha  occ. eigenvalues --  -14.38769 -14.35294 -14.33006 -14.31333 -14.29382
 Alpha  occ. eigenvalues --  -10.27327 -10.24319 -10.23365 -10.20142 -10.20077
 Alpha  occ. eigenvalues --  -10.19371 -10.19271 -10.18650 -10.18568 -10.18225
 Alpha  occ. eigenvalues --  -10.17925 -10.17854 -10.17805 -10.17802 -10.17632
 Alpha  occ. eigenvalues --   -1.04873  -0.93863  -0.91996  -0.87558  -0.84979
 Alpha  occ. eigenvalues --   -0.80552  -0.78567  -0.76560  -0.74748  -0.74464
 Alpha  occ. eigenvalues --   -0.69491  -0.67947  -0.65334  -0.63266  -0.60305
 Alpha  occ. eigenvalues --   -0.58532  -0.58033  -0.56855  -0.54170  -0.51985
 Alpha  occ. eigenvalues --   -0.50340  -0.49864  -0.48676  -0.47663  -0.46160
 Alpha  occ. eigenvalues --   -0.45646  -0.45373  -0.43799  -0.42925  -0.41710
 Alpha  occ. eigenvalues --   -0.41384  -0.40698  -0.40240  -0.40010  -0.39610
 Alpha  occ. eigenvalues --   -0.39425  -0.37649  -0.37306  -0.35612  -0.34602
 Alpha  occ. eigenvalues --   -0.34127  -0.33645  -0.33342  -0.31913  -0.31733
 Alpha  occ. eigenvalues --   -0.31121  -0.30390  -0.27482  -0.25246  -0.24070
 Alpha  occ. eigenvalues --   -0.23588  -0.22679  -0.17242
 Alpha virt. eigenvalues --   -0.00118   0.00574   0.05061   0.06218   0.08634
 Alpha virt. eigenvalues --    0.09436   0.10456   0.11372   0.12195   0.12699
 Alpha virt. eigenvalues --    0.13135   0.14372   0.14642   0.15154   0.15487

 Mulliken charges:
               1
     1  C   -0.530379
     2  C    0.179010
     3  C   -0.174716
     4  C   -0.126047
     5  C   -0.192179
     6  C    0.172083
     7  C   -0.238597
     8  N   -0.308683
     9  N   -0.411533
    10  C    0.681977
    11  N   -0.510772
    12  C   -0.138506
    13  C   -0.275951
    14  C   -0.261256
    15  C   -0.292451
    16  C   -0.105795
    17  N   -0.592621
    18  C    0.706453
    19  N   -0.788533
    20  C   -0.230961
    21  H    0.163751
    22  H    0.158492
    23  H    0.159582
    24  H    0.120811
    25  H    0.126670
    26  H    0.113656
    27  H    0.193204
    28  H    0.141724
    29  H    0.181982
    30  H    0.132235
    31  H    0.135235
    32  H    0.144334
    33  H    0.135870
    34  H    0.134986
    35  H    0.139041
    36  H    0.145432
    37  H    0.158076
    38  H    0.132059
    39  H    0.325654
    40  H    0.342432
    41  H    0.154231
 Sum of Mulliken charges =  -0.00000

 Dipole moment (field-independent basis, Debye):
    X=             -1.1833    Y=             -0.9283    Z=              0.1691  Tot=              1.5135
 Quadrupole moment (field-independent basis, Debye-Ang):
   XX=           -107.0180   YY=           -103.6893   ZZ=           -120.7367
   XY=              7.9849   XZ=              0.1324   YZ=              0.8535

 1\1\GINC-NODE63\FOpt\RB3LYP\6-31G(d)\C15H21N5\WYKGROUP\04-Nov-2022\0\\
 #p b3lyp/6-31g(d) opt SCF=XQC\\Gaussian input prepared by ASE\\0,1\C,3
 .1211227589,-1.8021946674,2.1817729694\C,3.5020671592,-0.7340615646,1.
 1823657677\C,4.7466969394,-0.0899384651,1.2662090186\C,5.0962203183,0.
 9028617539,0.3550877239\C,4.2056652421,1.2710217964,-0.6566942341\C,2.
 9655559423,0.6390371608,-0.7612304061\C,2.007290153,1.0035251718,-1.88
 37375462\N,0.6317832396,1.2002435003,-1.466170835\N,-0.2680272629,0.13
 48713686,-1.4960149868\C,-1.3437632782,0.6782170917,-0.9277413829\N,-2

 Normal termination of Gaussian 16 at Fri Nov  4 19:18:59 2022.
