 Gaussian 16, Revision B.01,
 Gaussian 16:  ES64L-G16RevB.01 20-Dec-2017

 -------------------------------------------------------------------
 #p b3lyp/6-31g(d) 6D 10F nosymm GFInput td=(50-50,nstate=2) SCF=XQC
 -------------------------------------------------------------------

 ------------------------------
 Gaussian input prepared by ASE
 ------------------------------
 Symbolic Z-matrix:
 Charge =  0 Multiplicity = 1

                          Input orientation:
 ---------------------------------------------------------------------
 Center     Atomic      Atomic             Coordinates (Angstroms)
 Number     Number       Type             X           Y           Z
 ---------------------------------------------------------------------
      1          6           0        3.121123   -1.802195    2.181773
      2          6           0        3.502067   -0.734062    1.182366
      3          6           0        4.746697   -0.089938    1.266209
      4          6           0        5.096220    0.902862    0.355088
      5          6           0        4.205665    1.271022   -0.656694
      6          6           0        2.965556    0.639037   -0.761230
      7          6           0        2.007290    1.003525   -1.883738
      8          7           0        0.631783    1.200244   -1.466171
      9          7           0       -0.268027    0.134871   -1.496015
     10          6           0       -1.343763    0.678217   -0.927741
     11          7           0       -2.517400   -0.012369   -0.784851
     12          6           0       -3.591103    0.506769    0.062730
     13          6           0       -4.040123   -0.556477    1.072425
     14          6           0       -4.529696   -1.848140    0.368321
     15          6           0       -3.957498   -1.973780   -1.060428
     16          6           0       -2.533119   -1.425456   -1.159340
     17          7           0       -1.207268    1.985602   -0.527107
     18          6           0        0.043552    2.258346   -0.867070
     19          7           0        0.688460    3.451232   -0.593965
     20          6           0        2.625308   -0.360060    0.160678
     21          1           0        2.991112   -1.379788    3.186517
     22          1           0        3.895205   -2.575640    2.256549
     23          1           0        2.182427   -2.291398    1.904355
     24          1           0        5.443180   -0.369815    2.053887
     25          1           0        6.061094    1.397260    0.433954
     26          1           0        4.480968    2.049996   -1.365105
     27          1           0        1.969701    0.209677   -2.636659
     28          1           0        2.357659    1.908997   -2.395392
     29          1           0       -3.215244    1.397511    0.568911
     30          1           0       -4.447541    0.824808   -0.552828
     31          1           0       -4.826581   -0.142582    1.715006
     32          1           0       -3.188846   -0.784756    1.725712
     33          1           0       -4.236017   -2.720965    0.964315
     34          1           0       -5.625166   -1.865137    0.318406
     35          1           0       -3.965181   -3.020024   -1.386818
     36          1           0       -4.591476   -1.422725   -1.766688
     37          1           0       -2.145560   -1.522124   -2.180030
     38          1           0       -1.852057   -2.008495   -0.515445
     39          1           0        1.384086    3.738190   -1.271886
     40          1           0        0.027322    4.191085   -0.389814
     41          1           0        1.655190   -0.843325    0.073863
 ---------------------------------------------------------------------

 SCF Done:  E(RB3LYP) =  -858.001281890     A.U. after   14 cycles

 Excitation energies and oscillator strengths:

 Excited state symmetry could not be determined.
 Excited State   1:      Triplet-?Sym    3.6752 eV  337.36 nm  f=0.0000  <S**2>=2.000
      70 -> 74         0.36561
      70 -> 75         0.27923
      71 -> 74         0.33251
      71 -> 75        -0.33737
      73 -> 74        -0.22441
 This state for optimization and/or second-order correction.
 Total Energy, E(TD-HF/TD-DFT) =  -857.866222377
 Copying the excited state density for this state as the 1-particle RhoCI density.

 Excited state symmetry could not be determined.
 Excited State   2:      Triplet-?Sym    3.9377 eV  314.86 nm  f=0.0000  <S**2>=2.000
      71 -> 75        -0.12122
      73 -> 74         0.53500
      73 -> 76        -0.36786
      73 -> 79         0.10353

 Excited state symmetry could not be determined.
 Excited State   3:      Singlet-?Sym    4.0537 eV  305.85 nm  f=0.0161  <S**2>=0.000
      73 -> 74         0.70392

 Excited state symmetry could not be determined.
 Excited State   4:      Singlet-?Sym    4.2739 eV  290.10 nm  f=0.0051  <S**2>=0.000
      73 -> 75         0.70425

 Alpha  occ. eigenvalues --  -14.38769 -14.35294 -14.33005 -14.31334 -14.29382
 Alpha  occ. eigenvalues --  -10.27327 -10.24319 -10.23365 -10.20142 -10.20077
 Alpha  occ. eigenvalues --  -10.19371 -10.19271 -10.18650 -10.18568 -10.18226
 Alpha  occ. eigenvalues --  -10.17925 -10.17854 -10.17805 -10.17802 -10.17631
 Alpha  occ. eigenvalues --   -1.04873  -0.93863  -0.91996  -0.87558  -0.84979
 Alpha  occ. eigenvalues --   -0.80552  -0.78567  -0.76560  -0.74748  -0.74464
 Alpha  occ. eigenvalues --   -0.69491  -0.67947  -0.65334  -0.63266  -0.60305
 Alpha  occ. eigenvalues --   -0.58532  -0.58033  -0.56855  -0.54170  -0.51985
 Alpha  occ. eigenvalues --   -0.50340  -0.49864  -0.48676  -0.47663  -0.46160
 Alpha  occ. eigenvalues --   -0.45646  -0.45373  -0.43799  -0.42925  -0.41710
 Alpha  occ. eigenvalues --   -0.41384  -0.40698  -0.40240  -0.40010  -0.39610
 Alpha  occ. eigenvalues --   -0.39425  -0.37649  -0.37306  -0.35612  -0.34602
 Alpha  occ. eigenvalues --   -0.34127  -0.33645  -0.33342  -0.31913  -0.31733
 Alpha  occ. eigenvalues --   -0.31121  -0.30391  -0.27482  -0.25246  -0.24070
 Alpha  occ. eigenvalues --   -0.23588  -0.22679  -0.17243
 Alpha virt. eigenvalues --   -0.00118   0.00574   0.05061   0.06218   0.08635
 Alpha virt. eigenvalues --    0.09436   0.10455   0.11372   0.12195   0.12699
 Alpha virt. eigenvalues --    0.13135   0.14372   0.14642   0.15154   0.15487

 Mulliken charges:
               1
     1  C   -0.530380
     2  C    0.179006
     3  C   -0.174704
     4  C   -0.126061
     5  C   -0.192175
     6  C    0.172103
     7  C   -0.238599
     8  N   -0.308671
     9  N   -0.411506
    10  C    0.681926
    11  N   -0.510777
    12  C   -0.138505
    13  C   -0.275920
    14  C   -0.261269
    15  C   -0.292454
    16  C   -0.105802
    17  N   -0.592591
    18  C    0.706461
    19  N   -0.788553
    20  C   -0.230986
    21  H    0.163752
    22  H    0.158492
    23  H    0.159582
    24  H    0.120810
    25  H    0.126672
    26  H    0.113655
    27  H    0.193204
    28  H    0.141724
    29  H    0.181980
    30  H    0.132232
    31  H    0.135230
    32  H    0.144330
    33  H    0.135870
    34  H    0.134987
    35  H    0.139043
    36  H    0.145434
    37  H    0.158077
    38  H    0.132060
    39  H    0.325654
    40  H    0.342432
    41  H    0.154237
 Sum of Mulliken charges =  -0.00000

 Dipole moment (field-independent basis, Debye):
    X=              1.0489    Y=              1.0634    Z=             -0.2442  Tot=              1.5135
 Quadrupole moment (field-independent basis, Debye-Ang):
   XX=           -108.4460   YY=           -106.0983   ZZ=           -115.9285
   XY=              7.7899   XZ=             -2.6407   YZ=             -8.1954

 Normal termination of Gaussian 16 at Sat Nov  5 11:38:33 2022.
