 Gaussian 16, Revision B.01,
 Gaussian 16:  ES64L-G16RevB.01 20-Dec-2017

 -----------------------------
 #p b3lyp/6-31g(d) opt SCF=XQC
 -----------------------------

 ------------------------------
 Gaussian input prepared by ASE
 ------------------------------
 Symbolic Z-matrix:
 Charge =  0 Multiplicity = 1

 SCF Done:  E(RB3LYP) =  -1122.64629183     A.U. after   16 cycles
 SCF Done:  E(RB3LYP) =  -1122.64915150     A.U. after   13 cycles
 SCF Done:  E(RB3LYP) =  -1122.65018440     A.U. after   13 cycles
 SCF Done:  E(RB3LYP) =  -1122.65167412     A.U. after   12 cycles
 SCF Done:  E(RB3LYP) =  -1122.65174003     A.U. after   11 cycles
 SCF Done:  E(RB3LYP) =  -1122.65175372     A.U. after   11 cycles
 SCF Done:  E(RB3LYP) =  -1122.65176443     A.U. after    9 cycles
 SCF Done:  E(RB3LYP) =  -1122.65176914     A.U. after   10 cycles
 SCF Done:  E(RB3LYP) =  -1122.65177171     A.U. after    9 cycles
 SCF Done:  E(RB3LYP) =  -1122.65177446     A.U. after   10 cycles
 SCF Done:  E(RB3LYP) =  -1122.65177628     A.U. after   10 cycles
 SCF Done:  E(RB3LYP) =  -1122.65177755     A.U. after    9 cycles
 SCF Done:  E(RB3LYP) =  -1122.65177788     A.U. after    8 cycles
 SCF Done:  E(RB3LYP) =  -1122.65177797     A.U. after    8 cycles
 SCF Done:  E(RB3LYP) =  -1122.65177801     A.U. after    7 cycles
 Optimization completed.
    -- Stationary point found.

                         Standard orientation:
 ---------------------------------------------------------------------
 Center     Atomic      Atomic             Coordinates (Angstroms)
 Number     Number       Type             X           Y           Z
 ---------------------------------------------------------------------
      1          6           0       -2.754870   -2.355881    1.462761
      2          6           0       -3.794468   -1.623732    0.609200
      3          6           0       -3.248170   -0.984124   -0.675183
      4          7           0       -2.275422    0.098091   -0.429143
      5          6           0       -2.801023    1.351141   -0.181911
      6          8           0       -4.000570    1.584260   -0.171574
      7          6           0       -1.777048    2.457090    0.031082
      8          8           0       -0.599279    2.004801    0.696905
      9          6           0       -0.047478    0.886777    0.135027
     10          6           0        1.330515    0.736023    0.196154
     11          6           0        1.926838   -0.418138   -0.334231
     12          7           0        3.296313   -0.593949   -0.280414
     13          6           0        4.400113   -0.241820    0.018839
     14         16           0        5.905658    0.125609    0.367432
     15          6           0        1.128389   -1.396363   -0.936447
     16          6           0       -0.252908   -1.232056   -0.992823
     17          6           0       -0.872784   -0.099622   -0.449252
     18          1           0       -2.273212   -3.167867    0.904229
     19          1           0       -1.967979   -1.678548    1.811436
     20          1           0       -3.225911   -2.797140    2.347915
     21          1           0       -4.584202   -2.324704    0.306214
     22          1           0       -4.286329   -0.840993    1.197574
     23          1           0       -2.784050   -1.734362   -1.317441
     24          1           0       -4.071285   -0.533753   -1.233216
     25          1           0       -2.225654    3.222570    0.663590
     26          1           0       -1.517162    2.905706   -0.940603
     27          1           0        1.926049    1.514708    0.659430
     28          1           0        1.593127   -2.282076   -1.354867
     29          1           0       -0.844003   -2.010551   -1.458221
 ---------------------------------------------------------------------

 The electronic state is 1-A.
 Alpha  occ. eigenvalues --  -88.88074 -19.19937 -19.13730 -14.39859 -14.38812
 Alpha  occ. eigenvalues --  -10.30722 -10.30364 -10.27187 -10.26578 -10.26512
 Alpha  occ. eigenvalues --  -10.25910 -10.23631 -10.21779 -10.21401 -10.21298
 Alpha  occ. eigenvalues --  -10.19608 -10.18440  -7.94316  -5.90838  -5.90128
 Alpha  occ. eigenvalues --   -5.90072  -1.09489  -1.05440  -0.98382  -0.96655
 Alpha  occ. eigenvalues --   -0.87559  -0.80594  -0.79730  -0.78151  -0.76219
 Alpha  occ. eigenvalues --   -0.73829  -0.70011  -0.67882  -0.64655  -0.60583
 Alpha  occ. eigenvalues --   -0.59531  -0.57899  -0.53994  -0.52095  -0.51430
 Alpha  occ. eigenvalues --   -0.49636  -0.46999  -0.46421  -0.45436  -0.45054
 Alpha  occ. eigenvalues --   -0.44648  -0.44151  -0.43542  -0.42619  -0.41711
 Alpha  occ. eigenvalues --   -0.41209  -0.40510  -0.40174  -0.38320  -0.36734
 Alpha  occ. eigenvalues --   -0.35676  -0.35486  -0.34578  -0.34172  -0.32025
 Alpha  occ. eigenvalues --   -0.27204  -0.27005  -0.26202  -0.25146  -0.21648
 Alpha virt. eigenvalues --   -0.05103  -0.02121  -0.02043   0.00114   0.04818
 Alpha virt. eigenvalues --    0.06986   0.08825   0.09019   0.10591   0.11189
 Alpha virt. eigenvalues --    0.12061   0.13266   0.13889   0.15027   0.15271

 Mulliken charges:
               1
     1  C   -0.448915
     2  C   -0.255435
     3  C   -0.159970
     4  N   -0.548327
     5  C    0.573230
     6  O   -0.500795
     7  C   -0.137503
     8  O   -0.517216
     9  C    0.325560
    10  C   -0.205672
    11  C    0.282703
    12  N   -0.419562
    13  C    0.170872
    14  S   -0.097629
    15  C   -0.145291
    16  C   -0.199749
    17  C    0.341540
    18  H    0.139973
    19  H    0.157987
    20  H    0.152742
    21  H    0.142198
    22  H    0.168539
    23  H    0.151962
    24  H    0.187013
    25  H    0.197121
    26  H    0.173710
    27  H    0.166343
    28  H    0.153288
    29  H    0.151281
 Sum of Mulliken charges =  -0.00000

 Dipole moment (field-independent basis, Debye):
    X=             -2.2116    Y=             -1.5605    Z=             -1.2368  Tot=              2.9759
 Quadrupole moment (field-independent basis, Debye-Ang):
   XX=           -131.8123   YY=            -99.1855   ZZ=           -104.6371
   XY=              7.5100   XZ=             -0.1533   YZ=              1.6419

 Normal termination of Gaussian 16 at Fri Nov  4 18:53:55 2022.
