 Gaussian 16, Revision B.01,
 Gaussian 16:  ES64L-G16RevB.01 20-Dec-2017

 -------------------------------------------------------------------
 #p b3lyp/6-31g(d) 6D 10F nosymm GFInput td=(50-50,nstate=2) SCF=XQC
 -------------------------------------------------------------------

 ------------------------------
 Gaussian input prepared by ASE
 ------------------------------
 Symbolic Z-matrix:
 Charge =  0 Multiplicity = 1

                          Input orientation:
 ---------------------------------------------------------------------
 Center     Atomic      Atomic             Coordinates (Angstroms)
 Number     Number       Type             X           Y           Z
 ---------------------------------------------------------------------
      1          6           0        2.286637    1.958625    0.379975
      2          6           0        3.007659    0.871932   -0.422895
      3          6           0        2.111888    0.058930   -1.368305
      4          7           0        1.088052   -0.741953   -0.669513
      5          6           0        1.490728   -1.976045   -0.197939
      6          8           0        2.622523   -2.412721   -0.345312
      7          6           0        0.406987   -2.798092    0.485258
      8          8           0       -0.525179   -1.997767    1.210220
      9          6           0       -1.040504   -0.961559    0.481603
     10          6           0       -2.339391   -0.554664    0.751153
     11          6           0       -2.886110    0.531467    0.050855
     12          7           0       -4.175185    0.959054    0.305259
     13          6           0       -5.220409    0.891762    0.883965
     14         16           0       -6.644879    0.893865    1.586864
     15          6           0       -2.123331    1.181112   -0.925484
     16          6           0       -0.821927    0.761784   -1.187532
     17          6           0       -0.246730   -0.304753   -0.484845
     18          1           0        1.800687    2.690583   -0.276806
     19          1           0        1.517086    1.535040    1.034130
     20          1           0        2.995412    2.502305    1.014118
     21          1           0        3.793155    1.328277   -1.040622
     22          1           0        3.513856    0.173057    0.252478
     23          1           0        1.616346    0.709145   -2.091091
     24          1           0        2.725537   -0.650371   -1.926948
     25          1           0        0.883415   -3.462352    1.205710
     26          1           0       -0.117918   -3.407135   -0.267410
     27          1           0       -2.911458   -1.082783    1.505781
     28          1           0       -2.552301    2.013234   -1.472385
     29          1           0       -0.254648    1.290026   -1.943308
 ---------------------------------------------------------------------

 SCF Done:  E(RB3LYP) =  -1122.65177325     A.U. after   16 cycles

 Excitation energies and oscillator strengths:

 Excited state symmetry could not be determined.
 Excited State   1:      Triplet-?Sym    2.9195 eV  424.68 nm  f=0.0000  <S**2>=2.000
      65 -> 66         0.66419
 This state for optimization and/or second-order correction.
 Total Energy, E(TD-HF/TD-DFT) =  -1122.54448431
 Copying the excited state density for this state as the 1-particle RhoCI density.

 Excited state symmetry could not be determined.
 Excited State   2:      Triplet-?Sym    3.8530 eV  321.78 nm  f=0.0000  <S**2>=2.000
      64 -> 67         0.16923
      64 -> 68        -0.17787
      65 -> 66        -0.13943
      65 -> 67         0.45074
      65 -> 68        -0.43633

 Excited state symmetry could not be determined.
 Excited State   3:      Singlet-?Sym    4.1584 eV  298.16 nm  f=0.5382  <S**2>=0.000
      64 -> 66         0.12394
      65 -> 66         0.66665
      65 -> 68         0.10753

 Excited state symmetry could not be determined.
 Excited State   4:      Singlet-?Sym    4.3198 eV  287.01 nm  f=0.0026  <S**2>=0.000
      62 -> 67         0.10157
      62 -> 68         0.10641
      64 -> 67        -0.10887
      65 -> 67         0.50392
      65 -> 68         0.43183

 Alpha  occ. eigenvalues --  -88.88074 -19.19937 -19.13730 -14.39859 -14.38812
 Alpha  occ. eigenvalues --  -10.30722 -10.30364 -10.27187 -10.26578 -10.26512
 Alpha  occ. eigenvalues --  -10.25910 -10.23631 -10.21779 -10.21401 -10.21298
 Alpha  occ. eigenvalues --  -10.19608 -10.18440  -7.94316  -5.90838  -5.90128
 Alpha  occ. eigenvalues --   -5.90072  -1.09489  -1.05440  -0.98382  -0.96655
 Alpha  occ. eigenvalues --   -0.87559  -0.80594  -0.79730  -0.78151  -0.76219
 Alpha  occ. eigenvalues --   -0.73829  -0.70011  -0.67882  -0.64655  -0.60583
 Alpha  occ. eigenvalues --   -0.59531  -0.57899  -0.53994  -0.52094  -0.51430
 Alpha  occ. eigenvalues --   -0.49636  -0.46999  -0.46421  -0.45436  -0.45054
 Alpha  occ. eigenvalues --   -0.44648  -0.44151  -0.43542  -0.42619  -0.41711
 Alpha  occ. eigenvalues --   -0.41209  -0.40510  -0.40174  -0.38320  -0.36734
 Alpha  occ. eigenvalues --   -0.35676  -0.35486  -0.34578  -0.34172  -0.32025
 Alpha  occ. eigenvalues --   -0.27204  -0.27005  -0.26202  -0.25146  -0.21648
 Alpha virt. eigenvalues --   -0.05103  -0.02121  -0.02043   0.00114   0.04818
 Alpha virt. eigenvalues --    0.06986   0.08825   0.09019   0.10591   0.11189
 Alpha virt. eigenvalues --    0.12061   0.13266   0.13889   0.15027   0.15271

 Mulliken charges:
               1
     1  C   -0.448910
     2  C   -0.255431
     3  C   -0.159967
     4  N   -0.548310
     5  C    0.573212
     6  O   -0.500797
     7  C   -0.137480
     8  O   -0.517222
     9  C    0.325554
    10  C   -0.205694
    11  C    0.282732
    12  N   -0.419563
    13  C    0.170873
    14  S   -0.097628
    15  C   -0.145308
    16  C   -0.199752
    17  C    0.341551
    18  H    0.139970
    19  H    0.157987
    20  H    0.152740
    21  H    0.142196
    22  H    0.168538
    23  H    0.151960
    24  H    0.187012
    25  H    0.197119
    26  H    0.173707
    27  H    0.166344
    28  H    0.153288
    29  H    0.151281
 Sum of Mulliken charges =  -0.00000

 Dipole moment (field-independent basis, Debye):
    X=              2.0618    Y=              0.8026    Z=             -1.9902  Tot=              2.9759
 Quadrupole moment (field-independent basis, Debye-Ang):
   XX=           -132.2371   YY=           -104.1015   ZZ=           -104.1559
   XY=             10.7069   XZ=              4.7951   YZ=             -4.2734

 Normal termination of Gaussian 16 at Sat Nov  5 11:40:22 2022.
