 Gaussian 16, Revision B.01,
 Gaussian 16:  ES64L-G16RevB.01 20-Dec-2017

 -----------------------------
 #p b3lyp/6-31g(d) opt SCF=XQC
 -----------------------------

 ------------------------------
 Gaussian input prepared by ASE
 ------------------------------
 Symbolic Z-matrix:
 Charge =  0 Multiplicity = 1

 SCF Done:  E(RB3LYP) =  -615.716929227     A.U. after   14 cycles
 SCF Done:  E(RB3LYP) =  -615.720372721     A.U. after   12 cycles
 SCF Done:  E(RB3LYP) =  -615.720612364     A.U. after   11 cycles
 SCF Done:  E(RB3LYP) =  -615.720673718     A.U. after   11 cycles
 SCF Done:  E(RB3LYP) =  -615.720710358     A.U. after   11 cycles
 SCF Done:  E(RB3LYP) =  -615.720742834     A.U. after   10 cycles
 SCF Done:  E(RB3LYP) =  -615.720758612     A.U. after   10 cycles
 SCF Done:  E(RB3LYP) =  -615.720761712     A.U. after    8 cycles
 SCF Done:  E(RB3LYP) =  -615.720762714     A.U. after    8 cycles
 SCF Done:  E(RB3LYP) =  -615.720763964     A.U. after    8 cycles
 SCF Done:  E(RB3LYP) =  -615.720764378     A.U. after    8 cycles
 SCF Done:  E(RB3LYP) =  -615.720764489     A.U. after    7 cycles
 Optimization completed.
    -- Stationary point found.

                         Standard orientation:
 ---------------------------------------------------------------------
 Center     Atomic      Atomic             Coordinates (Angstroms)
 Number     Number       Type             X           Y           Z
 ---------------------------------------------------------------------
      1          6           0        3.733164   -1.788207   -0.357714
      2          6           0        2.703269   -0.660678   -0.441980
      3          6           0        1.325472   -1.131783    0.030111
      4          7           0        0.327626   -0.073379   -0.094774
      5          6           0       -1.028473   -0.378219   -0.017754
      6          6           0       -1.471255   -1.684899    0.279192
      7          6           0       -2.831745   -1.988300    0.318916
      8          6           0       -3.790104   -1.004919    0.085614
      9          6           0       -3.357810    0.295837   -0.183114
     10          6           0       -2.006217    0.625450   -0.246533
     11          6           0       -1.547765    2.037694   -0.523271
     12          6           0       -0.248340    2.315420    0.237845
     13          6           0        0.828786    1.307712   -0.164762
     14          6           0        2.072220    1.422818    0.731551
     15          7           0        3.140925    0.470898    0.387735
     16          1           0        3.457107   -2.626276   -1.008531
     17          1           0        3.821769   -2.149305    0.672377
     18          1           0        4.720566   -1.430845   -0.672626
     19          1           0        2.595147   -0.375678   -1.505379
     20          1           0        1.406600   -1.496195    1.069210
     21          1           0        1.024911   -1.985889   -0.589318
     22          1           0       -0.755378   -2.468996    0.495935
     23          1           0       -3.136710   -3.006762    0.547261
     24          1           0       -4.850126   -1.238098    0.122890
     25          1           0       -4.089326    1.084365   -0.351758
     26          1           0       -2.327225    2.752475   -0.234171
     27          1           0       -1.372105    2.187627   -1.599819
     28          1           0       -0.433157    2.244054    1.317993
     29          1           0        0.121959    3.326950    0.033333
     30          1           0        1.129322    1.537707   -1.202303
     31          1           0        1.752493    1.258207    1.770920
     32          1           0        2.465482    2.445001    0.678839
     33          1           0        3.901599    0.951473   -0.084195
 ---------------------------------------------------------------------

 The electronic state is 1-A.
 Alpha  occ. eigenvalues --  -14.34046 -14.31762 -10.22242 -10.21864 -10.21502
 Alpha  occ. eigenvalues --  -10.21384 -10.20989 -10.18703 -10.18414 -10.17668
 Alpha  occ. eigenvalues --  -10.17528 -10.17236 -10.17174 -10.16766 -10.16338
 Alpha  occ. eigenvalues --   -0.95104  -0.89690  -0.82899  -0.80738  -0.76715
 Alpha  occ. eigenvalues --   -0.74342  -0.72067  -0.68986  -0.66739  -0.62675
 Alpha  occ. eigenvalues --   -0.62090  -0.58615  -0.55513  -0.53819  -0.51989
 Alpha  occ. eigenvalues --   -0.50645  -0.47941  -0.47087  -0.46333  -0.43815
 Alpha  occ. eigenvalues --   -0.42538  -0.41969  -0.41783  -0.40924  -0.40481
 Alpha  occ. eigenvalues --   -0.39971  -0.37956  -0.37469  -0.36226  -0.35728
 Alpha  occ. eigenvalues --   -0.35591  -0.35160  -0.33993  -0.33278  -0.31847
 Alpha  occ. eigenvalues --   -0.31166  -0.27291  -0.22797  -0.21813  -0.17540
 Alpha virt. eigenvalues --    0.01526   0.03026   0.07054   0.09825   0.10528
 Alpha virt. eigenvalues --    0.11472   0.11753   0.12481   0.13656   0.13952
 Alpha virt. eigenvalues --    0.15355   0.16111   0.16369   0.16779   0.17256

 Mulliken charges:
               1
     1  C   -0.438207
     2  C    0.022727
     3  C   -0.111838
     4  N   -0.550956
     5  C    0.336594
     6  C   -0.202466
     7  C   -0.139610
     8  C   -0.136427
     9  C   -0.207925
    10  C    0.124917
    11  C   -0.342735
    12  C   -0.289854
    13  C    0.057391
    14  C   -0.139605
    15  N   -0.566318
    16  H    0.139516
    17  H    0.155966
    18  H    0.140824
    19  H    0.119164
    20  H    0.141931
    21  H    0.147991
    22  H    0.122743
    23  H    0.118147
    24  H    0.114504
    25  H    0.112910
    26  H    0.143794
    27  H    0.147109
    28  H    0.147335
    29  H    0.134729
    30  H    0.122996
    31  H    0.146313
    32  H    0.133284
    33  H    0.295051
 Sum of Mulliken charges =  -0.00000

 Dipole moment (field-independent basis, Debye):
    X=              1.8006    Y=              1.2925    Z=             -0.9158  Tot=              2.3982
 Quadrupole moment (field-independent basis, Debye-Ang):
   XX=            -89.0327   YY=            -83.8487   ZZ=            -93.7422
   XY=              0.4069   XZ=             -4.0111   YZ=             -1.1885

 1\1\GINC-NODE50\FOpt\RB3LYP\6-31G(d)\C13H18N2\WYKGROUP\04-Nov-2022\0\\
 #p b3lyp/6-31g(d) opt SCF=XQC\\Gaussian input prepared by ASE\\0,1\C,-
 3.7329114249,1.3341376194,-0.361773099\C,-2.5698274277,0.3513552412,-0
 .5048797593\C,-1.2429116308,1.0003651956,-0.1033670778\N,-0.1227541841
 ,0.0818060432,-0.2850479533\C,1.1837801201,0.5621982312,-0.2776782095\
 C,1.4662440801,1.9163989407,0.0016078401\C,2.775358369,2.3958528064,-0
 .0285029692\C,3.8408964961,1.5462249109,-0.3160474266\C,3.5695173297,0
 .1993407286,-0.5676757789\C,2.2714068965,-0.3049863417,-0.5618119623\C

 Normal termination of Gaussian 16 at Fri Nov  4 18:47:34 2022.
