 Gaussian 16, Revision B.01,
 Gaussian 16:  ES64L-G16RevB.01 20-Dec-2017

 -------------------------------------------------------------------
 #p b3lyp/6-31g(d) 6D 10F nosymm GFInput td=(50-50,nstate=2) SCF=XQC
 -------------------------------------------------------------------

 ------------------------------
 Gaussian input prepared by ASE
 ------------------------------
 Symbolic Z-matrix:
 Charge =  0 Multiplicity = 1

                          Input orientation:
 ---------------------------------------------------------------------
 Center     Atomic      Atomic             Coordinates (Angstroms)
 Number     Number       Type             X           Y           Z
 ---------------------------------------------------------------------
      1          6           0       -3.732911    1.334138   -0.361773
      2          6           0       -2.569827    0.351355   -0.504880
      3          6           0       -1.242912    1.000365   -0.103367
      4          7           0       -0.122754    0.081806   -0.285048
      5          6           0        1.183780    0.562198   -0.277678
      6          6           0        1.466244    1.916399    0.001608
      7          6           0        2.775358    2.395853   -0.028503
      8          6           0        3.840896    1.546225   -0.316047
      9          6           0        3.569517    0.199341   -0.567676
     10          6           0        2.271407   -0.304986   -0.561812
     11          6           0        1.988342   -1.765846   -0.820574
     12          6           0        0.778305   -2.209919    0.006194
     13          6           0       -0.441346   -1.353283   -0.334972
     14          6           0       -1.610200   -1.628471    0.624614
     15          7           0       -2.811112   -0.825894    0.341466
     16          1           0       -3.603714    2.199635   -1.022343
     17          1           0       -3.813990    1.682939    0.673164
     18          1           0       -4.680032    0.849507   -0.626227
     19          1           0       -2.481159    0.080475   -1.573755
     20          1           0       -1.316550    1.353455    0.940189
     21          1           0       -1.089913    1.885052   -0.733801
     22          1           0        0.666035    2.600257    0.259034
     23          1           0        2.955608    3.446076    0.188181
     24          1           0        4.861643    1.916617   -0.333206
     25          1           0        4.388313   -0.486743   -0.777908
     26          1           0        2.868926   -2.371435   -0.575868
     27          1           0        1.777663   -1.940110   -1.887129
     28          1           0        1.008545   -2.112331    1.075510
     29          1           0        0.533718   -3.261790   -0.183242
     30          1           0       -0.763096   -1.623214   -1.356404
     31          1           0       -1.260776   -1.420834    1.646573
     32          1           0       -1.868162   -2.693554    0.587922
     33          1           0       -3.525845   -1.403285   -0.092204
 ---------------------------------------------------------------------

 SCF Done:  E(RB3LYP) =  -615.720769636     A.U. after   14 cycles

 Excitation energies and oscillator strengths:

 Excited state symmetry could not be determined.
 Excited State   1:      Triplet-?Sym    3.4983 eV  354.42 nm  f=0.0000  <S**2>=2.000
      52 -> 57        -0.12016
      53 -> 56         0.31181
      55 -> 56        -0.30213
      55 -> 57         0.53796
 This state for optimization and/or second-order correction.
 Total Energy, E(TD-HF/TD-DFT) =  -615.592211137
 Copying the excited state density for this state as the 1-particle RhoCI density.

 Excited state symmetry could not be determined.
 Excited State   2:      Triplet-?Sym    3.7016 eV  334.94 nm  f=0.0000  <S**2>=2.000
      55 -> 56         0.62489
      55 -> 57         0.30227

 Excited state symmetry could not be determined.
 Excited State   3:      Singlet-?Sym    4.4962 eV  275.76 nm  f=0.0357  <S**2>=0.000
      53 -> 57        -0.18457
      55 -> 56         0.68076

 Excited state symmetry could not be determined.
 Excited State   4:      Singlet-?Sym    5.2197 eV  237.53 nm  f=0.2460  <S**2>=0.000
      53 -> 56         0.18682
      55 -> 57         0.67017

 Alpha  occ. eigenvalues --  -14.34046 -14.31763 -10.22243 -10.21864 -10.21502
 Alpha  occ. eigenvalues --  -10.21384 -10.20990 -10.18703 -10.18414 -10.17668
 Alpha  occ. eigenvalues --  -10.17528 -10.17236 -10.17174 -10.16766 -10.16338
 Alpha  occ. eigenvalues --   -0.95104  -0.89690  -0.82899  -0.80738  -0.76716
 Alpha  occ. eigenvalues --   -0.74342  -0.72067  -0.68986  -0.66739  -0.62675
 Alpha  occ. eigenvalues --   -0.62090  -0.58615  -0.55513  -0.53819  -0.51989
 Alpha  occ. eigenvalues --   -0.50645  -0.47941  -0.47087  -0.46333  -0.43815
 Alpha  occ. eigenvalues --   -0.42538  -0.41969  -0.41783  -0.40924  -0.40481
 Alpha  occ. eigenvalues --   -0.39971  -0.37956  -0.37469  -0.36226  -0.35728
 Alpha  occ. eigenvalues --   -0.35591  -0.35160  -0.33993  -0.33278  -0.31847
 Alpha  occ. eigenvalues --   -0.31166  -0.27291  -0.22797  -0.21813  -0.17540
 Alpha virt. eigenvalues --    0.01526   0.03026   0.07054   0.09825   0.10528
 Alpha virt. eigenvalues --    0.11472   0.11753   0.12481   0.13656   0.13952
 Alpha virt. eigenvalues --    0.15355   0.16111   0.16369   0.16779   0.17255

 Mulliken charges:
               1
     1  C   -0.438206
     2  C    0.022741
     3  C   -0.111815
     4  N   -0.550963
     5  C    0.336611
     6  C   -0.202464
     7  C   -0.139612
     8  C   -0.136422
     9  C   -0.207936
    10  C    0.124920
    11  C   -0.342758
    12  C   -0.289843
    13  C    0.057373
    14  C   -0.139605
    15  N   -0.566337
    16  H    0.139516
    17  H    0.155964
    18  H    0.140824
    19  H    0.119163
    20  H    0.141926
    21  H    0.147989
    22  H    0.122743
    23  H    0.118148
    24  H    0.114503
    25  H    0.112911
    26  H    0.143798
    27  H    0.147112
    28  H    0.147334
    29  H    0.134730
    30  H    0.122999
    31  H    0.146315
    32  H    0.133286
    33  H    0.295055
 Sum of Mulliken charges =  -0.00000

 Dipole moment (field-independent basis, Debye):
    X=             -1.6610    Y=             -1.5200    Z=             -0.8262  Tot=              2.3983
 Quadrupole moment (field-independent basis, Debye-Ang):
   XX=            -89.3801   YY=            -83.9830   ZZ=            -93.7941
   XY=             -0.5995   XZ=              3.7206   YZ=              1.9658

 Normal termination of Gaussian 16 at Sat Nov  5 11:36:20 2022.
