 Gaussian 16, Revision B.01,
 Gaussian 16:  ES64L-G16RevB.01 20-Dec-2017

 -----------------------------
 #p b3lyp/6-31g(d) opt SCF=XQC
 -----------------------------

 ------------------------------
 Gaussian input prepared by ASE
 ------------------------------
 Symbolic Z-matrix:
 Charge =  0 Multiplicity = 1

 SCF Done:  E(RB3LYP) =  -823.754886612     A.U. after   15 cycles
 SCF Done:  E(RB3LYP) =  -823.759559263     A.U. after   12 cycles
 SCF Done:  E(RB3LYP) =  -823.759990352     A.U. after   11 cycles
 SCF Done:  E(RB3LYP) =  -823.760324286     A.U. after   12 cycles
 SCF Done:  E(RB3LYP) =  -823.760593012     A.U. after   11 cycles
 SCF Done:  E(RB3LYP) =  -823.760941696     A.U. after   11 cycles
 SCF Done:  E(RB3LYP) =  -823.761076542     A.U. after   11 cycles
 SCF Done:  E(RB3LYP) =  -823.761128330     A.U. after   11 cycles
 SCF Done:  E(RB3LYP) =  -823.761153766     A.U. after   10 cycles
 SCF Done:  E(RB3LYP) =  -823.761171823     A.U. after   10 cycles
 SCF Done:  E(RB3LYP) =  -823.761184245     A.U. after   10 cycles
 SCF Done:  E(RB3LYP) =  -823.761201114     A.U. after   11 cycles
 SCF Done:  E(RB3LYP) =  -823.761203595     A.U. after    9 cycles
 SCF Done:  E(RB3LYP) =  -823.761204048     A.U. after    8 cycles
 SCF Done:  E(RB3LYP) =  -823.761204336     A.U. after    8 cycles
 SCF Done:  E(RB3LYP) =  -823.761204502     A.U. after    7 cycles
 SCF Done:  E(RB3LYP) =  -823.761204543     A.U. after    6 cycles
 Optimization completed.
    -- Stationary point found.

                         Standard orientation:
 ---------------------------------------------------------------------
 Center     Atomic      Atomic             Coordinates (Angstroms)
 Number     Number       Type             X           Y           Z
 ---------------------------------------------------------------------
      1          6           0        4.530120    2.581807    0.010936
      2          6           0        4.576735    1.089233    0.129906
      3          6           0        5.688172    0.362467    0.475297
      4          6           0        5.646990   -1.055613    0.566433
      5          6           0        4.482181   -1.736512    0.308513
      6          6           0        3.323268   -1.011877   -0.048195
      7          7           0        2.095429   -1.431563   -0.343204
      8          6           0        1.376027   -0.301031   -0.617925
      9          6           0       -0.079114   -0.376255   -0.968741
     10          6           0       -0.928428   -0.861967    0.224200
     11          7           0       -2.339543   -1.021657   -0.101177
     12          6           0       -3.200236    0.038857   -0.140400
     13          8           0       -2.852516    1.175563    0.168304
     14          6           0       -4.621459   -0.281115   -0.604149
     15          6           0       -5.691692    0.495135    0.184615
     16          6           0       -5.731293    0.060580    1.656434
     17          6           0       -7.068097    0.346431   -0.476924
     18          6           0        2.153808    0.835428   -0.491074
     19          7           0        3.411465    0.393756   -0.126687
     20          1           0        3.795351    3.015304    0.702260
     21          1           0        5.508549    3.011560    0.238116
     22          1           0        4.244880    2.893492   -1.002641
     23          1           0        6.610532    0.895511    0.680449
     24          1           0        6.547112   -1.596209    0.842459
     25          1           0        4.411004   -2.816715    0.367191
     26          1           0       -0.447943    0.604583   -1.285054
     27          1           0       -0.214067   -1.071722   -1.807227
     28          1           0       -0.543949   -1.820604    0.583466
     29          1           0       -0.857585   -0.137590    1.039891
     30          1           0       -2.658584   -1.918404   -0.438883
     31          1           0       -4.818706   -1.361316   -0.550968
     32          1           0       -4.681321   -0.002157   -1.665886
     33          1           0       -5.395939    1.550919    0.151746
     34          1           0       -5.994612   -1.001979    1.748477
     35          1           0       -4.762278    0.216545    2.142044
     36          1           0       -6.479701    0.636177    2.213587
     37          1           0       -7.397595   -0.701239   -0.479164
     38          1           0       -7.825936    0.928771    0.060203
     39          1           0       -7.054447    0.693706   -1.517240
     40          1           0        1.922014    1.879704   -0.625343
 ---------------------------------------------------------------------

 The electronic state is 1-A.
 Alpha  occ. eigenvalues --  -19.10010 -14.40734 -14.35251 -14.30183 -10.27506
 Alpha  occ. eigenvalues --  -10.24628 -10.24253 -10.21268 -10.20746 -10.20676
 Alpha  occ. eigenvalues --  -10.20492 -10.19915 -10.19691 -10.19596 -10.18655
 Alpha  occ. eigenvalues --  -10.18404 -10.18190 -10.16994 -10.16548  -1.02355
 Alpha  occ. eigenvalues --   -1.01906  -0.91178  -0.90225  -0.82652  -0.80270
 Alpha  occ. eigenvalues --   -0.78752  -0.76458  -0.72802  -0.70598  -0.70005
 Alpha  occ. eigenvalues --   -0.67611  -0.64735  -0.62091  -0.60322  -0.57952
 Alpha  occ. eigenvalues --   -0.56637  -0.55592  -0.52317  -0.50351  -0.48680
 Alpha  occ. eigenvalues --   -0.47982  -0.46851  -0.46422  -0.45072  -0.44434
 Alpha  occ. eigenvalues --   -0.43991  -0.43260  -0.42330  -0.41885  -0.41557
 Alpha  occ. eigenvalues --   -0.41374  -0.40442  -0.38617  -0.38455  -0.37959
 Alpha  occ. eigenvalues --   -0.37329  -0.36514  -0.36142  -0.35307  -0.34434
 Alpha  occ. eigenvalues --   -0.32714  -0.32576  -0.31900  -0.31778  -0.31020
 Alpha  occ. eigenvalues --   -0.26541  -0.24792  -0.23751  -0.22943  -0.20338
 Alpha virt. eigenvalues --   -0.02637   0.01027   0.03584   0.07231   0.07748
 Alpha virt. eigenvalues --    0.08952   0.09817   0.09909   0.13255   0.13646
 Alpha virt. eigenvalues --    0.13784   0.13997   0.14576   0.15349   0.15485

 Mulliken charges:
               1
     1  C   -0.529097
     2  C    0.379535
     3  C   -0.230572
     4  C   -0.117543
     5  C   -0.183794
     6  C    0.521353
     7  N   -0.563243
     8  C    0.235960
     9  C   -0.337159
    10  C   -0.130250
    11  N   -0.599863
    12  C    0.614527
    13  O   -0.534826
    14  C   -0.356652
    15  C   -0.061696
    16  C   -0.450852
    17  C   -0.446217
    18  C   -0.044220
    19  N   -0.539257
    20  H    0.176567
    21  H    0.171663
    22  H    0.174533
    23  H    0.134978
    24  H    0.137816
    25  H    0.151687
    26  H    0.164247
    27  H    0.147062
    28  H    0.164611
    29  H    0.175751
    30  H    0.322104
    31  H    0.125415
    32  H    0.161163
    33  H    0.157121
    34  H    0.130141
    35  H    0.161074
    36  H    0.141608
    37  H    0.134989
    38  H    0.143329
    39  H    0.138947
    40  H    0.159061
 Sum of Mulliken charges =  -0.00000

 Dipole moment (field-independent basis, Debye):
    X=              1.8818    Y=             -0.1623    Z=             -0.5939  Tot=              1.9800
 Quadrupole moment (field-independent basis, Debye-Ang):
   XX=            -93.2237   YY=           -109.4364   ZZ=           -115.0052
   XY=             15.3063   XZ=              6.0262   YZ=             -1.2252

 Normal termination of Gaussian 16 at Fri Nov  4 18:52:35 2022.
