 Gaussian 16, Revision B.01,
 Gaussian 16:  ES64L-G16RevB.01 20-Dec-2017

 -------------------------------------------------------------------
 #p b3lyp/6-31g(d) 6D 10F nosymm GFInput td=(50-50,nstate=2) SCF=XQC
 -------------------------------------------------------------------

 ------------------------------
 Gaussian input prepared by ASE
 ------------------------------
 Symbolic Z-matrix:
 Charge =  0 Multiplicity = 1

                          Input orientation:
 ---------------------------------------------------------------------
 Center     Atomic      Atomic             Coordinates (Angstroms)
 Number     Number       Type             X           Y           Z
 ---------------------------------------------------------------------
      1          6           0        5.302818    1.733205    0.829943
      2          6           0        5.183481    0.313956    0.365622
      3          6           0        6.198177   -0.609372    0.390800
      4          6           0        6.000556   -1.939811   -0.069454
      5          6           0        4.777373   -2.334600   -0.554109
      6          6           0        3.715627   -1.403563   -0.589939
      7          7           0        2.459315   -1.537582   -1.007641
      8          6           0        1.875749   -0.315121   -0.817505
      9          6           0        0.432705   -0.086451   -1.151416
     10          6           0       -0.501125   -0.893659   -0.225817
     11          7           0       -1.910384   -0.757116   -0.569272
     12          6           0       -2.649288    0.326752   -0.186817
     13          8           0       -2.190102    1.211615    0.530451
     14          6           0       -4.081660    0.370505   -0.719467
     15          6           0       -5.085459    0.899958    0.320811
     16          6           0       -5.217910   -0.058032    1.513023
     17          6           0       -6.448541    1.171503   -0.329194
     18          6           0        2.767899    0.590971   -0.273776
     19          7           0        3.958217   -0.094655   -0.123404
     20          1           0        4.598194    1.948130    1.644220
     21          1           0        6.314524    1.930420    1.192130
     22          1           0        5.084866    2.439372    0.017742
     23          1           0        7.166067   -0.302728    0.773067
     24          1           0        6.827652   -2.642172   -0.034034
     25          1           0        4.587620   -3.339461   -0.914104
     26          1           0        0.182528    0.975388   -1.061738
     27          1           0        0.249340   -0.387618   -2.190946
     28          1           0       -0.234331   -1.953359   -0.267517
     29          1           0       -0.377613   -0.550060    0.804609
     30          1           0       -2.314135   -1.414081   -1.221476
     31          1           0       -4.396504   -0.618108   -1.082903
     32          1           0       -4.077721    1.039846   -1.591622
     33          1           0       -4.676021    1.847354    0.692338
     34          1           0       -5.597704   -1.037952    1.193098
     35          1           0       -4.253332   -0.209810    2.008689
     36          1           0       -5.916480    0.340121    2.258222
     37          1           0       -6.889531    0.248785   -0.729578
     38          1           0       -7.155125    1.584568    0.400232
     39          1           0       -6.364817    1.887025   -1.156275
     40          1           0        2.655079    1.625840    0.006556
 ---------------------------------------------------------------------

 SCF Done:  E(RB3LYP) =  -823.761203994     A.U. after   15 cycles

 Excitation energies and oscillator strengths:

 Excited state symmetry could not be determined.
 Excited State   1:      Triplet-?Sym    2.9141 eV  425.47 nm  f=0.0000  <S**2>=2.000
      65 -> 71        -0.10682
      69 -> 71        -0.19406
      70 -> 71         0.65663
 This state for optimization and/or second-order correction.
 Total Energy, E(TD-HF/TD-DFT) =  -823.654114191
 Copying the excited state density for this state as the 1-particle RhoCI density.

 Excited state symmetry could not be determined.
 Excited State   2:      Triplet-?Sym    3.9674 eV  312.51 nm  f=0.0000  <S**2>=2.000
      70 -> 72         0.67956

 Excited state symmetry could not be determined.
 Excited State   3:      Singlet-?Sym    4.2743 eV  290.07 nm  f=0.1060  <S**2>=0.000
      69 -> 71         0.10493
      69 -> 72         0.13155
      70 -> 71         0.66299
      70 -> 72        -0.14966

 Excited state symmetry could not be determined.
 Excited State   4:      Singlet-?Sym    4.8095 eV  257.79 nm  f=0.0177  <S**2>=0.000
      69 -> 71         0.54585
      70 -> 71        -0.17185
      70 -> 72        -0.39317

 Alpha  occ. eigenvalues --  -19.10010 -14.40734 -14.35251 -14.30183 -10.27506
 Alpha  occ. eigenvalues --  -10.24628 -10.24253 -10.21268 -10.20746 -10.20676
 Alpha  occ. eigenvalues --  -10.20492 -10.19915 -10.19691 -10.19596 -10.18655
 Alpha  occ. eigenvalues --  -10.18404 -10.18190 -10.16994 -10.16548  -1.02355
 Alpha  occ. eigenvalues --   -1.01906  -0.91178  -0.90225  -0.82652  -0.80270
 Alpha  occ. eigenvalues --   -0.78752  -0.76458  -0.72802  -0.70598  -0.70005
 Alpha  occ. eigenvalues --   -0.67611  -0.64735  -0.62091  -0.60322  -0.57952
 Alpha  occ. eigenvalues --   -0.56637  -0.55592  -0.52317  -0.50351  -0.48680
 Alpha  occ. eigenvalues --   -0.47982  -0.46851  -0.46422  -0.45072  -0.44434
 Alpha  occ. eigenvalues --   -0.43991  -0.43260  -0.42330  -0.41885  -0.41557
 Alpha  occ. eigenvalues --   -0.41374  -0.40442  -0.38617  -0.38455  -0.37959
 Alpha  occ. eigenvalues --   -0.37329  -0.36514  -0.36142  -0.35307  -0.34434
 Alpha  occ. eigenvalues --   -0.32714  -0.32576  -0.31900  -0.31778  -0.31020
 Alpha  occ. eigenvalues --   -0.26541  -0.24792  -0.23751  -0.22943  -0.20338
 Alpha virt. eigenvalues --   -0.02637   0.01027   0.03583   0.07231   0.07748
 Alpha virt. eigenvalues --    0.08952   0.09817   0.09909   0.13255   0.13646
 Alpha virt. eigenvalues --    0.13784   0.13997   0.14576   0.15349   0.15485

 Mulliken charges:
               1
     1  C   -0.529100
     2  C    0.379540
     3  C   -0.230586
     4  C   -0.117519
     5  C   -0.183817
     6  C    0.521391
     7  N   -0.563249
     8  C    0.235958
     9  C   -0.337156
    10  C   -0.130252
    11  N   -0.599861
    12  C    0.614525
    13  O   -0.534826
    14  C   -0.356653
    15  C   -0.061692
    16  C   -0.450864
    17  C   -0.446206
    18  C   -0.044230
    19  N   -0.539271
    20  H    0.176568
    21  H    0.171664
    22  H    0.174535
    23  H    0.134979
    24  H    0.137815
    25  H    0.151687
    26  H    0.164246
    27  H    0.147063
    28  H    0.164611
    29  H    0.175751
    30  H    0.322103
    31  H    0.125416
    32  H    0.161165
    33  H    0.157120
    34  H    0.130143
    35  H    0.161076
    36  H    0.141610
    37  H    0.134986
    38  H    0.143327
    39  H    0.138945
    40  H    0.159061
 Sum of Mulliken charges =  -0.00000

 Dipole moment (field-independent basis, Debye):
    X=              1.8707    Y=             -0.1323    Z=             -0.6350  Tot=              1.9800
 Quadrupole moment (field-independent basis, Debye-Ang):
   XX=            -88.5488   YY=           -111.7870   ZZ=           -115.2006
   XY=              9.4000   XZ=             10.6524   YZ=             -0.2062

 Normal termination of Gaussian 16 at Sat Nov  5 11:36:02 2022.
