 Gaussian 16, Revision B.01,
 Gaussian 16:  ES64L-G16RevB.01 20-Dec-2017

 -------------------------------------------------------------------
 #p b3lyp/6-31g(d) 6D 10F nosymm GFInput td=(50-50,nstate=2) SCF=XQC
 -------------------------------------------------------------------

 ------------------------------
 Gaussian input prepared by ASE
 ------------------------------
 Symbolic Z-matrix:
 Charge =  0 Multiplicity = 1

                          Input orientation:
 ---------------------------------------------------------------------
 Center     Atomic      Atomic             Coordinates (Angstroms)
 Number     Number       Type             X           Y           Z
 ---------------------------------------------------------------------
      1          6           0       -2.988645    0.437632   -2.463585
      2         16           0       -1.362656    0.873082   -1.786284
      3          8           0       -0.369003    0.191737   -2.626111
      4          8           0       -1.353785    2.325002   -1.605957
      5          7           0       -1.253275    0.181043   -0.271145
      6          6           0       -2.100568    0.710049    0.827596
      7          6           0       -2.915854   -0.506318    1.280077
      8          6           0       -1.918717   -1.662236    1.106520
      9          6           0       -1.104404   -1.302068   -0.161009
     10          6           0        0.375680   -1.746988   -0.139261
     11          6           0        1.208198   -1.115988    0.979553
     12          8           0        1.013948   -1.470332    2.138526
     13          6           0        2.267201   -0.107486    0.669003
     14          6           0        2.408440    0.504465   -0.587099
     15          6           0        3.416061    1.446982   -0.796435
     16          6           0        4.295910    1.777731    0.234596
     17          6           0        4.161980    1.172441    1.488766
     18          6           0        3.151907    0.242404    1.705136
     19          1           0       -3.045268    0.880451   -3.460479
     20          1           0       -3.769492    0.856152   -1.825275
     21          1           0       -3.077748   -0.648219   -2.533572
     22          1           0       -1.447213    1.071570    1.629804
     23          1           0       -2.696909    1.558358    0.483814
     24          1           0       -3.788901   -0.639765    0.628073
     25          1           0       -3.278078   -0.409117    2.308166
     26          1           0       -2.404281   -2.636959    0.995802
     27          1           0       -1.245998   -1.719442    1.965671
     28          1           0       -1.560583   -1.778074   -1.039309
     29          1           0        0.807539   -1.565750   -1.123774
     30          1           0        0.390771   -2.829551    0.038725
     31          1           0        1.721811    0.280939   -1.396118
     32          1           0        3.508628    1.924711   -1.767677
     33          1           0        5.083209    2.507672    0.064528
     34          1           0        4.844897    1.429916    2.293989
     35          1           0        3.025197   -0.234048    2.671688
 ---------------------------------------------------------------------

 SCF Done:  E(RB3LYP) =  -1184.17064999     A.U. after   15 cycles

 Excitation energies and oscillator strengths:

 Excited state symmetry could not be determined.
 Excited State   1:      Triplet-?Sym    3.1502 eV  393.57 nm  f=0.0000  <S**2>=2.000
      68 -> 72        -0.13297
      71 -> 72         0.66729
 This state for optimization and/or second-order correction.
 Total Energy, E(TD-HF/TD-DFT) =  -1184.05488135
 Copying the excited state density for this state as the 1-particle RhoCI density.

 Excited state symmetry could not be determined.
 Excited State   2:      Triplet-?Sym    3.2972 eV  376.03 nm  f=0.0000  <S**2>=2.000
      69 -> 72         0.54816
      69 -> 73        -0.10826
      70 -> 72         0.33020
      70 -> 73         0.21227

 Excited state symmetry could not be determined.
 Excited State   3:      Singlet-?Sym    3.6791 eV  337.00 nm  f=0.0003  <S**2>=0.000
      68 -> 72        -0.10415
      69 -> 72         0.14264
      70 -> 72         0.10309
      71 -> 72         0.66633

 Excited state symmetry could not be determined.
 Excited State   4:      Singlet-?Sym    4.6217 eV  268.27 nm  f=0.0189  <S**2>=0.000
      69 -> 72        -0.27108
      69 -> 73        -0.19041
      70 -> 72         0.61201

 Alpha  occ. eigenvalues --  -89.11387 -19.14333 -19.14136 -19.13401 -14.36959
 Alpha  occ. eigenvalues --  -10.27402 -10.24718 -10.23270 -10.22992 -10.20177
 Alpha  occ. eigenvalues --  -10.19560 -10.19444 -10.19396 -10.19330 -10.19104
 Alpha  occ. eigenvalues --  -10.19086 -10.18993 -10.18939  -8.13877  -6.10364
 Alpha  occ. eigenvalues --   -6.10297  -6.10197  -1.11119  -1.03307  -1.00147
 Alpha  occ. eigenvalues --   -0.94955  -0.85350  -0.80444  -0.78551  -0.76635
 Alpha  occ. eigenvalues --   -0.75576  -0.74418  -0.70356  -0.65557  -0.62444
 Alpha  occ. eigenvalues --   -0.60500  -0.60172  -0.57389  -0.54696  -0.53614
 Alpha  occ. eigenvalues --   -0.51111  -0.50185  -0.48100  -0.47268  -0.46655
 Alpha  occ. eigenvalues --   -0.45719  -0.45458  -0.44605  -0.44063  -0.43798
 Alpha  occ. eigenvalues --   -0.42946  -0.42137  -0.41598  -0.40655  -0.40478
 Alpha  occ. eigenvalues --   -0.39064  -0.37667  -0.36431  -0.35533  -0.35041
 Alpha  occ. eigenvalues --   -0.34576  -0.34479  -0.33975  -0.33354  -0.31491
 Alpha  occ. eigenvalues --   -0.30039  -0.30007  -0.26255  -0.25160  -0.24963
 Alpha  occ. eigenvalues --   -0.24294
 Alpha virt. eigenvalues --   -0.05370   0.00032   0.03791   0.05089   0.07037
 Alpha virt. eigenvalues --    0.08210   0.09191   0.10033   0.10274   0.10670
 Alpha virt. eigenvalues --    0.11642   0.12234   0.12983   0.14128   0.14281

 Mulliken charges:
               1
     1  C   -0.635873
     2  S    1.217982
     3  O   -0.560940
     4  O   -0.528733
     5  N   -0.545493
     6  C   -0.146090
     7  C   -0.285329
     8  C   -0.317693
     9  C    0.031456
    10  C   -0.345786
    11  C    0.401881
    12  O   -0.478539
    13  C    0.061476
    14  C   -0.184403
    15  C   -0.141483
    16  C   -0.116988
    17  C   -0.133415
    18  C   -0.153427
    19  H    0.219908
    20  H    0.196514
    21  H    0.195033
    22  H    0.179599
    23  H    0.176817
    24  H    0.136480
    25  H    0.156683
    26  H    0.147785
    27  H    0.201327
    28  H    0.147346
    29  H    0.179420
    30  H    0.165164
    31  H    0.190072
    32  H    0.141373
    33  H    0.135517
    34  H    0.134281
    35  H    0.158078
 Sum of Mulliken charges =  -0.00000

 Dipole moment (field-independent basis, Debye):
    X=             -3.0127    Y=             -1.4733    Z=             -0.1411  Tot=              3.3566
 Quadrupole moment (field-independent basis, Debye-Ang):
   XX=            -92.6657   YY=           -117.0999   ZZ=           -116.8736
   XY=              7.6151   XZ=              3.4075   YZ=              6.7096

 Normal termination of Gaussian 16 at Sat Nov  5 11:40:15 2022.
