 Gaussian 16, Revision B.01,
 Gaussian 16:  ES64L-G16RevB.01 20-Dec-2017

 -----------------------------
 #p b3lyp/6-31g(d) opt SCF=XQC
 -----------------------------

 ------------------------------
 Gaussian input prepared by ASE
 ------------------------------
 Symbolic Z-matrix:
 Charge =  0 Multiplicity = 1

 SCF Done:  E(RB3LYP) =  -1184.15520202     A.U. after   15 cycles
 SCF Done:  E(RB3LYP) =  -1184.16282702     A.U. after   15 cycles
 SCF Done:  E(RB3LYP) =  -1184.16507862     A.U. after   14 cycles
 SCF Done:  E(RB3LYP) =  -1184.16799322     A.U. after   13 cycles
 SCF Done:  E(RB3LYP) =  -1184.16906630     A.U. after   13 cycles
 SCF Done:  E(RB3LYP) =  -1184.16995537     A.U. after   12 cycles
 SCF Done:  E(RB3LYP) =  -1184.17035154     A.U. after   12 cycles
 SCF Done:  E(RB3LYP) =  -1184.17053824     A.U. after   12 cycles
 SCF Done:  E(RB3LYP) =  -1184.17061794     A.U. after   12 cycles
 SCF Done:  E(RB3LYP) =  -1184.17064404     A.U. after   11 cycles
 SCF Done:  E(RB3LYP) =  -1184.17064869     A.U. after    9 cycles
 SCF Done:  E(RB3LYP) =  -1184.17065058     A.U. after   10 cycles
 SCF Done:  E(RB3LYP) =  -1184.17065187     A.U. after    9 cycles
 SCF Done:  E(RB3LYP) =  -1184.17065211     A.U. after    8 cycles
 Optimization completed.
    -- Stationary point found.

                         Standard orientation:
 ---------------------------------------------------------------------
 Center     Atomic      Atomic             Coordinates (Angstroms)
 Number     Number       Type             X           Y           Z
 ---------------------------------------------------------------------
      1          6           0        3.610606   -1.406023   -0.330505
      2         16           0        1.826235   -1.438987   -0.003206
      3          8           0        1.181844   -1.829895   -1.263697
      4          8           0        1.635607   -2.203824    1.229415
      5          7           0        1.347677    0.130469    0.303910
      6          6           0        1.791625    0.788688    1.558757
      7          6           0        2.547734    2.030492    1.073780
      8          6           0        1.750711    2.443119   -0.173234
      9          6           0        1.307057    1.109584   -0.824627
     10          6           0       -0.070442    1.146892   -1.524755
     11          6           0       -1.242993    1.467187   -0.594418
     12          8           0       -1.359781    2.607049   -0.154431
     13          6           0       -2.253698    0.420887   -0.249835
     14          6           0       -2.081503   -0.944007   -0.532038
     15          6           0       -3.066449   -1.863071   -0.167808
     16          6           0       -4.231913   -1.431713    0.466366
     17          6           0       -4.411118   -0.073694    0.750835
     18          6           0       -3.426980    0.843427    0.400987
     19          1           0        3.911969   -2.433537   -0.546115
     20          1           0        4.133715   -1.042832    0.556496
     21          1           0        3.813116   -0.770170   -1.194561
     22          1           0        0.905244    1.065039    2.141052
     23          1           0        2.383103    0.102150    2.168884
     24          1           0        3.579859    1.765374    0.810038
     25          1           0        2.588287    2.818970    1.831592
     26          1           0        2.332977    3.047279   -0.876136
     27          1           0        0.867028    3.019584    0.110946
     28          1           0        2.037630    0.812066   -1.588720
     29          1           0       -0.214912    0.206891   -2.057804
     30          1           0       -0.038983    1.952369   -2.269112
     31          1           0       -1.173815   -1.305476   -1.002544
     32          1           0       -2.917847   -2.918389   -0.378347
     33          1           0       -4.999039   -2.150767    0.742151
     34          1           0       -5.317219    0.264441    1.246514
     35          1           0       -3.541793    1.900259    0.618264
 ---------------------------------------------------------------------

 The electronic state is 1-A.
 Alpha  occ. eigenvalues --  -89.11387 -19.14333 -19.14136 -19.13401 -14.36959
 Alpha  occ. eigenvalues --  -10.27402 -10.24718 -10.23270 -10.22992 -10.20178
 Alpha  occ. eigenvalues --  -10.19560 -10.19444 -10.19396 -10.19330 -10.19104
 Alpha  occ. eigenvalues --  -10.19086 -10.18993 -10.18939  -8.13876  -6.10364
 Alpha  occ. eigenvalues --   -6.10297  -6.10196  -1.11119  -1.03307  -1.00147
 Alpha  occ. eigenvalues --   -0.94955  -0.85350  -0.80444  -0.78551  -0.76635
 Alpha  occ. eigenvalues --   -0.75576  -0.74418  -0.70356  -0.65557  -0.62444
 Alpha  occ. eigenvalues --   -0.60500  -0.60172  -0.57389  -0.54696  -0.53614
 Alpha  occ. eigenvalues --   -0.51111  -0.50185  -0.48100  -0.47268  -0.46655
 Alpha  occ. eigenvalues --   -0.45719  -0.45458  -0.44605  -0.44062  -0.43798
 Alpha  occ. eigenvalues --   -0.42946  -0.42137  -0.41598  -0.40655  -0.40478
 Alpha  occ. eigenvalues --   -0.39064  -0.37667  -0.36431  -0.35533  -0.35041
 Alpha  occ. eigenvalues --   -0.34576  -0.34479  -0.33975  -0.33354  -0.31491
 Alpha  occ. eigenvalues --   -0.30039  -0.30007  -0.26254  -0.25160  -0.24963
 Alpha  occ. eigenvalues --   -0.24294
 Alpha virt. eigenvalues --   -0.05370   0.00032   0.03791   0.05089   0.07037
 Alpha virt. eigenvalues --    0.08211   0.09191   0.10033   0.10274   0.10670
 Alpha virt. eigenvalues --    0.11642   0.12234   0.12983   0.14128   0.14281

 Mulliken charges:
               1
     1  C   -0.635868
     2  S    1.217986
     3  O   -0.560942
     4  O   -0.528734
     5  N   -0.545490
     6  C   -0.146073
     7  C   -0.285352
     8  C   -0.317688
     9  C    0.031453
    10  C   -0.345791
    11  C    0.401869
    12  O   -0.478531
    13  C    0.061479
    14  C   -0.184396
    15  C   -0.141491
    16  C   -0.116989
    17  C   -0.133410
    18  C   -0.153436
    19  H    0.219907
    20  H    0.196512
    21  H    0.195033
    22  H    0.179596
    23  H    0.176813
    24  H    0.136484
    25  H    0.156687
    26  H    0.147787
    27  H    0.201326
    28  H    0.147344
    29  H    0.179425
    30  H    0.165168
    31  H    0.190073
    32  H    0.141373
    33  H    0.135517
    34  H    0.134280
    35  H    0.158079
 Sum of Mulliken charges =  -0.00000

 Dipole moment (field-independent basis, Debye):
    X=              3.0452    Y=              1.3267    Z=             -0.4837  Tot=              3.3567
 Quadrupole moment (field-independent basis, Debye-Ang):
   XX=            -90.7958   YY=           -121.2570   ZZ=           -113.4207
   XY=              7.8527   XZ=             -3.2587   YZ=              1.8005

 Normal termination of Gaussian 16 at Fri Nov  4 18:51:08 2022.
