 Gaussian 16, Revision B.01,
 Gaussian 16:  ES64L-G16RevB.01 20-Dec-2017

 -------------------------------------------------------------------
 #p b3lyp/6-31g(d) 6D 10F nosymm GFInput td=(50-50,nstate=2) SCF=XQC
 -------------------------------------------------------------------

 ------------------------------
 Gaussian input prepared by ASE
 ------------------------------
 Symbolic Z-matrix:
 Charge =  0 Multiplicity = 1

                          Input orientation:
 ---------------------------------------------------------------------
 Center     Atomic      Atomic             Coordinates (Angstroms)
 Number     Number       Type             X           Y           Z
 ---------------------------------------------------------------------
      1          6           0        6.031631   -1.577502   -2.951122
      2          6           0        6.187881   -0.192582   -2.311667
      3          6           0        5.982162   -0.185705   -0.784818
      4          6           0        4.528219   -0.416441   -0.303362
      5          6           0        3.772216    0.861209    0.131290
      6          6           0        3.600272    1.886999   -1.009539
      7          6           0        2.917071    3.197777   -0.601640
      8          6           0        2.444481    0.507523    0.829138
      9          7           0        1.486043   -0.101483   -0.086457
     10          6           0        0.210932   -0.464920    0.202740
     11         16           0       -0.816966   -1.133765   -0.961611
     12          7           0       -0.177055   -0.207128    1.478132
     13          7           0       -1.385206   -0.660341    1.982858
     14          6           0       -1.522364   -0.645476    3.328239
     15          8           0       -0.590278   -0.337831    4.072779
     16          6           0       -2.873576   -1.117957    3.872559
     17          6           0       -4.096328   -0.666743    3.119847
     18          7           0       -4.244083   -0.745695    1.829953
     19          6           0       -5.488995   -0.301621    1.408314
     20          6           0       -5.831337   -0.321271   -0.027754
     21          6           0       -4.830279   -0.516717   -0.992796
     22          6           0       -5.148450   -0.520855   -2.350165
     23          6           0       -6.466316   -0.334175   -2.768925
     24          6           0       -7.470655   -0.146575   -1.815982
     25          6           0       -7.157044   -0.142962   -0.459615
     26          6           0       -6.297349    0.129298    2.432157
     27         16           0       -5.496811   -0.022343    3.957303
     28          1           0        6.194734   -1.532533   -4.033791
     29          1           0        5.031168   -1.995394   -2.788356
     30          1           0        6.756738   -2.286880   -2.533304
     31          1           0        5.491209    0.510005   -2.787676
     32          1           0        7.195699    0.185594   -2.529607
     33          1           0        6.351302    0.764166   -0.373537
     34          1           0        6.627990   -0.962720   -0.354513
     35          1           0        4.536034   -1.101094    0.554441
     36          1           0        3.960121   -0.937795   -1.086174
     37          1           0        4.378458    1.344305    0.912840
     38          1           0        4.594818    2.117785   -1.408432
     39          1           0        3.045966    1.433095   -1.843631
     40          1           0        2.935198    3.915029   -1.429335
     41          1           0        1.867790    3.046593   -0.326314
     42          1           0        3.426164    3.663619    0.251436
     43          1           0        2.658403   -0.183615    1.659369
     44          1           0        2.002775    1.412993    1.267323
     45          1           0        1.747693   -0.257366   -1.048832
     46          1           0        0.465864   -0.012069    2.240802
     47          1           0       -2.152381   -0.789085    1.323272
     48          1           0       -2.852011   -2.216938    3.890560
     49          1           0       -2.911108   -0.784115    4.911618
     50          1           0       -3.800974   -0.661743   -0.682738
     51          1           0       -4.357460   -0.670002   -3.079969
     52          1           0       -6.711691   -0.339277   -3.827567
     53          1           0       -8.502470   -0.010239   -2.129003
     54          1           0       -7.954231   -0.017413    0.267926
     55          1           0       -7.293620    0.542377    2.373726
 ---------------------------------------------------------------------

 SCF Done:  E(RB3LYP) =  -1869.60861400     A.U. after   15 cycles

 Excitation energies and oscillator strengths:

 Excited state symmetry could not be determined.
 Excited State   1:      Triplet-?Sym    2.9058 eV  426.67 nm  f=0.0000  <S**2>=2.000
     102 ->109         0.13258
     104 ->113         0.10938
     106 ->109         0.64099
     106 ->110        -0.15903
 This state for optimization and/or second-order correction.
 Total Energy, E(TD-HF/TD-DFT) =  -1869.50182630
 Copying the excited state density for this state as the 1-particle RhoCI density.

 Excited state symmetry could not be determined.
 Excited State   2:      Triplet-?Sym    3.7088 eV  334.29 nm  f=0.0000  <S**2>=2.000
     102 ->109        -0.21312
     103 ->109         0.21065
     104 ->112        -0.17278
     104 ->113         0.26609
     106 ->109        -0.11974
     106 ->110        -0.47533
     106 ->111         0.14969
     106 ->117         0.10133

 Excited state symmetry could not be determined.
 Excited State   3:      Singlet-?Sym    3.9982 eV  310.10 nm  f=0.0021  <S**2>=0.000
     108 ->109         0.69867

 Excited state symmetry could not be determined.
 Excited State   4:      Singlet-?Sym    4.0245 eV  308.08 nm  f=0.0003  <S**2>=0.000
     107 ->109         0.69852

 Alpha  occ. eigenvalues --  -88.92583 -88.81410 -19.12665 -14.41120 -14.40211
 Alpha  occ. eigenvalues --  -14.37226 -14.34835 -10.30354 -10.30316 -10.27224
 Alpha  occ. eigenvalues --  -10.23896 -10.23597 -10.22546 -10.22517 -10.20931
 Alpha  occ. eigenvalues --  -10.19915 -10.19482 -10.19240 -10.18943 -10.18830
 Alpha  occ. eigenvalues --  -10.18729 -10.18615 -10.18592 -10.18368 -10.18275
 Alpha  occ. eigenvalues --  -10.18012 -10.17701  -7.98737  -7.87650  -5.95119
 Alpha  occ. eigenvalues --   -5.94764  -5.94460  -5.84236  -5.83530  -5.83294
 Alpha  occ. eigenvalues --   -1.07020  -1.01352  -0.97736  -0.95786  -0.86026
 Alpha  occ. eigenvalues --   -0.85140  -0.82725  -0.80860  -0.80004  -0.78795
 Alpha  occ. eigenvalues --   -0.75983  -0.75102  -0.73922  -0.73512  -0.70387
 Alpha  occ. eigenvalues --   -0.69963  -0.66125  -0.63927  -0.63638  -0.62549
 Alpha  occ. eigenvalues --   -0.62090  -0.60212  -0.58317  -0.57960  -0.57143
 Alpha  occ. eigenvalues --   -0.55653  -0.53971  -0.52852  -0.51872  -0.49398
 Alpha  occ. eigenvalues --   -0.49026  -0.48634  -0.48463  -0.46716  -0.46271
 Alpha  occ. eigenvalues --   -0.45629  -0.45168  -0.44388  -0.44082  -0.43321
 Alpha  occ. eigenvalues --   -0.43112  -0.42637  -0.41977  -0.41594  -0.41268
 Alpha  occ. eigenvalues --   -0.40707  -0.40419  -0.40261  -0.39085  -0.38251
 Alpha  occ. eigenvalues --   -0.38068  -0.37025  -0.36948  -0.36131  -0.35957
 Alpha  occ. eigenvalues --   -0.35288  -0.34399  -0.34286  -0.33921  -0.33714
 Alpha  occ. eigenvalues --   -0.32771  -0.31925  -0.31856  -0.31157  -0.29705
 Alpha  occ. eigenvalues --   -0.28989  -0.28462  -0.26595  -0.24500  -0.23086
 Alpha  occ. eigenvalues --   -0.21924  -0.20829  -0.20682
 Alpha virt. eigenvalues --   -0.04136  -0.01499  -0.00374   0.00430   0.00767
 Alpha virt. eigenvalues --    0.03104   0.06123   0.06821   0.07186   0.08013
 Alpha virt. eigenvalues --    0.08578   0.09686   0.09892   0.10493   0.10983

 Mulliken charges:
               1
     1  C   -0.445290
     2  C   -0.257976
     3  C   -0.261149
     4  C   -0.262629
     5  C   -0.126774
     6  C   -0.258840
     7  C   -0.455470
     8  C   -0.139846
     9  N   -0.587438
    10  C    0.372872
    11  S   -0.335128
    12  N   -0.439329
    13  N   -0.446792
    14  C    0.602680
    15  O   -0.533890
    16  C   -0.417316
    17  C    0.105477
    18  N   -0.487247
    19  C    0.274635
    20  C    0.116080
    21  C   -0.180535
    22  C   -0.143433
    23  C   -0.123777
    24  C   -0.137500
    25  C   -0.178900
    26  C   -0.407856
    27  S    0.258933
    28  H    0.146827
    29  H    0.148372
    30  H    0.143556
    31  H    0.136655
    32  H    0.134413
    33  H    0.133114
    34  H    0.136468
    35  H    0.137696
    36  H    0.136266
    37  H    0.135894
    38  H    0.151055
    39  H    0.133434
    40  H    0.151865
    41  H    0.158693
    42  H    0.144041
    43  H    0.156082
    44  H    0.162357
    45  H    0.357950
    46  H    0.371449
    47  H    0.416846
    48  H    0.212412
    49  H    0.194382
    50  H    0.188949
    51  H    0.142464
    52  H    0.129722
    53  H    0.128722
    54  H    0.121305
    55  H    0.185450
 Sum of Mulliken charges =  -0.00000

 Dipole moment (field-independent basis, Debye):
    X=              1.4795    Y=              1.8201    Z=              0.9195  Tot=              2.5194
 Quadrupole moment (field-independent basis, Debye-Ang):
   XX=           -140.8845   YY=           -180.3172   ZZ=           -175.8960
   XY=             -0.3487   XZ=             -9.2610   YZ=             -4.1274

 Normal termination of Gaussian 16 at Sat Nov  5 11:39:00 2022.
