 Gaussian 16, Revision B.01,
 Gaussian 16:  ES64L-G16RevB.01 20-Dec-2017

 -----------------------------
 #p b3lyp/6-31g(d) opt SCF=XQC
 -----------------------------

 ------------------------------
 Gaussian input prepared by ASE
 ------------------------------
 Symbolic Z-matrix:
 Charge =  0 Multiplicity = 1

 SCF Done:  E(RB3LYP) =  -1869.59868773     A.U. after   15 cycles
 SCF Done:  E(RB3LYP) =  -1869.60507783     A.U. after   15 cycles
 SCF Done:  E(RB3LYP) =  -1869.60699565     A.U. after   13 cycles
 SCF Done:  E(RB3LYP) =  -1869.60788924     A.U. after   12 cycles
 SCF Done:  E(RB3LYP) =  -1869.60836162     A.U. after   12 cycles
 SCF Done:  E(RB3LYP) =  -1869.60843418     A.U. after   11 cycles
 SCF Done:  E(RB3LYP) =  -1869.60847068     A.U. after   10 cycles
 SCF Done:  E(RB3LYP) =  -1869.60850746     A.U. after   11 cycles
 SCF Done:  E(RB3LYP) =  -1869.60853299     A.U. after   11 cycles
 SCF Done:  E(RB3LYP) =  -1869.60855294     A.U. after   11 cycles
 SCF Done:  E(RB3LYP) =  -1869.60862042     A.U. after   10 cycles
 SCF Done:  E(RB3LYP) =  -1869.60862142     A.U. after    8 cycles
 SCF Done:  E(RB3LYP) =  -1869.60862264     A.U. after    8 cycles
 SCF Done:  E(RB3LYP) =  -1869.60862319     A.U. after    9 cycles
 SCF Done:  E(RB3LYP) =  -1869.60862321     A.U. after    8 cycles
 SCF Done:  E(RB3LYP) =  -1869.60862316     A.U. after    8 cycles
 SCF Done:  E(RB3LYP) =  -1869.60862328     A.U. after    8 cycles
 SCF Done:  E(RB3LYP) =  -1869.60862331     A.U. after    7 cycles
 SCF Done:  E(RB3LYP) =  -1869.60862331     A.U. after    7 cycles
 SCF Done:  E(RB3LYP) =  -1869.60862330     A.U. after    7 cycles
 Optimization completed.
    -- Stationary point found.

                         Standard orientation:
 ---------------------------------------------------------------------
 Center     Atomic      Atomic             Coordinates (Angstroms)
 Number     Number       Type             X           Y           Z
 ---------------------------------------------------------------------
      1          6           0        7.573186    1.940762   -1.729186
      2          6           0        7.662150    1.250913   -0.362616
      3          6           0        7.153301   -0.203288   -0.365673
      4          6           0        5.622938   -0.377545   -0.528799
      5          6           0        4.855682   -0.681177    0.779627
      6          6           0        4.965714    0.446765    1.827931
      7          6           0        4.276635    0.153947    3.166106
      8          6           0        3.399377   -1.089838    0.484437
      9          7           0        2.617746    0.013448   -0.062938
     10          6           0        1.294877   -0.005333   -0.365085
     11         16           0        0.492646    1.356913   -0.965379
     12          7           0        0.670207   -1.182511   -0.104980
     13          7           0       -0.634835   -1.423728   -0.503049
     14          6           0       -1.039639   -2.714156   -0.499186
     15          8           0       -0.263449   -3.637615   -0.249142
     16          6           0       -2.493531   -2.964980   -0.909771
     17          6           0       -3.516792   -1.992817   -0.387153
     18          7           0       -3.404928   -0.698041   -0.441312
     19          6           0       -4.516970   -0.045506    0.070886
     20          6           0       -4.563211    1.430113    0.087761
     21          6           0       -3.398415    2.178815   -0.145301
     22          6           0       -3.436152    3.572146   -0.115209
     23          6           0       -4.632239    4.242497    0.143608
     24          6           0       -5.798173    3.506487    0.369163
     25          6           0       -5.764721    2.115065    0.338791
     26          6           0       -5.494035   -0.895960    0.528544
     27         16           0       -5.025538   -2.546822    0.316196
     28          1           0        7.953202    2.967297   -1.678115
     29          1           0        6.541952    1.991931   -2.097953
     30          1           0        8.164996    1.402496   -2.479919
     31          1           0        7.109574    1.840617    0.380670
     32          1           0        8.709842    1.253226   -0.033148
     33          1           0        7.476120   -0.702290    0.558696
     34          1           0        7.661856   -0.736293   -1.180097
     35          1           0        5.425434   -1.203287   -1.224342
     36          1           0        5.200527    0.515293   -1.010200
     37          1           0        5.313868   -1.579548    1.220906
     38          1           0        6.029990    0.632391    2.013297
     39          1           0        4.570307    1.385487    1.413872
     40          1           0        4.494977    0.944235    3.892486
     41          1           0        3.187469    0.098475    3.064655
     42          1           0        4.624542   -0.794568    3.594126
     43          1           0        3.408769   -1.929805   -0.227664
     44          1           0        2.921411   -1.451370    1.405213
     45          1           0        3.060480    0.907061   -0.219042
     46          1           0        1.154552   -2.063054    0.047050
     47          1           0       -1.258417   -0.620739   -0.583930
     48          1           0       -2.527686   -2.961370   -2.008574
     49          1           0       -2.724108   -3.982828   -0.588336
     50          1           0       -2.460758    1.671885   -0.346444
     51          1           0       -2.522135    4.131560   -0.294524
     52          1           0       -4.659046    5.328674    0.165065
     53          1           0       -6.738098    4.017024    0.561794
     54          1           0       -6.685452    1.559661    0.494884
     55          1           0       -6.437527   -0.648333    0.992342
 ---------------------------------------------------------------------

 The electronic state is 1-A.
 Alpha  occ. eigenvalues --  -88.92583 -88.81410 -19.12665 -14.41120 -14.40211
 Alpha  occ. eigenvalues --  -14.37226 -14.34835 -10.30354 -10.30316 -10.27224
 Alpha  occ. eigenvalues --  -10.23896 -10.23597 -10.22546 -10.22517 -10.20931
 Alpha  occ. eigenvalues --  -10.19915 -10.19482 -10.19240 -10.18943 -10.18830
 Alpha  occ. eigenvalues --  -10.18729 -10.18615 -10.18592 -10.18368 -10.18275
 Alpha  occ. eigenvalues --  -10.18012 -10.17701  -7.98737  -7.87650  -5.95119
 Alpha  occ. eigenvalues --   -5.94764  -5.94460  -5.84236  -5.83530  -5.83294
 Alpha  occ. eigenvalues --   -1.07020  -1.01352  -0.97736  -0.95786  -0.86026
 Alpha  occ. eigenvalues --   -0.85140  -0.82725  -0.80860  -0.80004  -0.78795
 Alpha  occ. eigenvalues --   -0.75983  -0.75102  -0.73922  -0.73512  -0.70387
 Alpha  occ. eigenvalues --   -0.69963  -0.66125  -0.63927  -0.63638  -0.62549
 Alpha  occ. eigenvalues --   -0.62090  -0.60212  -0.58317  -0.57960  -0.57143
 Alpha  occ. eigenvalues --   -0.55653  -0.53971  -0.52852  -0.51872  -0.49398
 Alpha  occ. eigenvalues --   -0.49026  -0.48634  -0.48463  -0.46716  -0.46271
 Alpha  occ. eigenvalues --   -0.45629  -0.45168  -0.44388  -0.44082  -0.43321
 Alpha  occ. eigenvalues --   -0.43112  -0.42637  -0.41977  -0.41594  -0.41268
 Alpha  occ. eigenvalues --   -0.40707  -0.40419  -0.40261  -0.39085  -0.38251
 Alpha  occ. eigenvalues --   -0.38068  -0.37025  -0.36948  -0.36131  -0.35958
 Alpha  occ. eigenvalues --   -0.35288  -0.34399  -0.34286  -0.33921  -0.33714
 Alpha  occ. eigenvalues --   -0.32771  -0.31925  -0.31856  -0.31157  -0.29705
 Alpha  occ. eigenvalues --   -0.28989  -0.28462  -0.26595  -0.24500  -0.23086
 Alpha  occ. eigenvalues --   -0.21924  -0.20829  -0.20682
 Alpha virt. eigenvalues --   -0.04136  -0.01499  -0.00374   0.00430   0.00767
 Alpha virt. eigenvalues --    0.03104   0.06123   0.06821   0.07186   0.08013
 Alpha virt. eigenvalues --    0.08578   0.09686   0.09892   0.10493   0.10983

 Mulliken charges:
               1
     1  C   -0.445297
     2  C   -0.257966
     3  C   -0.261153
     4  C   -0.262621
     5  C   -0.126764
     6  C   -0.258865
     7  C   -0.455463
     8  C   -0.139860
     9  N   -0.587435
    10  C    0.372860
    11  S   -0.335123
    12  N   -0.439325
    13  N   -0.446786
    14  C    0.602677
    15  O   -0.533891
    16  C   -0.417317
    17  C    0.105483
    18  N   -0.487243
    19  C    0.274623
    20  C    0.116094
    21  C   -0.180539
    22  C   -0.143443
    23  C   -0.123771
    24  C   -0.137502
    25  C   -0.178907
    26  C   -0.407858
    27  S    0.258933
    28  H    0.146828
    29  H    0.148374
    30  H    0.143557
    31  H    0.136655
    32  H    0.134412
    33  H    0.133112
    34  H    0.136470
    35  H    0.137695
    36  H    0.136264
    37  H    0.135896
    38  H    0.151059
    39  H    0.133437
    40  H    0.151866
    41  H    0.158694
    42  H    0.144040
    43  H    0.156083
    44  H    0.162359
    45  H    0.357951
    46  H    0.371449
    47  H    0.416845
    48  H    0.212412
    49  H    0.194383
    50  H    0.188949
    51  H    0.142469
    52  H    0.129722
    53  H    0.128722
    54  H    0.121306
    55  H    0.185452
 Sum of Mulliken charges =  -0.00000

 Dipole moment (field-independent basis, Debye):
    X=              1.3475    Y=             -1.2399    Z=              1.7304  Tot=              2.5194
 Quadrupole moment (field-independent basis, Debye-Ang):
   XX=           -135.5924   YY=           -178.8775   ZZ=           -179.6927
   XY=              0.6839   XZ=              0.7199   YZ=              4.3285

 Normal termination of Gaussian 16 at Fri Nov  4 19:18:51 2022.
