 Gaussian 16, Revision B.01,
 Gaussian 16:  ES64L-G16RevB.01 20-Dec-2017

 -------------------------------------------------------------------
 #p b3lyp/6-31g(d) 6D 10F nosymm GFInput td=(50-50,nstate=2) SCF=XQC
 -------------------------------------------------------------------

 ------------------------------
 Gaussian input prepared by ASE
 ------------------------------
 Symbolic Z-matrix:
 Charge =  0 Multiplicity = 1

                          Input orientation:
 ---------------------------------------------------------------------
 Center     Atomic      Atomic             Coordinates (Angstroms)
 Number     Number       Type             X           Y           Z
 ---------------------------------------------------------------------
      1          8           0        2.947155    2.968555   -1.014261
      2         16           0        3.034968    1.516818   -0.852649
      3          8           0        3.146570    0.628495   -2.016781
      4          7           0        1.731210    1.098091    0.119262
      5          6           0        1.288306   -0.302238    0.091089
      6          6           0        0.061642   -0.473999    0.992296
      7          7           0       -1.134862    0.150000    0.445050
      8          7           0       -1.121545    1.483489    0.176659
      9          6           0       -2.332311    1.749667   -0.312050
     10          6           0       -3.143650    0.595957   -0.359326
     11          6           0       -2.337879   -0.416340    0.138533
     12          6           0       -2.728562   -1.857190    0.282518
     13          6           0       -4.261772   -1.981698    0.140248
     14          6           0       -4.805301   -1.141029   -1.028162
     15          6           0       -4.559104    0.366238   -0.812123
     16          6           0        4.417021    1.112507    0.186080
     17          6           0        5.427489    0.250724   -0.157466
     18          6           0        6.442885    0.183610    0.839277
     19          6           0        6.182762    0.998386    1.909442
     20         16           0        4.696080    1.868075    1.730508
     21          1           0        0.951886    1.748285   -0.037903
     22          1           0        2.097586   -0.927518    0.485309
     23          1           0        1.059398   -0.647298   -0.925438
     24          1           0        0.268920   -0.051572    1.981809
     25          1           0       -0.150842   -1.539295    1.110107
     26          1           0       -2.572846    2.761743   -0.612920
     27          1           0       -2.409350   -2.268006    1.249486
     28          1           0       -2.234322   -2.465143   -0.490250
     29          1           0       -4.735982   -1.648911    1.073562
     30          1           0       -4.528850   -3.036460    0.007957
     31          1           0       -4.315272   -1.459263   -1.958897
     32          1           0       -5.877902   -1.328828   -1.155295
     33          1           0       -5.267545    0.747617   -0.061475
     34          1           0       -4.770107    0.918539   -1.736507
     35          1           0        5.428593   -0.299106   -1.090809
     36          1           0        7.325344   -0.441788    0.762641
     37          1           0        6.780190    1.138886    2.801132
 ---------------------------------------------------------------------

 SCF Done:  E(RB3LYP) =  -1616.60855701     A.U. after   15 cycles

 Excitation energies and oscillator strengths:

 Excited state symmetry could not be determined.
 Excited State   1:      Triplet-?Sym    3.3232 eV  373.08 nm  f=0.0000  <S**2>=2.000
      78 -> 83        -0.22343
      79 -> 83        -0.19885
      80 -> 83        -0.14305
      81 -> 83         0.60491
 This state for optimization and/or second-order correction.
 Total Energy, E(TD-HF/TD-DFT) =  -1616.48643072
 Copying the excited state density for this state as the 1-particle RhoCI density.

 Excited state symmetry could not be determined.
 Excited State   2:      Triplet-?Sym    4.2082 eV  294.63 nm  f=0.0000  <S**2>=2.000
      78 -> 83        -0.12273
      79 -> 83         0.66969
      81 -> 83         0.15484

 Excited state symmetry could not be determined.
 Excited State   3:      Singlet-?Sym    4.8091 eV  257.81 nm  f=0.0113  <S**2>=0.000
      82 -> 83         0.70032

 Excited state symmetry could not be determined.
 Excited State   4:      Singlet-?Sym    5.0716 eV  244.47 nm  f=0.0932  <S**2>=0.000
      78 -> 83         0.22667
      79 -> 83         0.11167
      81 -> 83         0.64634

 Alpha  occ. eigenvalues --  -89.10991 -88.92428 -19.13619 -19.13345 -14.41125
 Alpha  occ. eigenvalues --  -14.35327 -14.34941 -10.24667 -10.23945 -10.23587
 Alpha  occ. eigenvalues --  -10.23205 -10.22357 -10.21274 -10.20940 -10.20741
 Alpha  occ. eigenvalues --  -10.20314 -10.19704 -10.19375 -10.19162 -10.18126
 Alpha  occ. eigenvalues --   -8.13397  -7.98485  -6.09874  -6.09808  -6.09765
 Alpha  occ. eigenvalues --   -5.94904  -5.94519  -5.94180  -1.10327  -1.04668
 Alpha  occ. eigenvalues --   -0.99265  -0.92029  -0.89393  -0.84824  -0.84205
 Alpha  occ. eigenvalues --   -0.77385  -0.75785  -0.75381  -0.74957  -0.73081
 Alpha  occ. eigenvalues --   -0.66803  -0.65172  -0.63696  -0.60952  -0.57839
 Alpha  occ. eigenvalues --   -0.57584  -0.55626  -0.54214  -0.53187  -0.52033
 Alpha  occ. eigenvalues --   -0.51050  -0.49635  -0.47342  -0.45773  -0.45589
 Alpha  occ. eigenvalues --   -0.44594  -0.43796  -0.43633  -0.42978  -0.42113
 Alpha  occ. eigenvalues --   -0.41268  -0.40858  -0.40446  -0.40118  -0.39600
 Alpha  occ. eigenvalues --   -0.39179  -0.38998  -0.37245  -0.35980  -0.34108
 Alpha  occ. eigenvalues --   -0.33845  -0.33437  -0.32850  -0.31232  -0.30800
 Alpha  occ. eigenvalues --   -0.29376  -0.28976  -0.27267  -0.26455  -0.24893
 Alpha  occ. eigenvalues --   -0.24569  -0.23145
 Alpha virt. eigenvalues --   -0.04006   0.01066   0.02047   0.04750   0.06034
 Alpha virt. eigenvalues --    0.06300   0.07257   0.08362   0.09143   0.10500
 Alpha virt. eigenvalues --    0.11403   0.11923   0.12271   0.13103   0.13465

 Mulliken charges:
               1
     1  O   -0.524346
     2  S    1.236142
     3  O   -0.540774
     4  N   -0.714181
     5  C   -0.131236
     6  C   -0.162346
     7  N   -0.334698
     8  N   -0.320618
     9  C    0.012981
    10  C    0.001727
    11  C    0.363957
    12  C   -0.338342
    13  C   -0.270159
    14  C   -0.271418
    15  C   -0.337872
    16  C   -0.385755
    17  C   -0.098918
    18  C   -0.092392
    19  C   -0.349412
    20  S    0.328256
    21  H    0.394232
    22  H    0.163960
    23  H    0.176633
    24  H    0.185540
    25  H    0.165123
    26  H    0.144855
    27  H    0.151359
    28  H    0.158084
    29  H    0.145714
    30  H    0.139971
    31  H    0.142450
    32  H    0.138473
    33  H    0.148708
    34  H    0.149720
    35  H    0.186138
    36  H    0.152628
    37  H    0.185816
 Sum of Mulliken charges =  -0.00000

 Dipole moment (field-independent basis, Debye):
    X=             -1.7550    Y=             -5.1557    Z=              3.4638  Tot=              6.4544
 Quadrupole moment (field-independent basis, Debye-Ang):
   XX=           -107.4403   YY=           -138.1729   ZZ=           -133.5844
   XY=             -8.6285   XZ=             16.2679   YZ=              3.6045

 Normal termination of Gaussian 16 at Sat Nov  5 11:30:35 2022.
