 Gaussian 16, Revision B.01,
 Gaussian 16:  ES64L-G16RevB.01 20-Dec-2017

 -----------------------------
 #p b3lyp/6-31g(d) opt SCF=XQC
 -----------------------------

 ------------------------------
 Gaussian input prepared by ASE
 ------------------------------
 Symbolic Z-matrix:
 Charge =  0 Multiplicity = 1

 SCF Done:  E(RB3LYP) =  -1616.58877500     A.U. after   15 cycles
 SCF Done:  E(RB3LYP) =  -1616.59664929     A.U. after   14 cycles
 SCF Done:  E(RB3LYP) =  -1616.60009766     A.U. after   13 cycles
 SCF Done:  E(RB3LYP) =  -1616.60227420     A.U. after   13 cycles
 SCF Done:  E(RB3LYP) =  -1616.60317584     A.U. after   12 cycles
 SCF Done:  E(RB3LYP) =  -1616.60376207     A.U. after   12 cycles
 SCF Done:  E(RB3LYP) =  -1616.60430857     A.U. after   12 cycles
 SCF Done:  E(RB3LYP) =  -1616.60479013     A.U. after   13 cycles
 SCF Done:  E(RB3LYP) =  -1616.60519823     A.U. after   13 cycles
 SCF Done:  E(RB3LYP) =  -1616.60542365     A.U. after   13 cycles
 SCF Done:  E(RB3LYP) =  -1616.60855238     A.U. after   10 cycles
 SCF Done:  E(RB3LYP) =  -1616.60855382     A.U. after    9 cycles
 SCF Done:  E(RB3LYP) =  -1616.60855401     A.U. after    8 cycles
 SCF Done:  E(RB3LYP) =  -1616.60855410     A.U. after    7 cycles
 SCF Done:  E(RB3LYP) =  -1616.60855413     A.U. after    7 cycles
 SCF Done:  E(RB3LYP) =  -1616.60855415     A.U. after    8 cycles
 SCF Done:  E(RB3LYP) =  -1616.60855418     A.U. after    7 cycles
 SCF Done:  E(RB3LYP) =  -1616.60855420     A.U. after    8 cycles
 SCF Done:  E(RB3LYP) =  -1616.60855422     A.U. after    7 cycles
 SCF Done:  E(RB3LYP) =  -1616.60855424     A.U. after    7 cycles
 Optimization completed.
    -- Stationary point found.

                         Standard orientation:
 ---------------------------------------------------------------------
 Center     Atomic      Atomic             Coordinates (Angstroms)
 Number     Number       Type             X           Y           Z
 ---------------------------------------------------------------------
      1          8           0       -2.346217    2.362464    0.053051
      2         16           0       -2.158660    1.041931    0.655037
      3          8           0       -1.984023    0.886127    2.104865
      4          7           0       -0.892911    0.340727   -0.196973
      5          6           0       -0.180218   -0.772374    0.444086
      6          6           0        0.967802   -1.237642   -0.457000
      7          7           0        2.061874   -0.278780   -0.520766
      8          7           0        1.808941    0.985300   -0.954970
      9          6           0        2.982554    1.613311   -0.892731
     10          6           0        4.007568    0.763457   -0.425131
     11          6           0        3.376376   -0.449557   -0.196941
     12          6           0        4.030298   -1.693124    0.327790
     13          6           0        5.564172   -1.536267    0.232386
     14          6           0        6.035303   -0.150189    0.705834
     15          6           0        5.476023    0.979189   -0.183464
     16          6           0       -3.522657   -0.010766    0.226277
     17          6           0       -4.305957   -0.682560    1.130087
     18          6           0       -5.375238   -1.383827    0.502479
     19          6           0       -5.381702   -1.222871   -0.857973
     20         16           0       -4.087171   -0.213365   -1.409050
     21          1           0       -0.247040    1.067002   -0.528896
     22          1           0       -0.882100   -1.605032    0.568023
     23          1           0        0.205260   -0.504976    1.436405
     24          1           0        0.590563   -1.422984   -1.468872
     25          1           0        1.375717   -2.172351   -0.064817
     26          1           0        3.044106    2.654114   -1.185339
     27          1           0        3.711288   -2.583744   -0.229633
     28          1           0        3.739874   -1.863404    1.375506
     29          1           0        5.874875   -1.684515   -0.810773
     30          1           0        6.046304   -2.324844    0.821495
     31          1           0        5.706039    0.007061    1.742428
     32          1           0        7.130897   -0.111044    0.712655
     33          1           0        6.022462    0.995985   -1.138415
     34          1           0        5.657442    1.953762    0.287002
     35          1           0       -4.111939   -0.659590    2.195579
     36          1           0       -6.105132   -1.979749    1.039007
     37          1           0       -6.074671   -1.642886   -1.575713
 ---------------------------------------------------------------------

 The electronic state is 1-A.
 Alpha  occ. eigenvalues --  -89.10991 -88.92427 -19.13619 -19.13345 -14.41125
 Alpha  occ. eigenvalues --  -14.35327 -14.34941 -10.24667 -10.23945 -10.23587
 Alpha  occ. eigenvalues --  -10.23205 -10.22357 -10.21274 -10.20940 -10.20741
 Alpha  occ. eigenvalues --  -10.20314 -10.19704 -10.19375 -10.19162 -10.18126
 Alpha  occ. eigenvalues --   -8.13397  -7.98485  -6.09874  -6.09808  -6.09765
 Alpha  occ. eigenvalues --   -5.94904  -5.94518  -5.94179  -1.10327  -1.04668
 Alpha  occ. eigenvalues --   -0.99265  -0.92029  -0.89393  -0.84824  -0.84205
 Alpha  occ. eigenvalues --   -0.77385  -0.75785  -0.75381  -0.74956  -0.73081
 Alpha  occ. eigenvalues --   -0.66803  -0.65172  -0.63696  -0.60952  -0.57839
 Alpha  occ. eigenvalues --   -0.57583  -0.55626  -0.54214  -0.53187  -0.52033
 Alpha  occ. eigenvalues --   -0.51050  -0.49635  -0.47342  -0.45773  -0.45589
 Alpha  occ. eigenvalues --   -0.44594  -0.43796  -0.43633  -0.42978  -0.42113
 Alpha  occ. eigenvalues --   -0.41268  -0.40858  -0.40446  -0.40118  -0.39600
 Alpha  occ. eigenvalues --   -0.39179  -0.38998  -0.37245  -0.35980  -0.34108
 Alpha  occ. eigenvalues --   -0.33845  -0.33438  -0.32850  -0.31232  -0.30800
 Alpha  occ. eigenvalues --   -0.29376  -0.28976  -0.27267  -0.26455  -0.24893
 Alpha  occ. eigenvalues --   -0.24569  -0.23145
 Alpha virt. eigenvalues --   -0.04006   0.01066   0.02047   0.04750   0.06034
 Alpha virt. eigenvalues --    0.06300   0.07257   0.08362   0.09143   0.10500
 Alpha virt. eigenvalues --    0.11403   0.11923   0.12271   0.13103   0.13465

 Mulliken charges:
               1
     1  O   -0.524344
     2  S    1.236163
     3  O   -0.540774
     4  N   -0.714196
     5  C   -0.131228
     6  C   -0.162346
     7  N   -0.334691
     8  N   -0.320619
     9  C    0.012989
    10  C    0.001702
    11  C    0.363965
    12  C   -0.338337
    13  C   -0.270167
    14  C   -0.271423
    15  C   -0.337862
    16  C   -0.385786
    17  C   -0.098923
    18  C   -0.092398
    19  C   -0.349412
    20  S    0.328288
    21  H    0.394234
    22  H    0.163959
    23  H    0.176632
    24  H    0.185538
    25  H    0.165123
    26  H    0.144855
    27  H    0.151358
    28  H    0.158083
    29  H    0.145715
    30  H    0.139972
    31  H    0.142451
    32  H    0.138475
    33  H    0.148708
    34  H    0.149720
    35  H    0.186138
    36  H    0.152627
    37  H    0.185814
 Sum of Mulliken charges =  -0.00000

 Dipole moment (field-independent basis, Debye):
    X=              2.4168    Y=             -5.9453    Z=             -0.6875  Tot=              6.4545
 Quadrupole moment (field-independent basis, Debye-Ang):
   XX=           -104.2038   YY=           -132.0664   ZZ=           -134.4511
   XY=             12.5022   XZ=              4.6241   YZ=             -2.5932

 Normal termination of Gaussian 16 at Fri Nov  4 19:03:34 2022.
