 Gaussian 16, Revision B.01,
 Gaussian 16:  ES64L-G16RevB.01 20-Dec-2017

 -----------------------------
 #p b3lyp/6-31g(d) opt SCF=XQC
 -----------------------------

 ------------------------------
 Gaussian input prepared by ASE
 ------------------------------
 Symbolic Z-matrix:
 Charge =  0 Multiplicity = 1

 SCF Done:  E(RB3LYP) =  -1706.76943626     A.U. after   14 cycles
 SCF Done:  E(RB3LYP) =  -1706.77573246     A.U. after   14 cycles
 SCF Done:  E(RB3LYP) =  -1706.77722533     A.U. after   13 cycles
 SCF Done:  E(RB3LYP) =  -1706.77945977     A.U. after   12 cycles
 SCF Done:  E(RB3LYP) =  -1706.77975138     A.U. after   12 cycles
 SCF Done:  E(RB3LYP) =  -1706.77989589     A.U. after   12 cycles
 SCF Done:  E(RB3LYP) =  -1706.78059509     A.U. after   11 cycles
 SCF Done:  E(RB3LYP) =  -1706.78067795     A.U. after   11 cycles
 SCF Done:  E(RB3LYP) =  -1706.78079315     A.U. after   11 cycles
 SCF Done:  E(RB3LYP) =  -1706.78084124     A.U. after   10 cycles
 SCF Done:  E(RB3LYP) =  -1706.78092509     A.U. after    9 cycles
 SCF Done:  E(RB3LYP) =  -1706.78092684     A.U. after    9 cycles
 SCF Done:  E(RB3LYP) =  -1706.78092795     A.U. after    9 cycles
 SCF Done:  E(RB3LYP) =  -1706.78092864     A.U. after    8 cycles
 SCF Done:  E(RB3LYP) =  -1706.78092893     A.U. after    7 cycles
 SCF Done:  E(RB3LYP) =  -1706.78092915     A.U. after    7 cycles
 SCF Done:  E(RB3LYP) =  -1706.78092922     A.U. after    6 cycles
 SCF Done:  E(RB3LYP) =  -1706.78092926     A.U. after    6 cycles
 SCF Done:  E(RB3LYP) =  -1706.78092929     A.U. after    6 cycles
 SCF Done:  E(RB3LYP) =  -1706.78092932     A.U. after    6 cycles
 Optimization completed.
    -- Stationary point found.

                         Standard orientation:
 ---------------------------------------------------------------------
 Center     Atomic      Atomic             Coordinates (Angstroms)
 Number     Number       Type             X           Y           Z
 ---------------------------------------------------------------------
      1          6           0        9.910401    1.118177    0.387143
      2          6           0        9.034578    1.421311    1.609003
      3          6           0        7.953750    2.488572    1.372090
      4          6           0        6.909033    2.135711    0.318560
      5          8           0        6.143412    0.980974    0.745806
      6          6           0        6.184472   -0.104725   -0.032144
      7          8           0        6.829583   -0.253395   -1.049472
      8          8           0        5.385694   -1.032910    0.528864
      9          6           0        5.240431   -2.273882   -0.204295
     10          6           0        4.816971   -3.322892    0.813473
     11          6           0        4.247963   -2.081562   -1.349795
     12          8           0        2.934494   -1.759776   -0.846063
     13          6           0        2.560754   -0.457302   -0.861510
     14          8           0        3.237982    0.447864   -1.298337
     15          6           0        1.147688   -0.277564   -0.292851
     16          7           0        0.871406    1.105199    0.076944
     17          6           0        0.110160   -0.785436   -1.334296
     18          6           0       -1.276283   -0.982394   -0.760837
     19          6           0       -1.740644   -2.269280   -0.463641
     20          6           0       -3.009979   -2.464561    0.078491
     21          6           0       -3.833419   -1.371632    0.320610
     22          8           0       -5.055375   -1.598777    0.949986
     23          6           0       -6.223567   -1.245603    0.322607
     24          8           0       -6.275266   -0.786909   -0.792562
     25          6           0       -7.403175   -1.507845    1.246162
     26          6           0       -8.713654   -1.550216    0.455393
     27          6           0       -7.430673   -0.442816    2.362920
     28          6           0       -3.382198   -0.079284    0.029947
     29          8           0       -4.227055    0.968480    0.373871
     30          6           0       -4.490124    1.974321   -0.529856
     31          8           0       -3.949458    2.080531   -1.601883
     32          6           0       -5.548349    2.920152    0.013188
     33          6           0       -4.991622    4.353153    0.052035
     34          6           0       -6.799697    2.822807   -0.880403
     35          6           0       -2.110757    0.113106   -0.503394
     36          1           0        9.330376    0.668421   -0.425407
     37          1           0       10.384470    2.030350    0.002504
     38          1           0       10.710193    0.415860    0.648405
     39          1           0        9.669959    1.762358    2.436806
     40          1           0        8.554931    0.497656    1.958333
     41          1           0        8.425371    3.429452    1.052943
     42          1           0        7.438195    2.702424    2.317142
     43          1           0        7.351570    1.921560   -0.655205
     44          1           0        6.181801    2.945759    0.207953
     45          1           0        6.207819   -2.526924   -0.650449
     46          1           0        5.562451   -3.400670    1.610015
     47          1           0        4.723488   -4.300433    0.328219
     48          1           0        3.853009   -3.063206    1.259142
     49          1           0        4.136632   -3.019136   -1.902136
     50          1           0        4.587152   -1.292597   -2.021768
     51          1           0        1.066470   -0.907060    0.599957
     52          1           0        1.403657    1.346570    0.911672
     53          1           0        1.239620    1.708443   -0.659569
     54          1           0        0.468117   -1.733708   -1.748798
     55          1           0        0.084189   -0.062862   -2.160188
     56          1           0       -1.106619   -3.130434   -0.659216
     57          1           0       -3.376201   -3.457794    0.318108
     58          1           0       -7.222946   -2.481966    1.718472
     59          1           0       -9.551617   -1.765958    1.127043
     60          1           0       -8.902991   -0.591477   -0.037211
     61          1           0       -8.687548   -2.321063   -0.321199
     62          1           0       -6.492249   -0.431156    2.924426
     63          1           0       -8.249328   -0.653594    3.059422
     64          1           0       -7.594040    0.556258    1.942454
     65          1           0       -5.801374    2.598247    1.028701
     66          1           0       -4.128744    4.432181    0.722854
     67          1           0       -5.761477    5.047503    0.406056
     68          1           0       -4.675869    4.665186   -0.948500
     69          1           0       -7.181987    1.797788   -0.918183
     70          1           0       -7.587950    3.479421   -0.495549
     71          1           0       -6.558996    3.131451   -1.902865
     72          1           0       -1.763794    1.116209   -0.706251
 ---------------------------------------------------------------------

 The electronic state is 1-A.
 Alpha  occ. eigenvalues --  -19.20061 -19.20018 -19.19792 -19.19533 -19.19290
 Alpha  occ. eigenvalues --  -19.14518 -19.14154 -19.13530 -19.13436 -14.31955
 Alpha  occ. eigenvalues --  -10.35942 -10.31816 -10.31776 -10.31237 -10.26080
 Alpha  occ. eigenvalues --  -10.25091 -10.25037 -10.25023 -10.24032 -10.23293
 Alpha  occ. eigenvalues --  -10.20857 -10.20114 -10.19772 -10.19660 -10.19389
 Alpha  occ. eigenvalues --  -10.19108 -10.19084 -10.18845 -10.18730 -10.18647
 Alpha  occ. eigenvalues --  -10.18240 -10.17940 -10.17871 -10.17528 -10.16952
 Alpha  occ. eigenvalues --   -1.13792  -1.11191  -1.10693  -1.09805  -1.05197
 Alpha  occ. eigenvalues --   -1.02557  -1.02320  -1.01875  -1.01568  -0.89627
 Alpha  occ. eigenvalues --   -0.85930  -0.81381  -0.81089  -0.80363  -0.79505
 Alpha  occ. eigenvalues --   -0.78047  -0.75103  -0.74357  -0.73151  -0.71351
 Alpha  occ. eigenvalues --   -0.69128  -0.68476  -0.67604  -0.67016  -0.66163
 Alpha  occ. eigenvalues --   -0.63870  -0.62385  -0.61334  -0.59400  -0.58546
 Alpha  occ. eigenvalues --   -0.57077  -0.56779  -0.54957  -0.54509  -0.53893
 Alpha  occ. eigenvalues --   -0.52510  -0.51091  -0.50707  -0.50618  -0.49998
 Alpha  occ. eigenvalues --   -0.49236  -0.48758  -0.48349  -0.48014  -0.47447
 Alpha  occ. eigenvalues --   -0.46860  -0.45683  -0.45500  -0.45160  -0.45000
 Alpha  occ. eigenvalues --   -0.44477  -0.44118  -0.43833  -0.43729  -0.43207
 Alpha  occ. eigenvalues --   -0.42878  -0.42469  -0.42062  -0.41684  -0.41064
 Alpha  occ. eigenvalues --   -0.40510  -0.40315  -0.39890  -0.39771  -0.39122
 Alpha  occ. eigenvalues --   -0.39031  -0.38784  -0.38465  -0.38204  -0.37662
 Alpha  occ. eigenvalues --   -0.37079  -0.36808  -0.36621  -0.36371  -0.35952
 Alpha  occ. eigenvalues --   -0.35398  -0.35380  -0.35027  -0.34643  -0.34498
 Alpha  occ. eigenvalues --   -0.34302  -0.33761  -0.33694  -0.33542  -0.33314
 Alpha  occ. eigenvalues --   -0.32657  -0.32120  -0.31710  -0.30898  -0.29744
 Alpha  occ. eigenvalues --   -0.29517  -0.28570  -0.28316  -0.27478  -0.26796
 Alpha  occ. eigenvalues --   -0.24955  -0.24247  -0.23111
 Alpha virt. eigenvalues --   -0.01002  -0.00722   0.00401   0.01288   0.02460
 Alpha virt. eigenvalues --    0.04246   0.07249   0.07663   0.08632   0.09427
 Alpha virt. eigenvalues --    0.09566   0.10383   0.10900   0.11401   0.11879

 Mulliken charges:
               1
     1  C   -0.460056
     2  C   -0.255579
     3  C   -0.267239
     4  C   -0.063927
     5  O   -0.461954
     6  C    0.822678
     7  O   -0.500080
     8  O   -0.474026
     9  C    0.116871
    10  C   -0.458018
    11  C   -0.087568
    12  O   -0.464473
    13  C    0.615770
    14  O   -0.480236
    15  C   -0.067057
    16  N   -0.695086
    17  C   -0.358326
    18  C    0.163856
    19  C   -0.194442
    20  C   -0.173473
    21  C    0.323839
    22  O   -0.536936
    23  C    0.634271
    24  O   -0.462147
    25  C   -0.169823
    26  C   -0.440395
    27  C   -0.454096
    28  C    0.343749
    29  O   -0.539983
    30  C    0.638426
    31  O   -0.461658
    32  C   -0.167516
    33  C   -0.449648
    34  C   -0.461925
    35  C   -0.177048
    36  H    0.172586
    37  H    0.137010
    38  H    0.142679
    39  H    0.135369
    40  H    0.143324
    41  H    0.137186
    42  H    0.146179
    43  H    0.186587
    44  H    0.156876
    45  H    0.168146
    46  H    0.165014
    47  H    0.149988
    48  H    0.172111
    49  H    0.157755
    50  H    0.205013
    51  H    0.164423
    52  H    0.308080
    53  H    0.312403
    54  H    0.158985
    55  H    0.161946
    56  H    0.127716
    57  H    0.140634
    58  H    0.157620
    59  H    0.142261
    60  H    0.163344
    61  H    0.156858
    62  H    0.169566
    63  H    0.153422
    64  H    0.157184
    65  H    0.150713
    66  H    0.151439
    67  H    0.146623
    68  H    0.169617
    69  H    0.176124
    70  H    0.142622
    71  H    0.167919
    72  H    0.167933
 Sum of Mulliken charges =  -0.00000

 Dipole moment (field-independent basis, Debye):
    X=              0.7364    Y=             -1.6482    Z=              3.4482  Tot=              3.8921
 Quadrupole moment (field-independent basis, Debye-Ang):
   XX=           -189.5727   YY=           -185.4382   ZZ=           -212.7495
   XY=             -0.7242   XZ=             -9.8169   YZ=              5.0217

 Normal termination of Gaussian 16 at Fri Nov  4 19:16:18 2022.
