 Gaussian 16, Revision B.01,
 Gaussian 16:  ES64L-G16RevB.01 20-Dec-2017

 -------------------------------------------------------------------
 #p b3lyp/6-31g(d) 6D 10F nosymm GFInput td=(50-50,nstate=2) SCF=XQC
 -------------------------------------------------------------------

 ------------------------------
 Gaussian input prepared by ASE
 ------------------------------
 Symbolic Z-matrix:
 Charge =  0 Multiplicity = 1

                          Input orientation:
 ---------------------------------------------------------------------
 Center     Atomic      Atomic             Coordinates (Angstroms)
 Number     Number       Type             X           Y           Z
 ---------------------------------------------------------------------
      1          6           0        9.618876    2.385348   -0.119633
      2          6           0        8.563163    3.289672    0.528107
      3          6           0        7.441968    3.744493   -0.420273
      4          6           0        6.582481    2.624858   -0.997826
      5          8           0        5.861683    1.953187    0.065866
      6          6           0        6.095973    0.648869    0.237613
      7          8           0        6.883537   -0.041310   -0.376082
      8          8           0        5.305901    0.226541    1.243461
      9          6           0        5.362671   -1.189211    1.545215
     10          6           0        4.890727   -1.337307    2.984288
     11          6           0        4.523224   -1.965342    0.531755
     12          8           0        3.131705   -1.593788    0.621837
     13          6           0        2.659487   -0.712316   -0.292699
     14          8           0        3.314488   -0.242221   -1.197556
     15          6           0        1.172268   -0.415942   -0.062968
     16          7           0        0.737309    0.796245   -0.745998
     17          6           0        0.330765   -1.639297   -0.525870
     18          6           0       -1.100367   -1.610004   -0.035077
     19          6           0       -1.495308   -2.419083    1.037044
     20          6           0       -2.806677   -2.391724    1.509076
     21          6           0       -3.741062   -1.559007    0.905191
     22          8           0       -5.014960   -1.489358    1.464852
     23          6           0       -6.111494   -1.828778    0.712912
     24          8           0       -6.047717   -2.247818   -0.417138
     25          6           0       -7.380813   -1.581666    1.513514
     26          6           0       -8.563603   -2.339937    0.904829
     27          6           0       -7.646192   -0.063926    1.604229
     28          6           0       -3.360426   -0.743580   -0.166463
     29          8           0       -4.326174    0.121027   -0.666126
     30          6           0       -4.544136    0.209662   -2.023432
     31          8           0       -3.872853   -0.347310   -2.855300
     32          6           0       -5.739441    1.100707   -2.317743
     33          6           0       -5.310889    2.254787   -3.239365
     34          6           0       -6.845396    0.242664   -2.961544
     35          6           0       -2.047941   -0.766850   -0.630003
     36          1           0        9.193221    1.426741   -0.434018
     37          1           0       10.065608    2.864578   -1.000268
     38          1           0       10.429762    2.169904    0.585507
     39          1           0        9.050187    4.187708    0.930125
     40          1           0        8.116661    2.777637    1.390480
     41          1           0        7.875042    4.288023   -1.272657
     42          1           0        6.786899    4.453510    0.102059
     43          1           0        7.169389    1.885348   -1.544253
     44          1           0        5.814007    3.030453   -1.662822
     45          1           0        6.399077   -1.524769    1.434826
     46          1           0        5.524579   -0.748459    3.653435
     47          1           0        4.943557   -2.387685    3.290413
     48          1           0        3.857232   -0.996714    3.089954
     49          1           0        4.564338   -3.034156    0.760814
     50          1           0        4.885880   -1.788336   -0.481265
     51          1           0        1.021351   -0.290069    1.014691
     52          1           0        1.129619    1.610661   -0.275741
     53          1           0        1.152431    0.799274   -1.678522
     54          1           0        0.817330   -2.552537   -0.167526
     55          1           0        0.359206   -1.668941   -1.622775
     56          1           0       -0.773025   -3.080662    1.508685
     57          1           0       -3.120616   -3.010527    2.343685
     58          1           0       -7.188442   -1.948083    2.529981
     59          1           0       -9.465036   -2.175433    1.504993
     60          1           0       -8.760959   -1.999669   -0.116423
     61          1           0       -8.369719   -3.416326    0.862631
     62          1           0       -6.797047    0.462282    2.049338
     63          1           0       -8.532347    0.123734    2.220064
     64          1           0       -7.830993    0.357868    0.609460
     65          1           0       -6.101578    1.506500   -1.367428
     66          1           0       -4.556673    2.891637   -2.763569
     67          1           0       -6.175384    2.880152   -3.487750
     68          1           0       -4.888057    1.861337   -4.169174
     69          1           0       -7.134843   -0.587103   -2.308902
     70          1           0       -7.729206    0.858358   -3.162533
     71          1           0       -6.493408   -0.179303   -3.908474
     72          1           0       -1.758824   -0.119218   -1.445316
 ---------------------------------------------------------------------

 SCF Done:  E(RB3LYP) =  -1706.78092750     A.U. after   14 cycles

 Excitation energies and oscillator strengths:

 Excited state symmetry could not be determined.
 Excited State   1:      Triplet-?Sym    3.6641 eV  338.37 nm  f=0.0000  <S**2>=2.000
     131 ->135        -0.12923
     132 ->134        -0.12962
     132 ->135         0.35967
     132 ->137        -0.20371
     133 ->134         0.44139
     133 ->135         0.12952
     133 ->137         0.12113
     133 ->138        -0.18400
 This state for optimization and/or second-order correction.
 Total Energy, E(TD-HF/TD-DFT) =  -1706.64627271
 Copying the excited state density for this state as the 1-particle RhoCI density.

 Excited state symmetry could not be determined.
 Excited State   2:      Triplet-?Sym    4.5070 eV  275.09 nm  f=0.0000  <S**2>=2.000
     131 ->135        -0.12495
     132 ->134         0.27083
     133 ->134        -0.13669
     133 ->135         0.55939
     133 ->137        -0.20532

 Excited state symmetry could not be determined.
 Excited State   3:      Singlet-?Sym    5.1349 eV  241.46 nm  f=0.0187  <S**2>=0.000
     132 ->134        -0.36808
     132 ->135        -0.13408
     133 ->134        -0.18564
     133 ->135         0.52081

 Excited state symmetry could not be determined.
 Excited State   4:      Singlet-?Sym    5.3947 eV  229.83 nm  f=0.1177  <S**2>=0.000
     130 ->135        -0.10129
     131 ->134         0.18875
     131 ->136         0.15857
     132 ->135         0.13082
     133 ->134         0.55687
     133 ->135         0.11992
     133 ->137        -0.13315

 Alpha  occ. eigenvalues --  -19.20061 -19.20018 -19.19792 -19.19533 -19.19290
 Alpha  occ. eigenvalues --  -19.14518 -19.14154 -19.13530 -19.13436 -14.31955
 Alpha  occ. eigenvalues --  -10.35942 -10.31816 -10.31776 -10.31237 -10.26079
 Alpha  occ. eigenvalues --  -10.25091 -10.25037 -10.25023 -10.24032 -10.23293
 Alpha  occ. eigenvalues --  -10.20857 -10.20114 -10.19772 -10.19660 -10.19389
 Alpha  occ. eigenvalues --  -10.19108 -10.19084 -10.18845 -10.18730 -10.18647
 Alpha  occ. eigenvalues --  -10.18240 -10.17940 -10.17871 -10.17528 -10.16952
 Alpha  occ. eigenvalues --   -1.13792  -1.11191  -1.10693  -1.09805  -1.05196
 Alpha  occ. eigenvalues --   -1.02557  -1.02320  -1.01875  -1.01568  -0.89627
 Alpha  occ. eigenvalues --   -0.85930  -0.81381  -0.81089  -0.80363  -0.79505
 Alpha  occ. eigenvalues --   -0.78047  -0.75103  -0.74357  -0.73151  -0.71351
 Alpha  occ. eigenvalues --   -0.69128  -0.68476  -0.67604  -0.67016  -0.66163
 Alpha  occ. eigenvalues --   -0.63870  -0.62385  -0.61334  -0.59400  -0.58546
 Alpha  occ. eigenvalues --   -0.57077  -0.56779  -0.54957  -0.54508  -0.53893
 Alpha  occ. eigenvalues --   -0.52510  -0.51090  -0.50707  -0.50618  -0.49998
 Alpha  occ. eigenvalues --   -0.49236  -0.48758  -0.48349  -0.48014  -0.47447
 Alpha  occ. eigenvalues --   -0.46860  -0.45683  -0.45500  -0.45160  -0.45000
 Alpha  occ. eigenvalues --   -0.44477  -0.44118  -0.43833  -0.43729  -0.43207
 Alpha  occ. eigenvalues --   -0.42878  -0.42469  -0.42061  -0.41684  -0.41064
 Alpha  occ. eigenvalues --   -0.40510  -0.40315  -0.39890  -0.39771  -0.39122
 Alpha  occ. eigenvalues --   -0.39031  -0.38784  -0.38465  -0.38204  -0.37662
 Alpha  occ. eigenvalues --   -0.37079  -0.36808  -0.36621  -0.36371  -0.35952
 Alpha  occ. eigenvalues --   -0.35398  -0.35380  -0.35027  -0.34643  -0.34498
 Alpha  occ. eigenvalues --   -0.34302  -0.33761  -0.33694  -0.33542  -0.33314
 Alpha  occ. eigenvalues --   -0.32657  -0.32120  -0.31711  -0.30898  -0.29744
 Alpha  occ. eigenvalues --   -0.29517  -0.28570  -0.28316  -0.27478  -0.26796
 Alpha  occ. eigenvalues --   -0.24954  -0.24247  -0.23111
 Alpha virt. eigenvalues --   -0.01002  -0.00722   0.00402   0.01288   0.02460
 Alpha virt. eigenvalues --    0.04246   0.07249   0.07663   0.08632   0.09428
 Alpha virt. eigenvalues --    0.09566   0.10383   0.10900   0.11401   0.11879

 Mulliken charges:
               1
     1  C   -0.460043
     2  C   -0.255577
     3  C   -0.267240
     4  C   -0.063944
     5  O   -0.461960
     6  C    0.822699
     7  O   -0.500083
     8  O   -0.474026
     9  C    0.116867
    10  C   -0.458027
    11  C   -0.087557
    12  O   -0.464468
    13  C    0.615754
    14  O   -0.480227
    15  C   -0.067054
    16  N   -0.695086
    17  C   -0.358332
    18  C    0.163863
    19  C   -0.194446
    20  C   -0.173480
    21  C    0.323835
    22  O   -0.536934
    23  C    0.634251
    24  O   -0.462137
    25  C   -0.169801
    26  C   -0.440398
    27  C   -0.454112
    28  C    0.343771
    29  O   -0.540007
    30  C    0.638455
    31  O   -0.461656
    32  C   -0.167531
    33  C   -0.449662
    34  C   -0.461922
    35  C   -0.177050
    36  H    0.172585
    37  H    0.137006
    38  H    0.142675
    39  H    0.135369
    40  H    0.143323
    41  H    0.137188
    42  H    0.146181
    43  H    0.186590
    44  H    0.156877
    45  H    0.168144
    46  H    0.165015
    47  H    0.149989
    48  H    0.172116
    49  H    0.157750
    50  H    0.205014
    51  H    0.164420
    52  H    0.308079
    53  H    0.312403
    54  H    0.158986
    55  H    0.161946
    56  H    0.127716
    57  H    0.140635
    58  H    0.157620
    59  H    0.142261
    60  H    0.163344
    61  H    0.156859
    62  H    0.169569
    63  H    0.153425
    64  H    0.157184
    65  H    0.150715
    66  H    0.151441
    67  H    0.146626
    68  H    0.169620
    69  H    0.176124
    70  H    0.142620
    71  H    0.167918
    72  H    0.167934
 Sum of Mulliken charges =  -0.00000

 Dipole moment (field-independent basis, Debye):
    X=              0.3905    Y=              1.2158    Z=              3.6767  Tot=              3.8922
 Quadrupole moment (field-independent basis, Debye-Ang):
   XX=           -187.1265   YY=           -195.4624   ZZ=           -206.3151
   XY=             -5.7924   XZ=             -3.9555   YZ=            -15.1370

 Normal termination of Gaussian 16 at Sat Nov  5 11:37:38 2022.
