 Gaussian 16, Revision B.01,
 Gaussian 16:  ES64L-G16RevB.01 20-Dec-2017

 -----------------------------
 #p b3lyp/6-31g(d) opt SCF=XQC
 -----------------------------

 ------------------------------
 Gaussian input prepared by ASE
 ------------------------------
 Symbolic Z-matrix:
 Charge =  0 Multiplicity = 1

 SCF Done:  E(RB3LYP) =  -1410.62138756     A.U. after   15 cycles
 SCF Done:  E(RB3LYP) =  -1410.62931722     A.U. after   12 cycles
 SCF Done:  E(RB3LYP) =  -1410.63001093     A.U. after   11 cycles
 SCF Done:  E(RB3LYP) =  -1410.63014413     A.U. after   11 cycles
 SCF Done:  E(RB3LYP) =  -1410.63020341     A.U. after   10 cycles
 SCF Done:  E(RB3LYP) =  -1410.63022189     A.U. after   10 cycles
 SCF Done:  E(RB3LYP) =  -1410.63023566     A.U. after    9 cycles
 SCF Done:  E(RB3LYP) =  -1410.63024289     A.U. after   10 cycles
 SCF Done:  E(RB3LYP) =  -1410.63024620     A.U. after    8 cycles
 SCF Done:  E(RB3LYP) =  -1410.63024742     A.U. after    8 cycles
 SCF Done:  E(RB3LYP) =  -1410.63027943     A.U. after    9 cycles
 SCF Done:  E(RB3LYP) =  -1410.63028700     A.U. after   10 cycles
 SCF Done:  E(RB3LYP) =  -1410.63028957     A.U. after    9 cycles
 SCF Done:  E(RB3LYP) =  -1410.63029102     A.U. after    8 cycles
 SCF Done:  E(RB3LYP) =  -1410.63029193     A.U. after    9 cycles
 SCF Done:  E(RB3LYP) =  -1410.63029178     A.U. after    9 cycles
 SCF Done:  E(RB3LYP) =  -1410.63029228     A.U. after    8 cycles
 SCF Done:  E(RB3LYP) =  -1410.63029234     A.U. after    7 cycles
 SCF Done:  E(RB3LYP) =  -1410.63029236     A.U. after    7 cycles
 SCF Done:  E(RB3LYP) =  -1410.63029237     A.U. after    6 cycles
 Optimization completed.
    -- Stationary point found.

                         Standard orientation:
 ---------------------------------------------------------------------
 Center     Atomic      Atomic             Coordinates (Angstroms)
 Number     Number       Type             X           Y           Z
 ---------------------------------------------------------------------
      1          6           0       -6.758432    1.895815    0.040339
      2          6           0       -6.092891    0.863603   -0.876310
      3          6           0       -5.677906   -0.456383   -0.187040
      4          6           0       -5.093326   -1.433492   -1.213257
      5          8           0       -6.811405   -1.049104    0.468885
      6          6           0       -4.695636   -0.234294    0.985339
      7          7           0       -3.487242    0.493648    0.628154
      8          6           0       -2.270647   -0.138911    0.502976
      9          8           0       -2.138005   -1.353387    0.575678
     10          7           0       -1.215493    0.746372    0.273337
     11          6           0        0.138636    0.448001    0.072009
     12          6           0        0.656958   -0.858052    0.065792
     13          6           0        2.019916   -1.055183   -0.145746
     14          6           0        2.870070    0.032659   -0.343763
     15         16           0        4.608240   -0.235271   -0.660703
     16          8           0        4.824034   -1.686223   -0.773849
     17          8           0        5.040571    0.663292   -1.737419
     18          7           0        5.315218    0.381190    0.769761
     19          6           0        5.138771   -0.495203    1.933165
     20          6           0        6.698900    0.845536    0.592993
     21          6           0        2.363422    1.335562   -0.347371
     22          6           0        1.008094    1.537381   -0.138211
     23          1           0       -7.141716    2.741739   -0.540614
     24          1           0       -6.062209    2.302715    0.784560
     25          1           0       -7.593392    1.444342    0.584496
     26          1           0       -6.788258    0.606380   -1.688480
     27          1           0       -5.212222    1.298744   -1.367310
     28          1           0       -4.179190   -1.039121   -1.667740
     29          1           0       -4.851048   -2.387762   -0.736623
     30          1           0       -5.814124   -1.617537   -2.021395
     31          1           0       -7.411088   -1.373464   -0.221621
     32          1           0       -4.392998   -1.206369    1.378399
     33          1           0       -5.216674    0.302020    1.784777
     34          1           0       -3.524852    1.502325    0.656294
     35          1           0       -1.442165    1.729809    0.213475
     36          1           0       -0.008231   -1.695096    0.220558
     37          1           0        2.428062   -2.060160   -0.167225
     38          1           0        4.083873   -0.759124    2.043398
     39          1           0        5.731621   -1.417868    1.863664
     40          1           0        5.443923    0.063724    2.823323
     41          1           0        7.416282    0.017120    0.492857
     42          1           0        6.757391    1.480459   -0.290836
     43          1           0        6.964478    1.435510    1.476047
     44          1           0        3.024991    2.177987   -0.518555
     45          1           0        0.611195    2.550645   -0.140832
 ---------------------------------------------------------------------

 The electronic state is 1-A.
 Alpha  occ. eigenvalues --  -89.09850 -19.14888 -19.13192 -19.13144 -19.12221
 Alpha  occ. eigenvalues --  -14.39076 -14.37361 -14.36153 -10.33071 -10.25684
 Alpha  occ. eigenvalues --  -10.24770 -10.22335 -10.21788 -10.21783 -10.21433
 Alpha  occ. eigenvalues --  -10.21245 -10.20844 -10.20757 -10.19506 -10.19158
 Alpha  occ. eigenvalues --  -10.18467 -10.17760  -8.12434  -6.08907  -6.08849
 Alpha  occ. eigenvalues --   -6.08747  -1.09730  -1.06016  -1.02370  -0.98782
 Alpha  occ. eigenvalues --   -0.95999  -0.93060  -0.92584  -0.86508  -0.79935
 Alpha  occ. eigenvalues --   -0.77399  -0.76326  -0.74147  -0.71982  -0.71141
 Alpha  occ. eigenvalues --   -0.69226  -0.65089  -0.63750  -0.63401  -0.60734
 Alpha  occ. eigenvalues --   -0.58317  -0.57451  -0.56919  -0.54597  -0.52648
 Alpha  occ. eigenvalues --   -0.49871  -0.49159  -0.47858  -0.47409  -0.46610
 Alpha  occ. eigenvalues --   -0.46051  -0.46010  -0.45576  -0.45040  -0.44300
 Alpha  occ. eigenvalues --   -0.43892  -0.43012  -0.42670  -0.41918  -0.41268
 Alpha  occ. eigenvalues --   -0.41149  -0.40613  -0.40099  -0.39059  -0.38652
 Alpha  occ. eigenvalues --   -0.37943  -0.37413  -0.37155  -0.36193  -0.34887
 Alpha  occ. eigenvalues --   -0.34733  -0.33373  -0.32807  -0.32209  -0.30665
 Alpha  occ. eigenvalues --   -0.29907  -0.28979  -0.27515  -0.27309  -0.26702
 Alpha  occ. eigenvalues --   -0.26353  -0.24859  -0.22834
 Alpha virt. eigenvalues --   -0.02996  -0.01473   0.03115   0.05054   0.06248
 Alpha virt. eigenvalues --    0.06798   0.08125   0.08669   0.09990   0.10666
 Alpha virt. eigenvalues --    0.11255   0.12182   0.12320   0.12924   0.13190

 Mulliken charges:
               1
     1  C   -0.450710
     2  C   -0.270597
     3  C    0.315632
     4  C   -0.466432
     5  O   -0.642595
     6  C   -0.150714
     7  N   -0.649671
     8  C    0.826364
     9  O   -0.527471
    10  N   -0.763631
    11  C    0.374908
    12  C   -0.158311
    13  C   -0.162708
    14  C   -0.162103
    15  S    1.240204
    16  O   -0.541305
    17  O   -0.554762
    18  N   -0.528959
    19  C   -0.318291
    20  C   -0.321191
    21  C   -0.129114
    22  C   -0.201984
    23  H    0.145748
    24  H    0.125626
    25  H    0.167506
    26  H    0.126879
    27  H    0.129518
    28  H    0.158471
    29  H    0.169757
    30  H    0.127859
    31  H    0.389303
    32  H    0.196718
    33  H    0.160566
    34  H    0.319813
    35  H    0.322984
    36  H    0.199126
    37  H    0.183377
    38  H    0.173190
    39  H    0.168080
    40  H    0.161141
    41  H    0.156242
    42  H    0.202802
    43  H    0.159102
    44  H    0.171536
    45  H    0.128098
 Sum of Mulliken charges =  -0.00000

 Dipole moment (field-independent basis, Debye):
    X=             -4.5655    Y=              4.7047    Z=              2.3745  Tot=              6.9726
 Quadrupole moment (field-independent basis, Debye-Ang):
   XX=           -131.4693   YY=           -135.3046   ZZ=           -142.8931
   XY=             -0.6701   XZ=             28.9492   YZ=              2.4134

 Normal termination of Gaussian 16 at Fri Nov  4 18:54:38 2022.
