 Gaussian 16, Revision B.01,
 Gaussian 16:  ES64L-G16RevB.01 20-Dec-2017

 -------------------------------------------------------------------
 #p b3lyp/6-31g(d) 6D 10F nosymm GFInput td=(50-50,nstate=2) SCF=XQC
 -------------------------------------------------------------------

 ------------------------------
 Gaussian input prepared by ASE
 ------------------------------
 Symbolic Z-matrix:
 Charge =  0 Multiplicity = 1

                          Input orientation:
 ---------------------------------------------------------------------
 Center     Atomic      Atomic             Coordinates (Angstroms)
 Number     Number       Type             X           Y           Z
 ---------------------------------------------------------------------
      1          6           0       -5.321151    2.567653   -2.144164
      2          6           0       -4.234842    1.854042   -2.956163
      3          6           0       -4.146038    0.326662   -2.735046
      4          6           0       -3.078580   -0.283902   -3.650110
      5          8           0       -5.422089   -0.284563   -2.988961
      6          6           0       -3.887127   -0.048506   -1.258270
      7          7           0       -2.701375    0.566071   -0.680358
      8          6           0       -1.550784   -0.154467   -0.450424
      9          8           0       -1.406930   -1.316211   -0.807479
     10          7           0       -0.569487    0.581249    0.217100
     11          6           0        0.720222    0.174380    0.583616
     12          6           0        1.242450   -1.101404    0.311360
     13          6           0        2.539465   -1.412945    0.713804
     14          6           0        3.316540   -0.471569    1.388591
     15         16           0        4.994864   -0.866785    1.858172
     16          8           0        5.315521   -2.190275    1.301233
     17          8           0        5.855148    0.286238    1.568182
     18          7           0        4.866164   -0.932375    3.562638
     19          6           0        4.183597   -2.135829    4.051014
     20          6           0        6.128584   -0.652570    4.262242
     21          6           0        2.809469    0.803137    1.657407
     22          6           0        1.519998    1.118689    1.258551
     23          1           0       -5.410814    3.615358   -2.451207
     24          1           0       -5.107985    2.562519   -1.067737
     25          1           0       -6.290541    2.081443   -2.289000
     26          1           0       -4.421596    2.021320   -4.026893
     27          1           0       -3.251287    2.298825   -2.754188
     28          1           0       -2.081923    0.104980   -3.419514
     29          1           0       -3.053697   -1.371364   -3.534709
     30          1           0       -3.293289   -0.047040   -4.700970
     31          1           0       -5.582576   -0.238052   -3.944842
     32          1           0       -3.767555   -1.130933   -1.187069
     33          1           0       -4.763591    0.230721   -0.664926
     34          1           0       -2.801806    1.487476   -0.279656
     35          1           0       -0.788885    1.540549    0.448876
     36          1           0        0.633770   -1.824944   -0.211201
     37          1           0        2.957650   -2.389940    0.495574
     38          1           0        3.228489   -2.257465    3.533724
     39          1           0        4.781316   -3.047871    3.914920
     40          1           0        3.977281   -1.995137    5.116630
     41          1           0        6.844415   -1.485884    4.198126
     42          1           0        6.583268    0.244879    3.843256
     43          1           0        5.889819   -0.474738    5.315690
     44          1           0        3.422857    1.538180    2.167431
     45          1           0        1.123060    2.110397    1.466388
 ---------------------------------------------------------------------

 SCF Done:  E(RB3LYP) =  -1410.63028975     A.U. after   15 cycles

 Excitation energies and oscillator strengths:

 Excited state symmetry could not be determined.
 Excited State   1:      Triplet-?Sym    3.4954 eV  354.70 nm  f=0.0000  <S**2>=2.000
      85 -> 90        -0.25585
      86 -> 90        -0.13093
      87 -> 89         0.12392
      88 -> 89         0.60930
 This state for optimization and/or second-order correction.
 Total Energy, E(TD-HF/TD-DFT) =  -1410.50183447
 Copying the excited state density for this state as the 1-particle RhoCI density.

 Excited state symmetry could not be determined.
 Excited State   2:      Triplet-?Sym    4.2849 eV  289.35 nm  f=0.0000  <S**2>=2.000
      85 -> 89        -0.14243
      87 -> 90         0.13725
      88 -> 90         0.66036

 Excited state symmetry could not be determined.
 Excited State   3:      Singlet-?Sym    4.9309 eV  251.44 nm  f=0.4165  <S**2>=0.000
      87 -> 89        -0.25834
      88 -> 89         0.63870

 Excited state symmetry could not be determined.
 Excited State   4:      Singlet-?Sym    4.9595 eV  250.00 nm  f=0.0148  <S**2>=0.000
      85 -> 89         0.30221
      86 -> 89         0.16681
      88 -> 89         0.12453
      88 -> 90         0.59765

 Alpha  occ. eigenvalues --  -89.09850 -19.14888 -19.13191 -19.13144 -19.12221
 Alpha  occ. eigenvalues --  -14.39076 -14.37361 -14.36153 -10.33071 -10.25684
 Alpha  occ. eigenvalues --  -10.24770 -10.22335 -10.21788 -10.21783 -10.21433
 Alpha  occ. eigenvalues --  -10.21245 -10.20844 -10.20757 -10.19506 -10.19158
 Alpha  occ. eigenvalues --  -10.18467 -10.17760  -8.12434  -6.08907  -6.08849
 Alpha  occ. eigenvalues --   -6.08747  -1.09729  -1.06016  -1.02370  -0.98782
 Alpha  occ. eigenvalues --   -0.95999  -0.93060  -0.92584  -0.86508  -0.79935
 Alpha  occ. eigenvalues --   -0.77399  -0.76326  -0.74147  -0.71982  -0.71141
 Alpha  occ. eigenvalues --   -0.69227  -0.65089  -0.63750  -0.63401  -0.60734
 Alpha  occ. eigenvalues --   -0.58317  -0.57451  -0.56919  -0.54597  -0.52648
 Alpha  occ. eigenvalues --   -0.49871  -0.49159  -0.47858  -0.47409  -0.46610
 Alpha  occ. eigenvalues --   -0.46051  -0.46010  -0.45576  -0.45040  -0.44300
 Alpha  occ. eigenvalues --   -0.43892  -0.43012  -0.42670  -0.41918  -0.41268
 Alpha  occ. eigenvalues --   -0.41149  -0.40613  -0.40099  -0.39059  -0.38652
 Alpha  occ. eigenvalues --   -0.37943  -0.37413  -0.37155  -0.36193  -0.34887
 Alpha  occ. eigenvalues --   -0.34733  -0.33373  -0.32807  -0.32209  -0.30665
 Alpha  occ. eigenvalues --   -0.29907  -0.28979  -0.27515  -0.27309  -0.26702
 Alpha  occ. eigenvalues --   -0.26353  -0.24859  -0.22834
 Alpha virt. eigenvalues --   -0.02996  -0.01473   0.03115   0.05054   0.06248
 Alpha virt. eigenvalues --    0.06798   0.08124   0.08669   0.09990   0.10666
 Alpha virt. eigenvalues --    0.11255   0.12183   0.12320   0.12924   0.13190

 Mulliken charges:
               1
     1  C   -0.450695
     2  C   -0.270609
     3  C    0.315652
     4  C   -0.466429
     5  O   -0.642602
     6  C   -0.150722
     7  N   -0.649677
     8  C    0.826343
     9  O   -0.527458
    10  N   -0.763615
    11  C    0.374887
    12  C   -0.158286
    13  C   -0.162706
    14  C   -0.162114
    15  S    1.240229
    16  O   -0.541302
    17  O   -0.554773
    18  N   -0.528976
    19  C   -0.318287
    20  C   -0.321186
    21  C   -0.129095
    22  C   -0.201998
    23  H    0.145745
    24  H    0.125622
    25  H    0.167503
    26  H    0.126877
    27  H    0.129517
    28  H    0.158470
    29  H    0.169759
    30  H    0.127859
    31  H    0.389304
    32  H    0.196716
    33  H    0.160567
    34  H    0.319815
    35  H    0.322983
    36  H    0.199121
    37  H    0.183377
    38  H    0.173190
    39  H    0.168080
    40  H    0.161143
    41  H    0.156242
    42  H    0.202801
    43  H    0.159101
    44  H    0.171530
    45  H    0.128099
 Sum of Mulliken charges =  -0.00000

 Dipole moment (field-independent basis, Debye):
    X=             -5.3861    Y=              4.1465    Z=              1.5536  Tot=              6.9726
 Quadrupole moment (field-independent basis, Debye-Ang):
   XX=           -166.0704   YY=           -136.0024   ZZ=           -115.3847
   XY=             -6.7158   XZ=             16.2133   YZ=             -4.5620

 Normal termination of Gaussian 16 at Sat Nov  5 11:34:15 2022.
