 Gaussian 16, Revision B.01,
 Gaussian 16:  ES64L-G16RevB.01 20-Dec-2017

 -----------------------------
 #p b3lyp/6-31g(d) opt SCF=XQC
 -----------------------------

 ------------------------------
 Gaussian input prepared by ASE
 ------------------------------
 Symbolic Z-matrix:
 Charge =  0 Multiplicity = 1

 SCF Done:  E(RB3LYP) =  -1429.05042739     A.U. after   16 cycles
 SCF Done:  E(RB3LYP) =  -1429.05268650     A.U. after   15 cycles
 SCF Done:  E(RB3LYP) =  -1429.05726058     A.U. after   12 cycles
 SCF Done:  E(RB3LYP) =  -1429.05831242     A.U. after   13 cycles
 SCF Done:  E(RB3LYP) =  -1429.05789205     A.U. after   14 cycles
 SCF Done:  E(RB3LYP) =  -1429.05937266     A.U. after   13 cycles
 SCF Done:  E(RB3LYP) =  -1429.05958839     A.U. after   13 cycles
 SCF Done:  E(RB3LYP) =  -1429.06032904     A.U. after   12 cycles
 SCF Done:  E(RB3LYP) =  -1429.06041166     A.U. after   11 cycles
 SCF Done:  E(RB3LYP) =  -1429.06043926     A.U. after   10 cycles
 SCF Done:  E(RB3LYP) =  -1429.06050152     A.U. after    9 cycles
 SCF Done:  E(RB3LYP) =  -1429.06050234     A.U. after    8 cycles
 SCF Done:  E(RB3LYP) =  -1429.06050289     A.U. after    8 cycles
 SCF Done:  E(RB3LYP) =  -1429.06050317     A.U. after    8 cycles
 SCF Done:  E(RB3LYP) =  -1429.06050337     A.U. after    7 cycles
 SCF Done:  E(RB3LYP) =  -1429.06050347     A.U. after    7 cycles
 SCF Done:  E(RB3LYP) =  -1429.06050360     A.U. after    8 cycles
 SCF Done:  E(RB3LYP) =  -1429.06050372     A.U. after    8 cycles
 SCF Done:  E(RB3LYP) =  -1429.06050381     A.U. after    7 cycles
 SCF Done:  E(RB3LYP) =  -1429.06050388     A.U. after    7 cycles
 Optimization completed.
    -- Stationary point found.

                         Standard orientation:
 ---------------------------------------------------------------------
 Center     Atomic      Atomic             Coordinates (Angstroms)
 Number     Number       Type             X           Y           Z
 ---------------------------------------------------------------------
      1          6           0       -0.266628    1.651386    2.885594
      2          6           0       -0.393433    1.935915    1.419821
      3          7           0        0.268525    2.942853    0.894390
      4          8           0       -0.053218    2.927107   -0.471744
      5          6           0       -0.906664    1.910401   -0.723044
      6          6           0       -1.304135    1.728449   -2.149434
      7          6           0       -1.164848    1.232646    0.438196
      8          6           0       -2.045023    0.030919    0.667941
      9          6           0       -3.564477    0.356904    0.668907
     10          6           0       -4.232044   -0.903013    0.100000
     11          6           0       -3.240020   -1.353599   -0.976791
     12          7           0       -1.940574   -1.009132   -0.388060
     13          6           0       -0.798254   -1.573596   -0.888477
     14          8           0       -0.805105   -2.233096   -1.923999
     15          6           0        0.454364   -1.390911   -0.086976
     16         16           0        0.687254   -2.178657    1.460060
     17          6           0        2.315073   -1.582321    1.597254
     18          6           0        2.653782   -0.829281    0.510123
     19          6           0        1.593988   -0.727986   -0.455935
     20          8           0        1.724380    0.000274   -1.603252
     21          6           0        2.808456    0.942675   -1.529409
     22          6           0        4.061386    0.267678   -0.993624
     23          8           0        3.857448   -0.206633    0.344806
     24          1           0        0.130547    0.644158    3.054999
     25          1           0        0.411397    2.375136    3.344683
     26          1           0       -1.237430    1.717524    3.390713
     27          1           0       -0.658370    0.989107   -2.637064
     28          1           0       -1.211347    2.676848   -2.686489
     29          1           0       -2.336902    1.379108   -2.232939
     30          1           0       -1.771454   -0.410389    1.633980
     31          1           0       -3.752317    1.213870    0.012283
     32          1           0       -3.914114    0.628513    1.669422
     33          1           0       -4.320151   -1.674763    0.873981
     34          1           0       -5.232110   -0.712070   -0.300811
     35          1           0       -3.398225   -0.818554   -1.924439
     36          1           0       -3.269728   -2.422601   -1.200813
     37          1           0        2.933025   -1.829300    2.448216
     38          1           0        2.516702    1.784916   -0.889875
     39          1           0        2.965204    1.299749   -2.549989
     40          1           0        4.892983    0.974580   -0.939451
     41          1           0        4.343371   -0.572171   -1.643044
 ---------------------------------------------------------------------

 The electronic state is 1-A.
 Alpha  occ. eigenvalues --  -88.91268 -19.22622 -19.18774 -19.18568 -19.11049
 Alpha  occ. eigenvalues --  -14.36848 -14.36328 -10.29022 -10.25577 -10.25489
 Alpha  occ. eigenvalues --  -10.25313 -10.25259 -10.25227 -10.24647 -10.22560
 Alpha  occ. eigenvalues --  -10.22287 -10.21574 -10.21179 -10.20293 -10.19979
 Alpha  occ. eigenvalues --  -10.19847 -10.19387 -10.19342  -7.97255  -5.93699
 Alpha  occ. eigenvalues --   -5.93338  -5.92901  -1.12990  -1.09004  -1.05617
 Alpha  occ. eigenvalues --   -1.03033  -0.94408  -0.88102  -0.87110  -0.81625
 Alpha  occ. eigenvalues --   -0.79968  -0.77957  -0.75440  -0.74307  -0.72275
 Alpha  occ. eigenvalues --   -0.71087  -0.70786  -0.67097  -0.64462  -0.61524
 Alpha  occ. eigenvalues --   -0.59707  -0.59128  -0.57011  -0.55242  -0.54517
 Alpha  occ. eigenvalues --   -0.53343  -0.51355  -0.51058  -0.49414  -0.47948
 Alpha  occ. eigenvalues --   -0.47407  -0.45679  -0.44468  -0.44312  -0.44167
 Alpha  occ. eigenvalues --   -0.43489  -0.43332  -0.42766  -0.42351  -0.41872
 Alpha  occ. eigenvalues --   -0.41123  -0.40719  -0.40613  -0.40109  -0.39597
 Alpha  occ. eigenvalues --   -0.38827  -0.37924  -0.37324  -0.37096  -0.36527
 Alpha  occ. eigenvalues --   -0.36021  -0.34834  -0.34482  -0.33948  -0.32357
 Alpha  occ. eigenvalues --   -0.30822  -0.29767  -0.28030  -0.25815  -0.24746
 Alpha  occ. eigenvalues --   -0.23397  -0.21827  -0.21489
 Alpha virt. eigenvalues --   -0.02070  -0.00526   0.01327   0.02620   0.04948
 Alpha virt. eigenvalues --    0.06588   0.07379   0.07927   0.08494   0.10998
 Alpha virt. eigenvalues --    0.11261   0.11523   0.12541   0.12851   0.12907

 Mulliken charges:
               1
     1  C   -0.535859
     2  C    0.307341
     3  N   -0.243117
     4  O   -0.381204
     5  C    0.376864
     6  C   -0.544281
     7  C   -0.010520
     8  C   -0.021113
     9  C   -0.301980
    10  C   -0.296840
    11  C   -0.112468
    12  N   -0.450407
    13  C    0.546296
    14  O   -0.498481
    15  C   -0.312694
    16  S    0.259847
    17  C   -0.420169
    18  C    0.381962
    19  C    0.389581
    20  O   -0.520194
    21  C   -0.080296
    22  C   -0.063248
    23  O   -0.515425
    24  H    0.186898
    25  H    0.183250
    26  H    0.161925
    27  H    0.212087
    28  H    0.177289
    29  H    0.168816
    30  H    0.156642
    31  H    0.153513
    32  H    0.154107
    33  H    0.152867
    34  H    0.150981
    35  H    0.151543
    36  H    0.176412
    37  H    0.179258
    38  H    0.187831
    39  H    0.163680
    40  H    0.165264
    41  H    0.164044
 Sum of Mulliken charges =  -0.00000

 Dipole moment (field-independent basis, Debye):
    X=             -1.5458    Y=              1.0632    Z=              1.1220  Tot=              2.1861
 Quadrupole moment (field-independent basis, Debye-Ang):
   XX=           -118.9258   YY=           -155.8975   ZZ=           -135.3017
   XY=              0.4096   XZ=             -6.4427   YZ=            -11.6509

 Normal termination of Gaussian 16 at Fri Nov  4 19:07:40 2022.
