 Gaussian 16, Revision B.01,
 Gaussian 16:  ES64L-G16RevB.01 20-Dec-2017

 -------------------------------------------------------------------
 #p b3lyp/6-31g(d) 6D 10F nosymm GFInput td=(50-50,nstate=2) SCF=XQC
 -------------------------------------------------------------------

 ------------------------------
 Gaussian input prepared by ASE
 ------------------------------
 Symbolic Z-matrix:
 Charge =  0 Multiplicity = 1

                          Input orientation:
 ---------------------------------------------------------------------
 Center     Atomic      Atomic             Coordinates (Angstroms)
 Number     Number       Type             X           Y           Z
 ---------------------------------------------------------------------
      1          6           0       -1.881029   -0.761576    2.549793
      2          6           0       -1.459101    0.379245    1.674562
      3          7           0       -1.156047    1.537070    2.218430
      4          8           0       -0.797396    2.369077    1.146413
      5          6           0       -0.902853    1.683024   -0.012648
      6          6           0       -0.503181    2.419919   -1.246718
      7          6           0       -1.316936    0.404509    0.248936
      8          6           0       -1.573667   -0.731532   -0.707692
      9          6           0       -2.904538   -0.597249   -1.498739
     10          6           0       -2.617105   -1.254060   -2.856191
     11          6           0       -1.168095   -0.840156   -3.131277
     12          7           0       -0.565888   -0.851092   -1.792977
     13          6           0        0.796498   -0.879682   -1.662527
     14          8           0        1.539952   -0.728414   -2.627767
     15          6           0        1.339847   -1.153720   -0.293402
     16         16           0        1.187556   -2.724673    0.466215
     17          6           0        2.133917   -2.230106    1.838816
     18          6           0        2.544845   -0.934759    1.708955
     19          6           0        2.098982   -0.323312    0.486650
     20          8           0        2.384808    0.975430    0.177986
     21          6           0        2.781502    1.734762    1.333339
     22          6           0        3.821887    0.970883    2.137458
     23          8           0        3.281934   -0.259893    2.639055
     24          1           0       -1.200011   -1.612760    2.437309
     25          1           0       -1.874575   -0.445990    3.596053
     26          1           0       -2.891076   -1.105712    2.298094
     27          1           0        0.543302    2.211128   -1.497117
     28          1           0       -0.613428    3.496903   -1.090360
     29          1           0       -1.117994    2.126170   -2.101900
     30          1           0       -1.591116   -1.663901   -0.130451
     31          1           0       -3.140637    0.464192   -1.634491
     32          1           0       -3.739195   -1.051304   -0.956311
     33          1           0       -2.685926   -2.345635   -2.777851
     34          1           0       -3.305449   -0.928584   -3.641995
     35          1           0       -1.110180    0.161291   -3.581929
     36          1           0       -0.619381   -1.521107   -3.786298
     37          1           0        2.350106   -2.913867    2.646736
     38          1           0        1.898816    1.952925    1.947151
     39          1           0        3.196231    2.669816    0.949503
     40          1           0        4.134370    1.542638    3.014754
     41          1           0        4.700251    0.760101    1.512432
 ---------------------------------------------------------------------

 SCF Done:  E(RB3LYP) =  -1429.06049377     A.U. after   16 cycles

 Excitation energies and oscillator strengths:

 Excited state symmetry could not be determined.
 Excited State   1:      Triplet-?Sym    3.1228 eV  397.03 nm  f=0.0000  <S**2>=2.000
      88 -> 89         0.65975
      88 -> 91         0.16094
 This state for optimization and/or second-order correction.
 Total Energy, E(TD-HF/TD-DFT) =  -1428.94573186
 Copying the excited state density for this state as the 1-particle RhoCI density.

 Excited state symmetry could not be determined.
 Excited State   2:      Triplet-?Sym    3.7279 eV  332.58 nm  f=0.0000  <S**2>=2.000
      87 -> 89         0.67390
      87 -> 91         0.14681

 Excited state symmetry could not be determined.
 Excited State   3:      Singlet-?Sym    4.5703 eV  271.28 nm  f=0.0424  <S**2>=0.000
      84 -> 89         0.15774
      85 -> 89         0.16170
      86 -> 89        -0.10399
      88 -> 89         0.55604
      88 -> 90        -0.12532
      88 -> 91        -0.27170

 Excited state symmetry could not be determined.
 Excited State   4:      Singlet-?Sym    4.7960 eV  258.52 nm  f=0.0591  <S**2>=0.000
      87 -> 89         0.66069
      87 -> 90        -0.10183
      87 -> 91        -0.18432

 Alpha  occ. eigenvalues --  -88.91268 -19.22622 -19.18774 -19.18568 -19.11049
 Alpha  occ. eigenvalues --  -14.36848 -14.36328 -10.29021 -10.25577 -10.25488
 Alpha  occ. eigenvalues --  -10.25313 -10.25259 -10.25227 -10.24647 -10.22560
 Alpha  occ. eigenvalues --  -10.22287 -10.21574 -10.21179 -10.20293 -10.19979
 Alpha  occ. eigenvalues --  -10.19847 -10.19388 -10.19342  -7.97255  -5.93699
 Alpha  occ. eigenvalues --   -5.93337  -5.92901  -1.12990  -1.09004  -1.05617
 Alpha  occ. eigenvalues --   -1.03033  -0.94408  -0.88102  -0.87110  -0.81625
 Alpha  occ. eigenvalues --   -0.79968  -0.77957  -0.75440  -0.74307  -0.72275
 Alpha  occ. eigenvalues --   -0.71087  -0.70786  -0.67096  -0.64462  -0.61524
 Alpha  occ. eigenvalues --   -0.59707  -0.59128  -0.57012  -0.55242  -0.54516
 Alpha  occ. eigenvalues --   -0.53343  -0.51355  -0.51058  -0.49414  -0.47948
 Alpha  occ. eigenvalues --   -0.47407  -0.45679  -0.44468  -0.44312  -0.44167
 Alpha  occ. eigenvalues --   -0.43489  -0.43332  -0.42766  -0.42350  -0.41872
 Alpha  occ. eigenvalues --   -0.41123  -0.40719  -0.40613  -0.40109  -0.39597
 Alpha  occ. eigenvalues --   -0.38827  -0.37924  -0.37324  -0.37096  -0.36527
 Alpha  occ. eigenvalues --   -0.36021  -0.34834  -0.34482  -0.33948  -0.32357
 Alpha  occ. eigenvalues --   -0.30822  -0.29767  -0.28031  -0.25815  -0.24746
 Alpha  occ. eigenvalues --   -0.23397  -0.21827  -0.21489
 Alpha virt. eigenvalues --   -0.02070  -0.00526   0.01327   0.02621   0.04948
 Alpha virt. eigenvalues --    0.06588   0.07380   0.07927   0.08494   0.10998
 Alpha virt. eigenvalues --    0.11261   0.11523   0.12541   0.12851   0.12907

 Mulliken charges:
               1
     1  C   -0.535855
     2  C    0.307323
     3  N   -0.243107
     4  O   -0.381204
     5  C    0.376846
     6  C   -0.544281
     7  C   -0.010519
     8  C   -0.021085
     9  C   -0.301985
    10  C   -0.296833
    11  C   -0.112480
    12  N   -0.450415
    13  C    0.546312
    14  O   -0.498477
    15  C   -0.312697
    16  S    0.259845
    17  C   -0.420176
    18  C    0.381977
    19  C    0.389602
    20  O   -0.520213
    21  C   -0.080301
    22  C   -0.063256
    23  O   -0.515429
    24  H    0.186900
    25  H    0.183249
    26  H    0.161926
    27  H    0.212084
    28  H    0.177291
    29  H    0.168819
    30  H    0.156637
    31  H    0.153512
    32  H    0.154106
    33  H    0.152866
    34  H    0.150981
    35  H    0.151544
    36  H    0.176412
    37  H    0.179257
    38  H    0.187833
    39  H    0.163681
    40  H    0.165266
    41  H    0.164046
 Sum of Mulliken charges =  -0.00000

 Dipole moment (field-independent basis, Debye):
    X=             -2.1726    Y=             -0.0141    Z=              0.2437  Tot=              2.1862
 Quadrupole moment (field-independent basis, Debye-Ang):
   XX=           -131.1881   YY=           -135.3039   ZZ=           -145.0075
   XY=             12.6654   XZ=             16.2185   YZ=             -6.3925

 Normal termination of Gaussian 16 at Sat Nov  5 11:38:55 2022.
