 Gaussian 16, Revision B.01,
 Gaussian 16:  ES64L-G16RevB.01 20-Dec-2017

 -----------------------------
 #p b3lyp/6-31g(d) opt SCF=XQC
 -----------------------------

 ------------------------------
 Gaussian input prepared by ASE
 ------------------------------
 Symbolic Z-matrix:
 Charge =  0 Multiplicity = 1

 SCF Done:  E(RB3LYP) =  -1095.97918332     A.U. after   14 cycles
 SCF Done:  E(RB3LYP) =  -1095.98608087     A.U. after   13 cycles
 SCF Done:  E(RB3LYP) =  -1095.98666295     A.U. after   12 cycles
 SCF Done:  E(RB3LYP) =  -1095.98683734     A.U. after   12 cycles
 SCF Done:  E(RB3LYP) =  -1095.98705012     A.U. after   11 cycles
 SCF Done:  E(RB3LYP) =  -1095.98715081     A.U. after   11 cycles
 SCF Done:  E(RB3LYP) =  -1095.98720774     A.U. after   12 cycles
 SCF Done:  E(RB3LYP) =  -1095.98723053     A.U. after   10 cycles
 SCF Done:  E(RB3LYP) =  -1095.98724039     A.U. after   10 cycles
 SCF Done:  E(RB3LYP) =  -1095.98724686     A.U. after   10 cycles
 SCF Done:  E(RB3LYP) =  -1095.98724897     A.U. after    8 cycles
 SCF Done:  E(RB3LYP) =  -1095.98725041     A.U. after    8 cycles
 SCF Done:  E(RB3LYP) =  -1095.98725138     A.U. after    8 cycles
 SCF Done:  E(RB3LYP) =  -1095.98725215     A.U. after    8 cycles
 SCF Done:  E(RB3LYP) =  -1095.98725262     A.U. after    8 cycles
 SCF Done:  E(RB3LYP) =  -1095.98725291     A.U. after    8 cycles
 SCF Done:  E(RB3LYP) =  -1095.98725298     A.U. after    7 cycles
 Optimization completed.
    -- Stationary point found.

                         Standard orientation:
 ---------------------------------------------------------------------
 Center     Atomic      Atomic             Coordinates (Angstroms)
 Number     Number       Type             X           Y           Z
 ---------------------------------------------------------------------
      1          6           0        5.831613   -1.255250   -1.281440
      2          6           0        4.766111   -2.114067   -0.574176
      3          6           0        5.388072   -2.931039    0.574242
      4          6           0        3.586208   -1.276450   -0.099867
      5          6           0        2.299200   -1.500141   -0.601689
      6          6           0        1.207051   -0.743464   -0.174245
      7          6           0        1.365069    0.271387    0.778744
      8          6           0        0.209732    1.132272    1.268798
      9          6           0       -1.157680    0.419139    1.288636
     10          7           0       -1.729601    0.712714   -0.031188
     11          6           0       -2.910695    0.225456   -0.510489
     12          8           0       -3.391008    0.554430   -1.585909
     13          8           0       -3.444325   -0.657673    0.373437
     14          6           0       -4.710061   -1.346621    0.080420
     15          6           0       -4.905202   -2.223894    1.320125
     16          6           0       -4.560661   -2.209879   -1.177151
     17          6           0       -5.846963   -0.326689   -0.046804
     18          6           0       -1.007608    1.763575   -0.754317
     19          6           0       -0.108701    2.355673    0.339309
     20          6           0        1.127450    3.117366   -0.086152
     21          8           0        1.856219    3.703382    0.685155
     22          8           0        1.348605    3.089313   -1.420103
     23          6           0        2.654375    0.497724    1.283884
     24          6           0        3.741417   -0.259487    0.853267
     25          1           0        6.643152   -1.884949   -1.665243
     26          1           0        6.274481   -0.524423   -0.594275
     27          1           0        5.400392   -0.703027   -2.123552
     28          1           0        4.377226   -2.828679   -1.312509
     29          1           0        4.640520   -3.571051    1.055425
     30          1           0        5.812299   -2.276036    1.344547
     31          1           0        6.196164   -3.570787    0.199876
     32          1           0        2.144299   -2.282978   -1.341300
     33          1           0        0.224577   -0.953995   -0.587619
     34          1           0        0.460036    1.502369    2.266839
     35          1           0       -1.796301    0.820999    2.086893
     36          1           0       -1.065216   -0.657822    1.448351
     37          1           0       -4.965442   -1.608501    2.223762
     38          1           0       -4.070802   -2.923634    1.434422
     39          1           0       -5.831742   -2.800843    1.231289
     40          1           0       -5.468478   -2.805836   -1.324857
     41          1           0       -3.716399   -2.899593   -1.066253
     42          1           0       -4.397845   -1.589899   -2.059936
     43          1           0       -6.803067   -0.851874   -0.152634
     44          1           0       -5.699135    0.316668   -0.915316
     45          1           0       -5.900141    0.296887    0.852695
     46          1           0       -1.707374    2.488920   -1.176757
     47          1           0       -0.420519    1.346271   -1.579282
     48          1           0       -0.694153    3.061560    0.942005
     49          1           0        2.171652    3.593546   -1.567575
     50          1           0        2.807160    1.283437    2.019327
     51          1           0        4.723568   -0.055008    1.272779
 ---------------------------------------------------------------------

 The electronic state is 1-A.
 Alpha  occ. eigenvalues --  -19.20293 -19.17335 -19.14117 -19.10735 -14.35836
 Alpha  occ. eigenvalues --  -10.32606 -10.32145 -10.25282 -10.22649 -10.22174
 Alpha  occ. eigenvalues --  -10.21699 -10.21355 -10.19616 -10.19542 -10.19203
 Alpha  occ. eigenvalues --  -10.18776 -10.18712 -10.18628 -10.18608 -10.17728
 Alpha  occ. eigenvalues --  -10.17637 -10.17622 -10.16998 -10.16985  -1.11017
 Alpha  occ. eigenvalues --   -1.08646  -1.01804  -0.99777  -0.94618  -0.86000
 Alpha  occ. eigenvalues --   -0.82505  -0.80302  -0.78935  -0.75856  -0.74223
 Alpha  occ. eigenvalues --   -0.72107  -0.69074  -0.68777  -0.68310  -0.68021
 Alpha  occ. eigenvalues --   -0.64711  -0.61626  -0.60572  -0.59426  -0.58061
 Alpha  occ. eigenvalues --   -0.55795  -0.54665  -0.51585  -0.50421  -0.48871
 Alpha  occ. eigenvalues --   -0.48435  -0.47451  -0.46798  -0.46422  -0.45791
 Alpha  occ. eigenvalues --   -0.45112  -0.44581  -0.44097  -0.43106  -0.42845
 Alpha  occ. eigenvalues --   -0.42587  -0.41726  -0.41329  -0.41249  -0.41136
 Alpha  occ. eigenvalues --   -0.40296  -0.39550  -0.39359  -0.38668  -0.38610
 Alpha  occ. eigenvalues --   -0.37401  -0.37225  -0.36988  -0.36431  -0.35156
 Alpha  occ. eigenvalues --   -0.35081  -0.34915  -0.34335  -0.34221  -0.33393
 Alpha  occ. eigenvalues --   -0.32802  -0.32563  -0.32126  -0.31549  -0.28363
 Alpha  occ. eigenvalues --   -0.27835  -0.25691  -0.24814  -0.24066  -0.23198
 Alpha virt. eigenvalues --   -0.00402  -0.00091   0.00257   0.05176   0.06959
 Alpha virt. eigenvalues --    0.08266   0.08836   0.09510   0.10338   0.11106
 Alpha virt. eigenvalues --    0.11692   0.13066   0.13527   0.14232   0.14656

 Mulliken charges:
               1
     1  C   -0.438979
     2  C   -0.160468
     3  C   -0.438720
     4  C    0.190811
     5  C   -0.203350
     6  C   -0.186465
     7  C    0.153175
     8  C   -0.222099
     9  C   -0.106006
    10  N   -0.490500
    11  C    0.802961
    12  O   -0.536797
    13  O   -0.532381
    14  C    0.321947
    15  C   -0.450390
    16  C   -0.466742
    17  C   -0.465736
    18  C   -0.098051
    19  C   -0.215684
    20  C    0.598698
    21  O   -0.474286
    22  O   -0.562545
    23  C   -0.182495
    24  C   -0.188179
    25  H    0.142095
    26  H    0.143973
    27  H    0.148916
    28  H    0.129286
    29  H    0.149571
    30  H    0.143885
    31  H    0.141923
    32  H    0.125016
    33  H    0.143526
    34  H    0.156163
    35  H    0.152561
    36  H    0.170455
    37  H    0.150664
    38  H    0.150910
    39  H    0.144864
    40  H    0.140166
    41  H    0.143321
    42  H    0.189880
    43  H    0.139857
    44  H    0.189660
    45  H    0.143080
    46  H    0.176175
    47  H    0.177511
    48  H    0.177612
    49  H    0.411511
    50  H    0.142875
    51  H    0.126824
 Sum of Mulliken charges =  -0.00000

 Dipole moment (field-independent basis, Debye):
    X=              0.7755    Y=             -1.3194    Z=              0.9476  Tot=              1.8001
 Quadrupole moment (field-independent basis, Debye-Ang):
   XX=           -135.1688   YY=           -141.0976   ZZ=           -145.1546
   XY=              1.4571   XZ=            -11.2873   YZ=             -1.1111

 Normal termination of Gaussian 16 at Fri Nov  4 18:54:38 2022.
