 Gaussian 16, Revision B.01,
 Gaussian 16:  ES64L-G16RevB.01 20-Dec-2017

 -------------------------------------------------------------------
 #p b3lyp/6-31g(d) 6D 10F nosymm GFInput td=(50-50,nstate=2) SCF=XQC
 -------------------------------------------------------------------

 ------------------------------
 Gaussian input prepared by ASE
 ------------------------------
 Symbolic Z-matrix:
 Charge =  0 Multiplicity = 1

                          Input orientation:
 ---------------------------------------------------------------------
 Center     Atomic      Atomic             Coordinates (Angstroms)
 Number     Number       Type             X           Y           Z
 ---------------------------------------------------------------------
      1          6           0        5.916763    0.975138    0.607113
      2          6           0        4.865154    1.430384   -0.422427
      3          6           0        5.469225    1.493838   -1.838131
      4          6           0        3.615080    0.562015   -0.377769
      5          6           0        2.372327    1.109545   -0.040091
      6          6           0        1.216926    0.327644    0.001596
      7          6           0        1.264283   -1.040588   -0.296361
      8          6           0        0.036505   -1.938819   -0.253665
      9          6           0       -1.286864   -1.233190   -0.613591
     10          7           0       -1.801718   -0.764930    0.679031
     11          6           0       -2.925027   -0.011564    0.860003
     12          8           0       -3.363936    0.294277    1.959672
     13          8           0       -3.454689    0.333036   -0.342790
     14          6           0       -4.660999    1.170202   -0.423798
     15          6           0       -4.873000    1.301619   -1.934540
     16          6           0       -4.393949    2.540834    0.207922
     17          6           0       -5.845794    0.450300    0.229651
     18          6           0       -1.102672   -1.349874    1.826930
     19          6           0       -0.300221   -2.485506    1.178051
     20          6           0        0.911673   -3.015008    1.913036
     21          8           0        1.562472   -3.967378    1.540364
     22          8           0        1.206597   -2.325519    3.038535
     23          6           0        2.508995   -1.592257   -0.635564
     24          6           0        3.659509   -0.807882   -0.674715
     25          1           0        6.782779    1.647714    0.598203
     26          1           0        6.278861   -0.036026    0.386046
     27          1           0        5.501265    0.966777    1.620694
     28          1           0        4.558737    2.449686   -0.150090
     29          1           0        4.734387    1.852989   -2.566834
     30          1           0        5.812542    0.506455   -2.169154
     31          1           0        6.331865    2.170449   -1.860239
     32          1           0        2.303136    2.169820    0.194176
     33          1           0        0.272166    0.795148    0.264894
     34          1           0        0.210321   -2.785510   -0.923450
     35          1           0       -1.990093   -1.936219   -1.080240
     36          1           0       -1.141742   -0.400493   -1.306020
     37          1           0       -5.017647    0.317303   -2.391813
     38          1           0       -4.007390    1.777497   -2.406960
     39          1           0       -5.758745    1.912291   -2.138934
     40          1           0       -5.256724    3.196449    0.043904
     41          1           0       -3.518895    3.009112   -0.256599
     42          1           0       -4.218931    2.449451    1.280867
     43          1           0       -6.763044    1.027655    0.066966
     44          1           0       -5.687835    0.332767    1.302643
     45          1           0       -5.983642   -0.539446   -0.219988
     46          1           0       -1.818707   -1.700385    2.574384
     47          1           0       -0.448470   -0.615986    2.309436
     48          1           0       -0.957177   -3.352731    1.034513
     49          1           0        2.006244   -2.745065    3.409956
     50          1           0        2.576140   -2.652698   -0.864741
     51          1           0        4.603958   -1.273322   -0.946383
 ---------------------------------------------------------------------

 SCF Done:  E(RB3LYP) =  -1095.98725027     A.U. after   14 cycles

 Excitation energies and oscillator strengths:

 Excited state symmetry could not be determined.
 Excited State   1:      Triplet-?Sym    3.7034 eV  334.79 nm  f=0.0000  <S**2>=2.000
      88 -> 91         0.28662
      88 -> 92        -0.31119
      88 -> 93        -0.15868
      89 -> 91        -0.28281
      89 -> 92        -0.20089
      90 -> 91         0.35293
      90 -> 92         0.19604
 This state for optimization and/or second-order correction.
 Total Energy, E(TD-HF/TD-DFT) =  -1095.85115375
 Copying the excited state density for this state as the 1-particle RhoCI density.

 Excited state symmetry could not be determined.
 Excited State   2:      Triplet-?Sym    4.5866 eV  270.32 nm  f=0.0000  <S**2>=2.000
      88 -> 91        -0.18074
      88 -> 92        -0.23775
      88 -> 93        -0.10028
      89 -> 91         0.23961
      89 -> 92        -0.28806
      89 -> 93        -0.13953
      90 -> 91        -0.32523
      90 -> 92         0.32868
      90 -> 93         0.15856

 Excited state symmetry could not be determined.
 Excited State   3:      Singlet-?Sym    5.3021 eV  233.84 nm  f=0.0020  <S**2>=0.000
      88 -> 91         0.35769
      88 -> 92         0.24081
      89 -> 91         0.18700
      89 -> 92        -0.18610
      90 -> 91        -0.29212
      90 -> 92         0.35579
      90 -> 93         0.13136

 Excited state symmetry could not be determined.
 Excited State   4:      Singlet-?Sym    5.6093 eV  221.03 nm  f=0.0219  <S**2>=0.000
      86 -> 93        -0.11470
      90 -> 91        -0.21271
      90 -> 92        -0.38385
      90 -> 93         0.52462

 Alpha  occ. eigenvalues --  -19.20294 -19.17335 -19.14117 -19.10735 -14.35836
 Alpha  occ. eigenvalues --  -10.32606 -10.32145 -10.25282 -10.22649 -10.22174
 Alpha  occ. eigenvalues --  -10.21699 -10.21355 -10.19616 -10.19542 -10.19203
 Alpha  occ. eigenvalues --  -10.18776 -10.18712 -10.18628 -10.18608 -10.17728
 Alpha  occ. eigenvalues --  -10.17637 -10.17622 -10.16998 -10.16985  -1.11017
 Alpha  occ. eigenvalues --   -1.08646  -1.01804  -0.99777  -0.94618  -0.86000
 Alpha  occ. eigenvalues --   -0.82505  -0.80302  -0.78935  -0.75856  -0.74223
 Alpha  occ. eigenvalues --   -0.72106  -0.69074  -0.68777  -0.68310  -0.68021
 Alpha  occ. eigenvalues --   -0.64711  -0.61626  -0.60572  -0.59426  -0.58061
 Alpha  occ. eigenvalues --   -0.55795  -0.54665  -0.51585  -0.50421  -0.48871
 Alpha  occ. eigenvalues --   -0.48435  -0.47451  -0.46798  -0.46422  -0.45791
 Alpha  occ. eigenvalues --   -0.45112  -0.44581  -0.44097  -0.43106  -0.42845
 Alpha  occ. eigenvalues --   -0.42587  -0.41726  -0.41329  -0.41249  -0.41136
 Alpha  occ. eigenvalues --   -0.40296  -0.39550  -0.39359  -0.38668  -0.38610
 Alpha  occ. eigenvalues --   -0.37401  -0.37225  -0.36988  -0.36431  -0.35156
 Alpha  occ. eigenvalues --   -0.35081  -0.34915  -0.34335  -0.34221  -0.33393
 Alpha  occ. eigenvalues --   -0.32802  -0.32563  -0.32126  -0.31549  -0.28363
 Alpha  occ. eigenvalues --   -0.27835  -0.25691  -0.24814  -0.24066  -0.23197
 Alpha virt. eigenvalues --   -0.00402  -0.00091   0.00257   0.05176   0.06959
 Alpha virt. eigenvalues --    0.08266   0.08836   0.09510   0.10338   0.11106
 Alpha virt. eigenvalues --    0.11692   0.13066   0.13527   0.14232   0.14656

 Mulliken charges:
               1
     1  C   -0.438972
     2  C   -0.160476
     3  C   -0.438711
     4  C    0.190797
     5  C   -0.203348
     6  C   -0.186475
     7  C    0.153172
     8  C   -0.222080
     9  C   -0.106030
    10  N   -0.490501
    11  C    0.802970
    12  O   -0.536794
    13  O   -0.532387
    14  C    0.321956
    15  C   -0.450385
    16  C   -0.466736
    17  C   -0.465759
    18  C   -0.098056
    19  C   -0.215668
    20  C    0.598688
    21  O   -0.474281
    22  O   -0.562546
    23  C   -0.182490
    24  C   -0.188172
    25  H    0.142094
    26  H    0.143972
    27  H    0.148915
    28  H    0.129287
    29  H    0.149571
    30  H    0.143883
    31  H    0.141922
    32  H    0.125015
    33  H    0.143528
    34  H    0.156159
    35  H    0.152566
    36  H    0.170458
    37  H    0.150662
    38  H    0.150909
    39  H    0.144864
    40  H    0.140163
    41  H    0.143319
    42  H    0.189879
    43  H    0.139862
    44  H    0.189664
    45  H    0.143085
    46  H    0.176174
    47  H    0.177516
    48  H    0.177609
    49  H    0.411511
    50  H    0.142875
    51  H    0.126823
 Sum of Mulliken charges =  -0.00000

 Dipole moment (field-independent basis, Debye):
    X=              0.7969    Y=              0.5842    Z=             -1.5046  Tot=              1.8000
 Quadrupole moment (field-independent basis, Debye-Ang):
   XX=           -134.2236   YY=           -144.1525   ZZ=           -144.2313
   XY=              3.5542   XZ=             10.3306   YZ=             -2.5711

 Normal termination of Gaussian 16 at Sat Nov  5 11:39:48 2022.
